<event>
 7    1  0.4402832E-005  0.3006496E+03  0.7818608E-02  0.1107028E+00
          2   -1    0    0  502    0  0.00000000000E+00  0.00000000000E+00  0.24690795289E+04  0.24690795289E+04  0.00000000000E+00 0. -1.
          1   -1    0    0  501    0 -0.00000000000E+00 -0.00000000000E+00 -0.15852692340E+03  0.15852692340E+03  0.00000000000E+00 0. -1.
         25    2    1    2    0    0  0.58046293352E+02  0.37510677146E+03  0.64145316812E+03  0.75575295196E+03  0.12500358129E+03 0.  0.
          2    1    1    2  501    0  0.15154003897E+03 -0.16655592669E+03  0.56210500536E+02  0.23208808780E+03  0.00000000000E+00 0. -1.
          1    1    1    2  502    0 -0.20958633233E+03 -0.20855084477E+03  0.16128889369E+04  0.16397654126E+04  0.00000000000E+00 0. -1.
         22    1    3    3    0    0  0.10228593462E+02 -0.66770323434E+01  0.39406030944E+02  0.41255813649E+02  0.00000000000E+00 0. -1.
         22    1    3    3    0    0  0.47817699890E+02  0.38178380380E+03  0.60204713718E+03  0.71449713831E+03  0.00000000000E+00 0. -1.
</event>
<event>
 7    1  0.4402832E-005  0.1638644E+03  0.7818608E-02  0.1211843E+00
          2   -1    0    0  502    0  0.00000000000E+00  0.00000000000E+00  0.12212563112E+03  0.12212563112E+03  0.00000000000E+00 0. -1.
          1   -1    0    0  501    0 -0.00000000000E+00 -0.00000000000E+00 -0.38493106928E+04  0.38493106928E+04  0.00000000000E+00 0. -1.
         25    2    1    2    0    0  0.13417006559E+03  0.21576643485E+03 -0.99219562474E+03  0.10318106430E+04  0.12499713731E+03 0.  0.
          2    1    1    2  501    0 -0.30400530461E+02 -0.15253833345E+03 -0.27982915236E+04  0.28026108518E+04  0.00000000000E+00 0. -1.
          1    1    1    2  502    0 -0.10376953513E+03 -0.63228101404E+02  0.63302086673E+02  0.13701482914E+03  0.00000000000E+00 0. -1.
         22    1    3    3    0    0  0.32120452499E+02  0.90216671842E+02 -0.59934982489E+03  0.60695220895E+03  0.00000000000E+00 0. -1.
         22    1    3    3    0    0  0.10204961309E+03  0.12554976301E+03 -0.39284579985E+03  0.42485843405E+03  0.00000000000E+00 0. -1.
</event>
<event>
 7    1  0.4402832E-005  0.5883665E+02  0.7818608E-02  0.1546654E+00
          2   -1    0    0  502    0  0.00000000000E+00  0.00000000000E+00  0.35242317011E+03  0.35242317011E+03  0.00000000000E+00 0. -1.
          1   -1    0    0  501    0 -0.00000000000E+00 -0.00000000000E+00 -0.65790789914E+02  0.65790789914E+02  0.00000000000E+00 0. -1.
         25    2    1    2    0    0 -0.47201206892E+02  0.21247364255E+02  0.13616856556E+03  0.19195296605E+03  0.12499863402E+03 0.  0.
          2    1    1    2  501    0  0.43297348678E+02 -0.41965866383E+02 -0.12800292453E+02  0.61641234825E+02  0.00000000000E+00 0. -1.
          1    1    1    2  502    0  0.39038582135E+01  0.20718502128E+02  0.16326410709E+03  0.16461975916E+03  0.00000000000E+00 0. -1.
         22    1    3    3    0    0 -0.36688321193E+02  0.60907338778E+02  0.13298451620E+03  0.15079992831E+03  0.00000000000E+00 0.  1.
         22    1    3    3    0    0 -0.10512885699E+02 -0.39659974523E+02  0.31840493612E+01  0.41153037740E+02  0.00000000000E+00 0.  1.
</event>
<event>
 7    1  0.4402832E-005  0.2478802E+03  0.7818608E-02  0.1239023E+00
          2   -1    0    0  502    0  0.00000000000E+00  0.00000000000E+00  0.29034153255E+03  0.29034153255E+03  0.00000000000E+00 0. -1.
          1   -1    0    0  501    0 -0.00000000000E+00 -0.00000000000E+00 -0.61506457248E+03  0.61506457248E+03  0.00000000000E+00 0. -1.
         25    2    1    2    0    0  0.25865450591E+03 -0.15165865927E+03 -0.43183280897E+03  0.54037677632E+03  0.12499993249E+03 0.  0.
          2    1    1    2  501    0 -0.44767875841E+02  0.40757384617E+02 -0.49050598866E+02  0.77918472503E+02  0.00000000000E+00 0. -1.
          1    1    1    2  502    0 -0.21388663007E+03  0.11090127466E+03  0.15616036790E+03  0.28711085620E+03  0.00000000000E+00 0. -1.
         22    1    3    3    0    0  0.17461817719E+02  0.25604124879E+01  0.47732567993E+01  0.18282635768E+02  0.00000000000E+00 0. -1.
         22    1    3    3    0    0  0.24119268819E+03 -0.15421907176E+03 -0.43660606577E+03  0.52209414056E+03  0.00000000000E+00 0. -1.
</event>
<event>
 7    1  0.4402832E-005  0.1744494E+03  0.7818608E-02  0.1239268E+00
          2   -1    0    0  502    0  0.00000000000E+00  0.00000000000E+00  0.29342846287E+04  0.29342846287E+04  0.00000000000E+00 0. -1.
          1   -1    0    0  501    0 -0.00000000000E+00 -0.00000000000E+00 -0.74469314053E+02  0.74469314053E+02  0.00000000000E+00 0. -1.
         25    2    1    2    0    0  0.69116731840E+02 -0.63036402960E+02  0.19201163715E+04  0.19264532815E+04  0.12499862049E+03 0.  0.
          2    1    1    2  501    0 -0.13063470468E+03  0.12286339276E+03  0.46871010908E+02  0.18535838533E+03  0.00000000000E+00 0. -1.
          1    1    1    2  502    0  0.61517972835E+02 -0.59826989805E+02  0.89282793231E+03  0.89694227596E+03  0.00000000000E+00 0. -1.
         22    1    3    3    0    0  0.35890849762E+02 -0.55616776399E+02  0.36430724718E+03  0.37027172355E+03  0.00000000000E+00 0.  1.
         22    1    3    3    0    0  0.33225882078E+02 -0.74196265607E+01  0.15558091243E+04  0.15561815580E+04  0.00000000000E+00 0.  1.
</event>
<event>
 7    1  0.4402832E-005  0.3095984E+03  0.7818608E-02  0.1254408E+00
          2   -1    0    0  502    0  0.00000000000E+00  0.00000000000E+00  0.43633650259E+04  0.43633650259E+04  0.00000000000E+00 0. -1.
          1   -1    0    0  501    0 -0.00000000000E+00 -0.00000000000E+00 -0.24498873400E+03  0.24498873400E+03  0.00000000000E+00 0. -1.
         25    2    1    2    0    0  0.15629653751E+03  0.26277871589E+03  0.38290026237E+04  0.38432235545E+04  0.12499974404E+03 0.  0.
          2    1    1    2  501    0  0.38156333990E+02  0.16403582937E+02 -0.18038585169E+03  0.18510548033E+03  0.00000000000E+00 0. -1.
          1    1    1    2  502    0 -0.19445287150E+03 -0.27918229882E+03  0.46975951982E+03  0.58002472505E+03  0.00000000000E+00 0. -1.
         22    1    3    3    0    0  0.66356119938E+02  0.21928549182E+03  0.25035149906E+04  0.25139762468E+04  0.00000000000E+00 0.  1.
         22    1    3    3    0    0  0.89940417575E+02  0.43493224062E+02  0.13254876332E+04  0.13292473077E+04  0.00000000000E+00 0.  1.
</event>
<event>
 7    1  0.4402832E-005  0.7031210E+03  0.7818608E-02  0.1048177E+00
          2   -1    0    0  502    0  0.00000000000E+00  0.00000000000E+00  0.21507216031E+04  0.21507216031E+04  0.00000000000E+00 0. -1.
          1   -1    0    0  501    0 -0.00000000000E+00 -0.00000000000E+00 -0.80086163262E+03  0.80086163262E+03  0.00000000000E+00 0. -1.
         25    2    1    2    0    0 -0.55039025564E+03  0.32315750751E+03  0.88780859766E+03  0.11005404439E+04  0.12499981802E+03 0.  0.
          2    1    1    2  501    0 -0.41927632355E+02  0.20946118751E+03 -0.53429398993E+03  0.57541461844E+03  0.00000000000E+00 0. -1.
          1    1    1    2  502    0  0.59231788800E+03 -0.53261869502E+03  0.99634536273E+03  0.12756281733E+04  0.00000000000E+00 0. -1.
         22    1    3    3    0    0 -0.47930354981E+03  0.22670232465E+03  0.71007087085E+03  0.88618648066E+03  0.00000000000E+00 0. -1.
         22    1    3    3    0    0 -0.71086705834E+02  0.96455182852E+02  0.17773772681E+03  0.21435396329E+03  0.00000000000E+00 0. -1.
</event>
<event>
 7    1  0.4402832E-005  0.4676041E+03  0.7818608E-02  0.1185766E+00
          2   -1    0    0  502    0  0.00000000000E+00  0.00000000000E+00  0.45310927869E+03  0.45310927869E+03  0.00000000000E+00 0. -1.
          1   -1    0    0  501    0 -0.00000000000E+00 -0.00000000000E+00 -0.74859160382E+03  0.74859160382E+03  0.00000000000E+00 0. -1.
         25    2    1    2    0    0 -0.37136837247E+03 -0.25059850739E+03 -0.26904292941E+03  0.53732992869E+03  0.12500109772E+03 0.  0.
          2    1    1    2  501    0  0.39007800479E+03  0.30397165771E+03 -0.15964186749E+03  0.51965868065E+03  0.00000000000E+00 0. -1.
          1    1    1    2  502    0 -0.18709632329E+02 -0.53373150321E+02  0.13320247178E+03  0.14471227317E+03  0.00000000000E+00 0. -1.
         22    1    3    3    0    0 -0.33689275205E+02 -0.79866063697E+02 -0.46942543746E+02  0.98575645103E+02  0.00000000000E+00 0. -1.
         22    1    3    3    0    0 -0.33767909726E+03 -0.17073244369E+03 -0.22210038566E+03  0.43875428359E+03  0.00000000000E+00 0. -1.
</event>
<event>
 7    1  0.4402832E-005  0.1203575E+03  0.7818608E-02  0.1272145E+00
          2   -1    0    0  502    0  0.00000000000E+00  0.00000000000E+00  0.17570169448E+04  0.17570169448E+04  0.00000000000E+00 0. -1.
          1   -1    0    0  501    0 -0.00000000000E+00 -0.00000000000E+00 -0.84393125768E+03  0.84393125768E+03  0.00000000000E+00 0. -1.
         25    2    1    2    0    0 -0.10764505124E+03  0.15695850748E+03  0.13302985732E+04  0.13496455777E+04  0.12500184568E+03 0.  0.
          2    1    1    2  501    0  0.99419307016E+02 -0.67507346698E+02 -0.82501648191E+03  0.83372275721E+03  0.00000000000E+00 0. -1.
          1    1    1    2  502    0  0.82257442232E+01 -0.89451160779E+02  0.40780359587E+03  0.41757986761E+03  0.00000000000E+00 0. -1.
         22    1    3    3    0    0 -0.25953896554E+02  0.38709085923E+01  0.53474238476E+03  0.53538584847E+03  0.00000000000E+00 0.  1.
         22    1    3    3    0    0 -0.81691154685E+02  0.15308759889E+03  0.79555618841E+03  0.81425972920E+03  0.00000000000E+00 0.  1.
</event>
<event>
 7    1  0.4402832E-005  0.5510888E+03  0.7818608E-02  0.1036638E+00
          2   -1    0    0  502    0  0.00000000000E+00  0.00000000000E+00  0.12329273498E+04  0.12329273498E+04  0.00000000000E+00 0. -1.
          1   -1    0    0  501    0 -0.00000000000E+00 -0.00000000000E+00 -0.11358478405E+04  0.11358478405E+04  0.00000000000E+00 0. -1.
         25    2    1    2    0    0  0.76622677648E+03  0.25399988958E+03 -0.31802278063E+03  0.87657449981E+03  0.12499979125E+03 0.  0.
          2    1    1    2  501    0 -0.24753778116E+03 -0.20609906848E+03 -0.40695585941E+03  0.51900370966E+03  0.00000000000E+00 0. -1.
          1    1    1    2  502    0 -0.51868899532E+03 -0.47900821107E+02  0.82205814941E+03  0.97319698085E+03  0.00000000000E+00 0. -1.
         22    1    3    3    0    0  0.66332143451E+03  0.18699684714E+03 -0.23414216742E+03  0.72786379281E+03  0.00000000000E+00 0.  1.
         22    1    3    3    0    0  0.10290534197E+03  0.67003042441E+02 -0.83880613217E+02  0.14871070700E+03  0.00000000000E+00 0.  1.
</event>
<event>
 7    1  0.4402832E-005  0.1356896E+03  0.7818608E-02  0.1238067E+00
          2   -1    0    0  502    0  0.00000000000E+00  0.00000000000E+00  0.93563273532E+03  0.93563273532E+03  0.00000000000E+00 0. -1.
          1   -1    0    0  501    0 -0.00000000000E+00 -0.00000000000E+00 -0.13680348585E+03  0.13680348585E+03  0.00000000000E+00 0. -1.
         25    2    1    2    0    0 -0.38804601104E+02  0.23036802972E+03  0.30004374040E+02  0.26664680318E+03  0.12500011599E+03 0.  0.
          2    1    1    2  501    0  0.45555491371E+02 -0.10196755524E+03  0.32108408096E+03  0.33995245574E+03  0.00000000000E+00 0. -1.
          1    1    1    2  502    0 -0.67508902670E+01 -0.12840047448E+03  0.44774079447E+03  0.46583696225E+03  0.00000000000E+00 0. -1.
         22    1    3    3    0    0 -0.64448795962E+02  0.22183319664E+03  0.45570350645E+02  0.23545757854E+03  0.00000000000E+00 0. -1.
         22    1    3    3    0    0  0.25644194858E+02  0.85348330775E+01 -0.15565976605E+02  0.31189224634E+02  0.00000000000E+00 0. -1.
</event>
<event>
 7    1  0.4402832E-005  0.3204886E+03  0.7818608E-02  0.1257922E+00
          2   -1    0    0  502    0  0.00000000000E+00  0.00000000000E+00  0.38801062100E+04  0.38801062100E+04  0.00000000000E+00 0. -1.
          1   -1    0    0  501    0 -0.00000000000E+00 -0.00000000000E+00 -0.11987501053E+03  0.11987501053E+03  0.00000000000E+00 0. -1.
         25    2    1    2    0    0  0.12209313927E+03  0.31430065538E+03  0.15036411203E+04  0.15460443495E+04  0.12499950161E+03 0.  0.
          2    1    1    2  501    0 -0.84113617536E+02 -0.30660543935E+03  0.15807305894E+03  0.35506209042E+03  0.00000000000E+00 0. -1.
          1    1    1    2  502    0 -0.37979521736E+02 -0.76952160328E+01  0.20985170202E+04  0.20988747806E+04  0.00000000000E+00 0. -1.
         22    1    3    3    0    0  0.19886103747E+02  0.13451350699E+03  0.83974742869E+03  0.85068506786E+03  0.00000000000E+00 0. -1.
         22    1    3    3    0    0  0.10220703552E+03  0.17978714839E+03  0.66389369160E+03  0.69535928165E+03  0.00000000000E+00 0. -1.
</event>
<event>
 7    1  0.4402832E-005  0.1909471E+03  0.7818608E-02  0.1375002E+00
          2   -1    0    0  502    0  0.00000000000E+00  0.00000000000E+00  0.52038516286E+03  0.52038516286E+03  0.00000000000E+00 0. -1.
          1   -1    0    0  501    0 -0.00000000000E+00 -0.00000000000E+00 -0.15543708935E+04  0.15543708935E+04  0.00000000000E+00 0. -1.
         25    2    1    2    0    0  0.17102476899E+03  0.10209787581E+03  0.14738373578E+03  0.27752167594E+03  0.12499146848E+03 0.  0.
          2    1    1    2  501    0 -0.10429857290E+01 -0.22647844044E+02 -0.14606231228E+04  0.14607990689E+04  0.00000000000E+00 0. -1.
          1    1    1    2  502    0 -0.16998178326E+03 -0.79450031766E+02  0.27925365645E+03  0.33643531151E+03  0.00000000000E+00 0. -1.
         22    1    3    3    0    0  0.11804190636E+03  0.10782972323E+03  0.51756134515E+02  0.16804713127E+03  0.00000000000E+00 0.  1.
         22    1    3    3    0    0  0.52982862624E+02 -0.57318474185E+01  0.95627601267E+02  0.10947454467E+03  0.00000000000E+00 0.  1.
</event>
<event>
 7    1  0.4402832E-005  0.1563894E+03  0.7818608E-02  0.1343552E+00
          2   -1    0    0  502    0  0.00000000000E+00  0.00000000000E+00  0.22475700878E+04  0.22475700878E+04  0.00000000000E+00 0. -1.
          1   -1    0    0  501    0 -0.00000000000E+00 -0.00000000000E+00 -0.84766175946E+02  0.84766175946E+02  0.00000000000E+00 0. -1.
         25    2    1    2    0    0 -0.12286420083E+03 -0.92262444822E+02  0.14429420686E+04  0.14564738195E+04  0.12500481247E+03 0.  0.
          2    1    1    2  501    0  0.14363369302E+03  0.62776111197E+02  0.16662178495E+01  0.15676177528E+03  0.00000000000E+00 0. -1.
          1    1    1    2  502    0 -0.20769492192E+02  0.29486333625E+02  0.71819562546E+03  0.71910066896E+03  0.00000000000E+00 0. -1.
         22    1    3    3    0    0 -0.12430278241E+03 -0.11438744978E+03  0.13658598270E+04  0.13762662306E+04  0.00000000000E+00 0. -1.
         22    1    3    3    0    0  0.14385815774E+01  0.22125004954E+02  0.77082241548E+02  0.80207588938E+02  0.00000000000E+00 0. -1.
</event>
<event>
 7    1  0.4402832E-005  0.5372090E+03  0.7818608E-02  0.1086212E+00
          2   -1    0    0  502    0  0.00000000000E+00  0.00000000000E+00  0.90458480284E+03  0.90458480284E+03  0.00000000000E+00 0. -1.
          1   -1    0    0  501    0 -0.00000000000E+00 -0.00000000000E+00 -0.93665718807E+03  0.93665718807E+03  0.00000000000E+00 0. -1.
         25    2    1    2    0    0 -0.50994351063E+02 -0.54975598793E+03  0.57700543550E+03  0.80832644434E+03  0.12499719162E+03 0.  0.
          2    1    1    2  501    0 -0.14631453259E+03  0.77084308524E+02 -0.47570972388E+03  0.50363645069E+03  0.00000000000E+00 0. -1.
          1    1    1    2  502    0  0.19730888365E+03  0.47267167941E+03 -0.13336809685E+03  0.52927909589E+03  0.00000000000E+00 0. -1.
         22    1    3    3    0    0 -0.73927772990E+02 -0.51861991756E+03  0.51092405603E+03  0.73176179563E+03  0.00000000000E+00 0. -1.
         22    1    3    3    0    0  0.22933421927E+02 -0.31136070374E+02  0.66081379476E+02  0.76564648716E+02  0.00000000000E+00 0. -1.
</event>
<event>
 7    1  0.4402832E-005  0.1226291E+03  0.7818608E-02  0.1321519E+00
          2   -1    0    0  502    0  0.00000000000E+00  0.00000000000E+00  0.23316481506E+03  0.23316481506E+03  0.00000000000E+00 0. -1.
          1   -1    0    0  501    0 -0.00000000000E+00 -0.00000000000E+00 -0.22577842523E+04  0.22577842523E+04  0.00000000000E+00 0. -1.
         25    2    1    2    0    0 -0.83001093053E+02 -0.73640710027E+02 -0.69061476200E+02  0.18084966232E+03  0.12499990899E+03 0.  0.
          2    1    1    2  501    0 -0.38953823408E+02  0.39942285151E+02 -0.21098363757E+04  0.21105739311E+04  0.00000000000E+00 0. -1.
          1    1    1    2  502    0  0.12195491646E+03  0.33698424876E+02  0.15427841469E+03  0.19952547388E+03  0.00000000000E+00 0. -1.
         22    1    3    3    0    0  0.88827030699E+01 -0.75670161132E+01  0.28900275287E+02  0.31167098972E+02  0.00000000000E+00 0.  1.
         22    1    3    3    0    0 -0.91883796123E+02 -0.66073693914E+02 -0.97961751487E+02  0.14968256335E+03  0.00000000000E+00 0.  1.
</event>
<event>
 7    1  0.6514524E-005  0.2546296E+03  0.7818608E-02  0.1293299E+00
          2   -1    0    0  502    0  0.00000000000E+00  0.00000000000E+00  0.24791093472E+04  0.24791093472E+04  0.00000000000E+00 0. -1.
          1   -1    0    0  501    0 -0.00000000000E+00 -0.00000000000E+00 -0.83610730787E+03  0.83610730787E+03  0.00000000000E+00 0. -1.
         25    2    1    2    0    0  0.21061126192E+03 -0.10667593183E+03 -0.79517841556E+03  0.83885038296E+03  0.12499757733E+03 0.  0.
          2    1    1    2  501    0  0.28790352390E+02  0.19456759873E+02  0.11878561160E+02  0.36722610347E+02  0.00000000000E+00 0. -1.
          1    1    1    2  502    0 -0.23940161431E+03  0.87219171959E+02  0.24263018937E+04  0.24396436618E+04  0.00000000000E+00 0. -1.
         22    1    3    3    0    0 -0.11336943568E+02 -0.26564399342E+02 -0.12663507382E+03  0.12988701060E+03  0.00000000000E+00 0. -1.
         22    1    3    3    0    0  0.22194820549E+03 -0.80111532490E+02 -0.66854334174E+03  0.70896337236E+03  0.00000000000E+00 0. -1.
</event>
<event>
 7    1  0.4402832E-005  0.5407807E+03  0.7818608E-02  0.1062607E+00
          2   -1    0    0  502    0  0.00000000000E+00  0.00000000000E+00  0.20737714878E+04  0.20737714878E+04  0.00000000000E+00 0. -1.
          1   -1    0    0  501    0 -0.00000000000E+00 -0.00000000000E+00 -0.44985154109E+03  0.44985154109E+03  0.00000000000E+00 0. -1.
         25    2    1    2    0    0  0.24168564348E+03 -0.54348287469E+03 -0.12838117573E+03  0.62120421295E+03  0.12500944991E+03 0.  0.
          2    1    1    2  501    0 -0.25790674296E+03  0.31751566210E+03  0.58807255537E+03  0.71635285588E+03  0.00000000000E+00 0. -1.
          1    1    1    2  502    0  0.16221099487E+02  0.22596721259E+03  0.11642285670E+04  0.11860659600E+04  0.00000000000E+00 0. -1.
         22    1    3    3    0    0  0.90188990158E+02 -0.14114757020E+03  0.14605180746E+02  0.16813685445E+03  0.00000000000E+00 0.  1.
         22    1    3    3    0    0  0.15149665332E+03 -0.40233530449E+03 -0.14298635647E+03  0.45306735851E+03  0.00000000000E+00 0.  1.
</event>
<event>
 7    1  0.4402832E-005  0.3879916E+03  0.7818608E-02  0.1124194E+00
          2   -1    0    0  502    0  0.00000000000E+00  0.00000000000E+00  0.17792306926E+03  0.17792306926E+03  0.00000000000E+00 0. -1.
          1   -1    0    0  501    0 -0.00000000000E+00 -0.00000000000E+00 -0.18967482823E+04  0.18967482823E+04  0.00000000000E+00 0. -1.
         25    2    1    2    0    0 -0.75503931024E+02 -0.40489923381E+03 -0.15193630025E+04  0.15791558579E+04  0.12500022796E+03 0.  0.
          2    1    1    2  501    0 -0.26744154203E+02  0.30848619814E+03 -0.10845999387E+03  0.32808924777E+03  0.00000000000E+00 0. -1.
          1    1    1    2  502    0  0.10224808523E+03  0.96413035667E+02 -0.91002216681E+02  0.16742624591E+03  0.00000000000E+00 0. -1.
         22    1    3    3    0    0 -0.10262363108E+02 -0.23098770012E+03 -0.10322886298E+04  0.10578659881E+04  0.00000000000E+00 0.  1.
         22    1    3    3    0    0 -0.65241567916E+02 -0.17391153369E+03 -0.48707437274E+03  0.52128986976E+03  0.00000000000E+00 0.  1.
</event>
<event>
 7    1  0.4402832E-005  0.1055578E+03  0.7818608E-02  0.1271626E+00
          2   -1    0    0  502    0  0.00000000000E+00  0.00000000000E+00  0.65655794836E+03  0.65655794836E+03  0.00000000000E+00 0. -1.
          1   -1    0    0  501    0 -0.00000000000E+00 -0.00000000000E+00 -0.61296356238E+02  0.61296356238E+02  0.00000000000E+00 0. -1.
         25    2    1    2    0    0  0.10109158163E+03 -0.43184453368E+02  0.16554617332E+03  0.23476643753E+03  0.12500135919E+03 0.  0.
          2    1    1    2  501    0 -0.79923855750E+02 -0.68953804720E+02  0.18309006305E+03  0.21133958714E+03  0.00000000000E+00 0. -1.
          1    1    1    2  502    0 -0.21167725880E+02  0.11213825809E+03  0.24662535575E+03  0.27174827993E+03  0.00000000000E+00 0. -1.
         22    1    3    3    0    0  0.70724893239E+02 -0.74766032291E+02  0.16050240534E+03  0.19066460665E+03  0.00000000000E+00 0. -1.
         22    1    3    3    0    0  0.30366688391E+02  0.31581578923E+02  0.50437679719E+01  0.44101830874E+02  0.00000000000E+00 0. -1.
</event>
<event>
 7    1  0.4402832E-005  0.4313826E+03  0.7818608E-02  0.1117599E+00
          2   -1    0    0  502    0  0.00000000000E+00  0.00000000000E+00  0.86218707898E+03  0.86218707898E+03  0.00000000000E+00 0. -1.
          1   -1    0    0  501    0 -0.00000000000E+00 -0.00000000000E+00 -0.15566921986E+04  0.15566921986E+04  0.00000000000E+00 0. -1.
         25    2    1    2    0    0  0.26674268148E+03  0.32702593106E+03 -0.13346115767E+04  0.14053149948E+04  0.12499822522E+03 0.  0.
          2    1    1    2  501    0 -0.39172501928E+03 -0.38373518613E+03  0.25503958132E+03  0.60476968496E+03  0.00000000000E+00 0. -1.
          1    1    1    2  502    0  0.12498233780E+03  0.56709255073E+02  0.38506687576E+03  0.40879459779E+03  0.00000000000E+00 0. -1.
         22    1    3    3    0    0  0.13115117072E+03  0.14988189434E+03 -0.43447769341E+03  0.47794986966E+03  0.00000000000E+00 0. -1.
         22    1    3    3    0    0  0.13559151076E+03  0.17714403672E+03 -0.90013388324E+03  0.92736512513E+03  0.00000000000E+00 0. -1.
</event>
<event>
 7    1  0.4402832E-005  0.3578451E+03  0.7818608E-02  0.1282130E+00
          2   -1    0    0  502    0  0.00000000000E+00  0.00000000000E+00  0.20024990141E+04  0.20024990141E+04  0.00000000000E+00 0. -1.
          1   -1    0    0  501    0 -0.00000000000E+00 -0.00000000000E+00 -0.51376143068E+03  0.51376143068E+03  0.00000000000E+00 0. -1.
         25    2    1    2    0    0  0.11526883477E+02 -0.34933008306E+03  0.13526076306E+04  0.14026176993E+04  0.12499852803E+03 0.  0.
          2    1    1    2  501    0  0.43723492885E+01 -0.27112316278E+02 -0.43148516405E+03  0.43235823333E+03  0.00000000000E+00 0. -1.
          1    1    1    2  502    0 -0.15899232765E+02  0.37644239934E+03  0.56761511689E+03  0.68128451219E+03  0.00000000000E+00 0. -1.
         22    1    3    3    0    0  0.54648308145E+02 -0.19984748294E+03  0.91541923023E+03  0.93857222476E+03  0.00000000000E+00 0. -1.
         22    1    3    3    0    0 -0.43121424668E+02 -0.14948260012E+03  0.43718840034E+03  0.46404547449E+03  0.00000000000E+00 0. -1.
</event>
<event>
 7    1  0.4402832E-005  0.1967540E+03  0.7818608E-02  0.1186014E+00
          2   -1    0    0  502    0  0.00000000000E+00  0.00000000000E+00  0.16629428465E+04  0.16629428465E+04  0.00000000000E+00 0. -1.
          1   -1    0    0  501    0 -0.00000000000E+00 -0.00000000000E+00 -0.14427625181E+03  0.14427625181E+03  0.00000000000E+00 0. -1.
         25    2    1    2    0    0 -0.19145048230E+03 -0.58102217250E+02  0.69927209459E+03  0.73799432795E+03  0.12500004399E+03 0.  0.
          2    1    1    2  501    0 -0.63920347822E+01  0.13389083416E+03 -0.72581944823E+02  0.15243277959E+03  0.00000000000E+00 0. -1.
          1    1    1    2  502    0  0.19784251709E+03 -0.75788616908E+02  0.89197644489E+03  0.91679199073E+03  0.00000000000E+00 0. -1.
         22    1    3    3    0    0 -0.15971185979E+03  0.49329768245E+01  0.55239739317E+03  0.57504355696E+03  0.00000000000E+00 0.  1.
         22    1    3    3    0    0 -0.31738622510E+02 -0.63035194075E+02  0.14687470142E+03  0.16295077099E+03  0.00000000000E+00 0.  1.
</event>
<event>
 7    1  0.4402832E-005  0.6195164E+02  0.7818608E-02  0.1396428E+00
          2   -1    0    0  502    0  0.00000000000E+00  0.00000000000E+00  0.66905176423E+03  0.66905176423E+03  0.00000000000E+00 0. -1.
          1   -1    0    0  501    0 -0.00000000000E+00 -0.00000000000E+00 -0.36548061012E+03  0.36548061012E+03  0.00000000000E+00 0. -1.
         25    2    1    2    0    0  0.48049159787E+02  0.55708525434E+02  0.28377728219E+03  0.31869527225E+03  0.12499987642E+03 0.  0.
          2    1    1    2  501    0 -0.58320428804E+02  0.71891689894E+01 -0.34274169591E+03  0.34774247178E+03  0.00000000000E+00 0. -1.
          1    1    1    2  502    0  0.10271269017E+02 -0.62897694424E+02  0.36253556782E+03  0.36809463031E+03  0.00000000000E+00 0. -1.
         22    1    3    3    0    0  0.78595411858E+01  0.90199844815E+02  0.15589912844E+03  0.18028400551E+03  0.00000000000E+00 0.  1.
         22    1    3    3    0    0  0.40189618601E+02 -0.34491319380E+02  0.12787815375E+03  0.13841126675E+03  0.00000000000E+00 0.  1.
</event>
<event>
 7    1  0.4402832E-005  0.2340599E+03  0.7818608E-02  0.1230383E+00
          2   -1    0    0  502    0  0.00000000000E+00  0.00000000000E+00  0.79161360294E+03  0.79161360294E+03  0.00000000000E+00 0. -1.
          1   -1    0    0  501    0 -0.00000000000E+00 -0.00000000000E+00 -0.53188442173E+03  0.53188442173E+03  0.00000000000E+00 0. -1.
         25    2    1    2    0    0  0.22114836375E+03 -0.15846922804E+03 -0.72753783159E+02  0.30813076635E+03  0.12502944128E+03 0.  0.
          2    1    1    2  501    0 -0.20434852166E+03  0.90463207679E+02 -0.30274249765E+03  0.37629101788E+03  0.00000000000E+00 0. -1.
          1    1    1    2  502    0 -0.16799842083E+02  0.68006020362E+02  0.63522546201E+03  0.63907624044E+03  0.00000000000E+00 0. -1.
         22    1    3    3    0    0  0.20893684797E+03 -0.17859600237E+03 -0.73684308109E+02  0.28457075704E+03  0.00000000000E+00 0.  1.
         22    1    3    3    0    0  0.12211515771E+02  0.20126774324E+02  0.93052494967E+00  0.23560009312E+02  0.00000000000E+00 0.  1.
</event>
<event>
 7    1  0.7298118E-005  0.4912744E+03  0.7818608E-02  0.1222837E+00
          2   -1    0    0  502    0  0.00000000000E+00  0.00000000000E+00  0.16510661869E+04  0.16510661869E+04  0.00000000000E+00 0. -1.
          1   -1    0    0  501    0 -0.00000000000E+00 -0.00000000000E+00 -0.15360738016E+04  0.15360738016E+04  0.00000000000E+00 0. -1.
         25    2    1    2    0    0 -0.48168454470E+03  0.90660656218E+02 -0.60625762143E+03  0.78956447092E+03  0.12499758003E+03 0.  0.
          2    1    1    2  501    0  0.67379996516E+01  0.35459966116E+02 -0.79903183258E+03  0.79984665987E+03  0.00000000000E+00 0. -1.
          1    1    1    2  502    0  0.47494654504E+03 -0.12612062233E+03  0.15202818393E+04  0.15977288577E+04  0.00000000000E+00 0. -1.
         22    1    3    3    0    0 -0.11543339737E+03 -0.29899076217E+02 -0.16496756611E+03  0.20355127574E+03  0.00000000000E+00 0. -1.
         22    1    3    3    0    0 -0.36625114733E+03  0.12055973244E+03 -0.44129005533E+03  0.58601319519E+03  0.00000000000E+00 0. -1.
</event>
<event>
 7    1  0.4402832E-005  0.2498435E+03  0.7818608E-02  0.1214477E+00
          2   -1    0    0  502    0  0.00000000000E+00  0.00000000000E+00  0.44923833341E+03  0.44923833341E+03  0.00000000000E+00 0. -1.
          1   -1    0    0  501    0 -0.00000000000E+00 -0.00000000000E+00 -0.17282560527E+04  0.17282560527E+04  0.00000000000E+00 0. -1.
         25    2    1    2    0    0  0.22820600611E+03 -0.96100287563E+02 -0.77384177828E+03  0.82205202223E+03  0.12500073179E+03 0.  0.
          2    1    1    2  501    0 -0.25540416987E+03  0.23529926305E+02 -0.90887475757E+03  0.94437189304E+03  0.00000000000E+00 0. -1.
          1    1    1    2  502    0  0.27198163755E+02  0.72570361258E+02  0.40369881660E+03  0.41107047080E+03  0.00000000000E+00 0. -1.
         22    1    3    3    0    0  0.38085002759E+02  0.23544280755E+02 -0.21769677453E+03  0.22225365292E+03  0.00000000000E+00 0. -1.
         22    1    3    3    0    0  0.19012100335E+03 -0.11964456832E+03 -0.55614500375E+03  0.59979836932E+03  0.00000000000E+00 0. -1.
</event>
<event>
 7    1  0.4402832E-005  0.5817963E+03  0.7818608E-02  0.1123104E+00
          2   -1    0    0  502    0  0.00000000000E+00  0.00000000000E+00  0.15437634396E+04  0.15437634396E+04  0.00000000000E+00 0. -1.
          1   -1    0    0  501    0 -0.00000000000E+00 -0.00000000000E+00 -0.16614675798E+04  0.16614675798E+04  0.00000000000E+00 0. -1.
         25    2    1    2    0    0  0.14627362812E+03 -0.62446068785E+03 -0.84118471910E+02  0.65883152941E+03  0.12504375985E+03 0.  0.
          2    1    1    2  501    0  0.42886664854E+02  0.84766773804E+02 -0.12229783140E+04  0.12266623938E+04  0.00000000000E+00 0. -1.
          1    1    1    2  502    0 -0.18916029298E+03  0.53969391405E+03  0.11893926457E+04  0.13197370962E+04  0.00000000000E+00 0. -1.
         22    1    3    3    0    0  0.79202711620E+02 -0.25260972626E+03 -0.93785151063E+02  0.28085654326E+03  0.00000000000E+00 0.  1.
         22    1    3    3    0    0  0.67070916504E+02 -0.37185096159E+03  0.96666791523E+01  0.37797498616E+03  0.00000000000E+00 0.  1.
</event>
<event>
 7    1  0.4402832E-005  0.5627751E+02  0.7818608E-02  0.1422619E+00
          2   -1    0    0  502    0  0.00000000000E+00  0.00000000000E+00  0.30638719675E+03  0.30638719675E+03  0.00000000000E+00 0. -1.
          1   -1    0    0  501    0 -0.00000000000E+00 -0.00000000000E+00 -0.54528609741E+03  0.54528609741E+03  0.00000000000E+00 0. -1.
         25    2    1    2    0    0 -0.13469309106E+02 -0.33396611307E+02  0.69046008172E+01  0.13026216038E+03  0.12499520383E+03 0.  0.
          2    1    1    2  501    0 -0.38471014568E+02  0.42440157797E+02 -0.47895746668E+03  0.48237064675E+03  0.00000000000E+00 0. -1.
          1    1    1    2  502    0  0.51940323675E+02 -0.90435464900E+01  0.23315396519E+03  0.23904048704E+03  0.00000000000E+00 0. -1.
         22    1    3    3    0    0 -0.37181637131E+01 -0.14326703636E+01  0.63990267316E+02  0.64114207450E+02  0.00000000000E+00 0. -1.
         22    1    3    3    0    0 -0.97511453934E+01 -0.31963940944E+02 -0.57085666499E+02  0.66147952929E+02  0.00000000000E+00 0. -1.
</event>
<event>
 7    1  0.4402832E-005  0.2389212E+03  0.7818608E-02  0.1205070E+00
          2   -1    0    0  502    0  0.00000000000E+00  0.00000000000E+00  0.10194780502E+03  0.10194780502E+03  0.00000000000E+00 0. -1.
          1   -1    0    0  501    0 -0.00000000000E+00 -0.00000000000E+00 -0.26292824304E+04  0.26292824304E+04  0.00000000000E+00 0. -1.
         25    2    1    2    0    0 -0.13628890110E+03 -0.19522822297E+03 -0.11890541489E+03  0.29402813796E+03  0.12500129845E+03 0.  0.
          2    1    1    2  501    0 -0.75624703798E+02  0.48068472671E+02 -0.10958281533E+04  0.10994857960E+04  0.00000000000E+00 0. -1.
          1    1    1    2  502    0  0.21191360489E+03  0.14715975030E+03 -0.13126010571E+04  0.13377163015E+04  0.00000000000E+00 0. -1.
         22    1    3    3    0    0 -0.33025857738E+02 -0.62918175021E+02  0.22528857651E+02  0.74544976051E+02  0.00000000000E+00 0. -1.
         22    1    3    3    0    0 -0.10326304336E+03 -0.13231004795E+03 -0.14143427254E+03  0.21948316191E+03  0.00000000000E+00 0. -1.
</event>
<event>
 7    1  0.4402832E-005  0.1462255E+04  0.7818608E-02  0.1082026E+00
          2   -1    0    0  502    0  0.00000000000E+00  0.00000000000E+00  0.35592449261E+04  0.35592449261E+04  0.00000000000E+00 0. -1.
          1   -1    0    0  501    0 -0.00000000000E+00 -0.00000000000E+00 -0.17523384319E+04  0.17523384319E+04  0.00000000000E+00 0. -1.
         25    2    1    2    0    0  0.12533575293E+04 -0.82454143122E+03  0.75583007095E+02  0.15073524345E+04  0.12499961164E+03 0.  0.
          2    1    1    2  501    0 -0.11923292770E+04  0.80444101762E+03 -0.53677651373E+03  0.15352209878E+04  0.00000000000E+00 0. -1.
          1    1    1    2  502    0 -0.61028252277E+02  0.20100413599E+02  0.22681000009E+04  0.22690099357E+04  0.00000000000E+00 0. -1.
         22    1    3    3    0    0  0.11549328066E+04 -0.79428635939E+03  0.82701475210E+02  0.14041367962E+04  0.00000000000E+00 0. -1.
         22    1    3    3    0    0  0.98424722612E+02 -0.30255071826E+02 -0.71184681152E+01  0.10321563826E+03  0.00000000000E+00 0. -1.
</event>
<event>
 7    1  0.4402832E-005  0.1975787E+03  0.7818608E-02  0.1162787E+00
          2   -1    0    0  502    0  0.00000000000E+00  0.00000000000E+00  0.13572827680E+04  0.13572827680E+04  0.00000000000E+00 0. -1.
          1   -1    0    0  501    0 -0.00000000000E+00 -0.00000000000E+00 -0.93089354029E+02  0.93089354029E+02  0.00000000000E+00 0. -1.
         25    2    1    2    0    0  0.18704646119E+02 -0.50697776608E+00  0.35032676142E+02  0.13115974464E+03  0.12500187760E+03 0.  0.
          2    1    1    2  501    0  0.14546835070E+03  0.13370221678E+03  0.25613382174E+03  0.32348393850E+03  0.00000000000E+00 0. -1.
          1    1    1    2  502    0 -0.16417299682E+03 -0.13319523902E+03  0.97302691607E+03  0.99572843888E+03  0.00000000000E+00 0. -1.
         22    1    3    3    0    0  0.40556362751E+02  0.46163075242E+02 -0.10565894537E+02  0.62349708923E+02  0.00000000000E+00 0. -1.
         22    1    3    3    0    0 -0.21851716632E+02 -0.46670053008E+02  0.45598570680E+02  0.68810035719E+02  0.00000000000E+00 0. -1.
</event>
<event>
 7    1  0.4402832E-005  0.2360274E+03  0.7818608E-02  0.1154648E+00
          2   -1    0    0  502    0  0.00000000000E+00  0.00000000000E+00  0.36472812269E+03  0.36472812269E+03  0.00000000000E+00 0. -1.
          1   -1    0    0  501    0 -0.00000000000E+00 -0.00000000000E+00 -0.64017362848E+03  0.64017362848E+03  0.00000000000E+00 0. -1.
         25    2    1    2    0    0 -0.10482580273E+03  0.24821495414E+03 -0.48207667371E+02  0.30091356860E+03  0.12500353675E+03 0.  0.
          2    1    1    2  501    0 -0.98687381004E+02 -0.12585348256E+03 -0.38635014579E+03  0.41814439300E+03  0.00000000000E+00 0. -1.
          1    1    1    2  502    0  0.20351318373E+03 -0.12236147158E+03  0.15911230737E+03  0.28584378957E+03  0.00000000000E+00 0. -1.
         22    1    3    3    0    0 -0.68023247142E+01  0.24332563082E+02 -0.50537628539E+02  0.56501302162E+02  0.00000000000E+00 0. -1.
         22    1    3    3    0    0 -0.98023478012E+02  0.22388239106E+03  0.23299611680E+01  0.24441226644E+03  0.00000000000E+00 0. -1.
</event>
<event>
 7    1  0.4402832E-005  0.3515915E+03  0.7818608E-02  0.1086092E+00
          2   -1    0    0  502    0  0.00000000000E+00  0.00000000000E+00  0.71172457209E+03  0.71172457209E+03  0.00000000000E+00 0. -1.
          1   -1    0    0  501    0 -0.00000000000E+00 -0.00000000000E+00 -0.10252013795E+04  0.10252013795E+04  0.00000000000E+00 0. -1.
         25    2    1    2    0    0  0.32951725559E+02  0.44298482912E+03 -0.22370446332E+02  0.46200210327E+03  0.12499652600E+03 0.  0.
          2    1    1    2  501    0  0.18216227619E+03 -0.17570262193E+03 -0.69812845911E+03  0.74258861534E+03  0.00000000000E+00 0. -1.
          1    1    1    2  502    0 -0.21511400175E+03 -0.26728220719E+03  0.40702209801E+03  0.53233523300E+03  0.00000000000E+00 0. -1.
         22    1    3    3    0    0  0.27157741391E+02  0.41694899828E+03  0.12597835787E+02  0.41802238642E+03  0.00000000000E+00 0.  1.
         22    1    3    3    0    0  0.57939841686E+01  0.26035830843E+02 -0.34968282119E+02  0.43979716854E+02  0.00000000000E+00 0.  1.
</event>
<event>
 7    1  0.4402832E-005  0.3287896E+03  0.7818608E-02  0.1135653E+00
          2   -1    0    0  502    0  0.00000000000E+00  0.00000000000E+00  0.33080922471E+03  0.33080922471E+03  0.00000000000E+00 0. -1.
          1   -1    0    0  501    0 -0.00000000000E+00 -0.00000000000E+00 -0.73827646786E+03  0.73827646786E+03  0.00000000000E+00 0. -1.
         25    2    1    2    0    0  0.35612100362E+03 -0.26051035532E+02 -0.13487024035E+03  0.40164154593E+03  0.12500049605E+03 0.  0.
          2    1    1    2  501    0 -0.30630244660E+03 -0.10912998100E+03 -0.37073356536E+03  0.49312667544E+03  0.00000000000E+00 0. -1.
          1    1    1    2  502    0 -0.49818557019E+02  0.13518101653E+03  0.98136562569E+02  0.17431747120E+03  0.00000000000E+00 0. -1.
         22    1    3    3    0    0  0.35813786198E+03 -0.61091632603E+01 -0.12577170821E+03  0.37962952025E+03  0.00000000000E+00 0.  1.
         22    1    3    3    0    0 -0.20168583612E+01 -0.19941872271E+02 -0.90985321464E+01  0.22012025680E+02  0.00000000000E+00 0.  1.
</event>
<event>
 7    1  0.4402832E-005  0.4697134E+02  0.7818608E-02  0.1480409E+00
          2   -1    0    0  502    0  0.00000000000E+00  0.00000000000E+00  0.79259918137E+03  0.79259918137E+03  0.00000000000E+00 0. -1.
          1   -1    0    0  501    0 -0.00000000000E+00 -0.00000000000E+00 -0.16206073754E+03  0.16206073754E+03  0.00000000000E+00 0. -1.
         25    2    1    2    0    0  0.64453263314E+02 -0.97408408648E+01  0.13574539149E+03  0.19570582665E+03  0.12499940855E+03 0.  0.
          2    1    1    2  501    0 -0.24096147703E+02  0.33537469890E+02 -0.12795101419E+03  0.13445017015E+03  0.00000000000E+00 0. -1.
          1    1    1    2  502    0 -0.40357115612E+02 -0.23796629025E+02  0.62274406653E+03  0.62450392212E+03  0.00000000000E+00 0. -1.
         22    1    3    3    0    0  0.30916916602E+02 -0.20796368020E+02 -0.15527339218E+02  0.40366358744E+02  0.00000000000E+00 0. -1.
         22    1    3    3    0    0  0.33536346712E+02  0.11055527155E+02  0.15127273071E+03  0.15533946790E+03  0.00000000000E+00 0. -1.
</event>
<event>
 7    1  0.4402832E-005  0.2863551E+03  0.7818608E-02  0.1134703E+00
          2   -1    0    0  502    0  0.00000000000E+00  0.00000000000E+00  0.23007844023E+03  0.23007844023E+03  0.00000000000E+00 0. -1.
          1   -1    0    0  501    0 -0.00000000000E+00 -0.00000000000E+00 -0.81907167099E+03  0.81907167099E+03  0.00000000000E+00 0. -1.
         25    2    1    2    0    0  0.17147394632E+03 -0.26099820997E+03 -0.43384120763E+03  0.54896747663E+03  0.12499486824E+03 0.  0.
          2    1    1    2  501    0 -0.43113396441E+01  0.25329240824E+03  0.24689091675E+02  0.25452933617E+03  0.00000000000E+00 0. -1.
          1    1    1    2  502    0 -0.16716260667E+03  0.77058017323E+01 -0.17984111481E+03  0.24565329842E+03  0.00000000000E+00 0. -1.
         22    1    3    3    0    0  0.10969046202E+03 -0.14003148712E+03 -0.34047961299E+03  0.38414474057E+03  0.00000000000E+00 0. -1.
         22    1    3    3    0    0  0.61783484300E+02 -0.12096672285E+03 -0.93361594637E+02  0.16482273606E+03  0.00000000000E+00 0. -1.
</event>
<event>
 7    1  0.4402832E-005  0.3513112E+03  0.7818608E-02  0.1101859E+00
          2   -1    0    0  502    0  0.00000000000E+00  0.00000000000E+00  0.12581887241E+04  0.12581887241E+04  0.00000000000E+00 0. -1.
          1   -1    0    0  501    0 -0.00000000000E+00 -0.00000000000E+00 -0.51105867552E+03  0.51105867552E+03  0.00000000000E+00 0. -1.
         25    2    1    2    0    0  0.12837568170E+03 -0.10919264017E+03  0.59613153718E+03  0.63199198281E+03  0.12505082326E+03 0.  0.
          2    1    1    2  501    0 -0.30502301456E+03  0.21509164270E+03 -0.40116031252E+03  0.54793526124E+03  0.00000000000E+00 0. -1.
          1    1    1    2  502    0  0.17664733286E+03 -0.10589900253E+03  0.55215882394E+03  0.58932015560E+03  0.00000000000E+00 0. -1.
         22    1    3    3    0    0  0.74131809946E+02 -0.81804099493E+02  0.17790767043E+03  0.20937663465E+03  0.00000000000E+00 0.  1.
         22    1    3    3    0    0  0.54243871752E+02 -0.27388540681E+02  0.41822386675E+03  0.42261534816E+03  0.00000000000E+00 0.  1.
</event>
<event>
 7    1  0.4402832E-005  0.4189669E+02  0.7818608E-02  0.1538887E+00
          2   -1    0    0  502    0  0.00000000000E+00  0.00000000000E+00  0.10774671030E+04  0.10774671030E+04  0.00000000000E+00 0. -1.
          1   -1    0    0  501    0 -0.00000000000E+00 -0.00000000000E+00 -0.55117454510E+02  0.55117454510E+02  0.00000000000E+00 0. -1.
         25    2    1    2    0    0 -0.71006869624E+01  0.27636676108E+02  0.17380809713E+03  0.21598204321E+03  0.12499913094E+03 0.  0.
          2    1    1    2  501    0  0.30079081287E+02  0.80477536887E+01 -0.26284249069E+02  0.40747751099E+02  0.00000000000E+00 0. -1.
          1    1    1    2  502    0 -0.22978394325E+02 -0.35684429797E+02  0.87482580043E+03  0.87585476321E+03  0.00000000000E+00 0. -1.
         22    1    3    3    0    0  0.46313705946E+02 -0.25254195870E+02  0.64560425633E+02  0.83371351947E+02  0.00000000000E+00 0. -1.
         22    1    3    3    0    0 -0.53414392908E+02  0.52890871978E+02  0.10924767150E+03  0.13261069126E+03  0.00000000000E+00 0. -1.
</event>
<event>
 7    1  0.4402832E-005  0.2659502E+03  0.7818608E-02  0.1154266E+00
          2   -1    0    0  502    0  0.00000000000E+00  0.00000000000E+00  0.57526804758E+03  0.57526804758E+03  0.00000000000E+00 0. -1.
          1   -1    0    0  501    0 -0.00000000000E+00 -0.00000000000E+00 -0.12521653640E+04  0.12521653640E+04  0.00000000000E+00 0. -1.
         25    2    1    2    0    0 -0.35890478035E+03  0.58612488253E+02 -0.86677242414E+03  0.94824463790E+03  0.12500157162E+03 0.  0.
          2    1    1    2  501    0  0.12681266908E+03  0.65166441836E+02 -0.29495187766E+03  0.32760453037E+03  0.00000000000E+00 0. -1.
          1    1    1    2  502    0  0.23209211128E+03 -0.12377893009E+03  0.48482698541E+03  0.55158424328E+03  0.00000000000E+00 0. -1.
         22    1    3    3    0    0 -0.17959827470E+03  0.89542218129E+02 -0.40729193457E+03  0.45404853163E+03  0.00000000000E+00 0.  1.
         22    1    3    3    0    0 -0.17930650565E+03 -0.30929729876E+02 -0.45948048957E+03  0.49419610627E+03  0.00000000000E+00 0.  1.
</event>
<event>
 7    1  0.4402832E-005  0.4981123E+03  0.7818608E-02  0.1171413E+00
          2   -1    0    0  502    0  0.00000000000E+00  0.00000000000E+00  0.21173345943E+04  0.21173345943E+04  0.00000000000E+00 0. -1.
          1   -1    0    0  501    0 -0.00000000000E+00 -0.00000000000E+00 -0.90486547962E+03  0.90486547962E+03  0.00000000000E+00 0. -1.
         25    2    1    2    0    0  0.15077858541E+03 -0.47198231158E+03 -0.64512507746E+03  0.82299073130E+03  0.12500357583E+03 0.  0.
          2    1    1    2  501    0 -0.21291740789E+03  0.46614038475E+03  0.21550491264E+03  0.55593439204E+03  0.00000000000E+00 0. -1.
          1    1    1    2  502    0  0.62138822475E+02  0.58419268248E+01  0.16420892795E+04  0.16432749506E+04  0.00000000000E+00 0. -1.
         22    1    3    3    0    0  0.13561755389E+01 -0.63278139658E+02 -0.15576175435E+03  0.16812996845E+03  0.00000000000E+00 0.  1.
         22    1    3    3    0    0  0.14942240987E+03 -0.40870417192E+03 -0.48936332311E+03  0.65486076285E+03  0.00000000000E+00 0.  1.
</event>
<event>
 7    1  0.4402832E-005  0.2380308E+03  0.7818608E-02  0.1187368E+00
          2   -1    0    0  502    0  0.00000000000E+00  0.00000000000E+00  0.64517793992E+03  0.64517793992E+03  0.00000000000E+00 0. -1.
          1   -1    0    0  501    0 -0.00000000000E+00 -0.00000000000E+00 -0.45833248219E+03  0.45833248219E+03  0.00000000000E+00 0. -1.
         25    2    1    2    0    0  0.23186379659E+03 -0.22762223020E+03  0.67551732676E+02  0.35462881416E+03  0.12500263755E+03 0.  0.
          2    1    1    2  501    0 -0.56191636793E+02  0.93568392138E+02 -0.27556603572E+03  0.29639363032E+03  0.00000000000E+00 0. -1.
          1    1    1    2  502    0 -0.17567215980E+03  0.13405383806E+03  0.39485976077E+03  0.45248797763E+03  0.00000000000E+00 0. -1.
         22    1    3    3    0    0  0.13334925830E+03 -0.17118883087E+03 -0.98513512844E+01  0.21722037111E+03  0.00000000000E+00 0. -1.
         22    1    3    3    0    0  0.98514538289E+02 -0.56433399331E+02  0.77403083960E+02  0.13740844305E+03  0.00000000000E+00 0. -1.
</event>
<event>
 7    1  0.4402832E-005  0.3811958E+03  0.7818608E-02  0.1134471E+00
          2   -1    0    0  502    0  0.00000000000E+00  0.00000000000E+00  0.17865551942E+04  0.17865551942E+04  0.00000000000E+00 0. -1.
          1   -1    0    0  501    0 -0.00000000000E+00 -0.00000000000E+00 -0.37189069907E+03  0.37189069907E+03  0.00000000000E+00 0. -1.
         25    2    1    2    0    0  0.38093005847E+03  0.10503480545E+03  0.71028598454E+03  0.82235614768E+03  0.12499373585E+03 0.  0.
          2    1    1    2  501    0 -0.31656220778E+03 -0.21342460170E+03 -0.19445728511E+03  0.42845691468E+03  0.00000000000E+00 0. -1.
          1    1    1    2  502    0 -0.64367850690E+02  0.10838979625E+03  0.89883579568E+03  0.90763283090E+03  0.00000000000E+00 0. -1.
         22    1    3    3    0    0  0.20083620443E+03  0.63309515499E+02  0.49900360298E+03  0.54161598162E+03  0.00000000000E+00 0. -1.
         22    1    3    3    0    0  0.18009385403E+03  0.41725289947E+02  0.21128238156E+03  0.28074016606E+03  0.00000000000E+00 0. -1.
</event>
<event>
 7    1  0.4402832E-005  0.5634365E+03  0.7818608E-02  0.1130349E+00
          2   -1    0    0  502    0  0.00000000000E+00  0.00000000000E+00  0.13772424167E+04  0.13772424167E+04  0.00000000000E+00 0. -1.
          1   -1    0    0  501    0 -0.00000000000E+00 -0.00000000000E+00 -0.76442170608E+03  0.76442170608E+03  0.00000000000E+00 0. -1.
         25    2    1    2    0    0 -0.16521824831E+03  0.52004738097E+03  0.21686262167E+03  0.60033461036E+03  0.12500359871E+03 0.  0.
          2    1    1    2  501    0  0.76758697578E+02  0.46407183575E+02 -0.48336276502E+03  0.49161477495E+03  0.00000000000E+00 0. -1.
          1    1    1    2  502    0  0.88459550737E+02 -0.56645456455E+03  0.87932085401E+03  0.10497147375E+04  0.00000000000E+00 0. -1.
         22    1    3    3    0    0 -0.19549058350E+02  0.13621430410E+03  0.34951321611E+01  0.13765434345E+03  0.00000000000E+00 0. -1.
         22    1    3    3    0    0 -0.14566918997E+03  0.38383307688E+03  0.21336748951E+03  0.46268026691E+03  0.00000000000E+00 0. -1.
</event>
<event>
 7    1  0.4402832E-005  0.3635863E+03  0.7818608E-02  0.1228794E+00
          2   -1    0    0  502    0  0.00000000000E+00  0.00000000000E+00  0.10171888632E+04  0.10171888632E+04  0.00000000000E+00 0. -1.
          1   -1    0    0  501    0 -0.00000000000E+00 -0.00000000000E+00 -0.34432086824E+03  0.34432086824E+03  0.00000000000E+00 0. -1.
         25    2    1    2    0    0 -0.20463461275E+03 -0.31605931966E+03 -0.45502757456E+02  0.39932407194E+03  0.12498157951E+03 0.  0.
          2    1    1    2  501    0  0.15960679901E+03  0.30745931358E+03  0.12688264974E+03  0.36892379511E+03  0.00000000000E+00 0. -1.
          1    1    1    2  502    0  0.45027813735E+02  0.86000060847E+01  0.59148810273E+03  0.59326186443E+03  0.00000000000E+00 0. -1.
         22    1    3    3    0    0 -0.13701622195E+03 -0.26101847469E+03  0.11732310795E+02  0.29502836528E+03  0.00000000000E+00 0.  1.
         22    1    3    3    0    0 -0.67618390799E+02 -0.55040844974E+02 -0.57235068251E+02  0.10429570666E+03  0.00000000000E+00 0.  1.
</event>
<event>
 7    1  0.4402832E-005  0.2625920E+03  0.7818608E-02  0.1214987E+00
          2   -1    0    0  502    0  0.00000000000E+00  0.00000000000E+00  0.11756911578E+04  0.11756911578E+04  0.00000000000E+00 0. -1.
          1   -1    0    0  501    0 -0.00000000000E+00 -0.00000000000E+00 -0.26197538401E+03  0.26197538401E+03  0.00000000000E+00 0. -1.
         25    2    1    2    0    0  0.85770941429E+02 -0.29269026879E+03  0.58146183337E+02  0.33470951556E+03  0.12500093332E+03 0.  0.
          2    1    1    2  501    0 -0.40978663737E+02  0.23461821787E+03 -0.60254725831E+01  0.23824622842E+03  0.00000000000E+00 0. -1.
          1    1    1    2  502    0 -0.44792277692E+02  0.58072050921E+02  0.86159506302E+03  0.86471079781E+03  0.00000000000E+00 0. -1.
         22    1    3    3    0    0  0.10851836982E+03 -0.15166551165E+03  0.39782463650E+02  0.19068641385E+03  0.00000000000E+00 0.  1.
         22    1    3    3    0    0 -0.22747428394E+02 -0.14102475714E+03  0.18363719687E+02  0.14402310171E+03  0.00000000000E+00 0.  1.
</event>
<event>
 7    1  0.4402832E-005  0.2121407E+03  0.7818608E-02  0.1155089E+00
          2   -1    0    0  502    0  0.00000000000E+00  0.00000000000E+00  0.59289770303E+03  0.59289770303E+03  0.00000000000E+00 0. -1.
          1   -1    0    0  501    0 -0.00000000000E+00 -0.00000000000E+00 -0.37648494701E+03  0.37648494701E+03  0.00000000000E+00 0. -1.
         25    2    1    2    0    0  0.31192538330E+03  0.15976484412E+03  0.11061859984E+03  0.38817998649E+03  0.12499990848E+03 0.  0.
          2    1    1    2  501    0 -0.13708067632E+03 -0.13208728542E+03 -0.16884638083E+03  0.25445483511E+03  0.00000000000E+00 0. -1.
          1    1    1    2  502    0 -0.17484470698E+03 -0.27677558697E+02  0.27464053701E+03  0.32674782843E+03  0.00000000000E+00 0. -1.
         22    1    3    3    0    0 -0.94903983188E+01  0.68655414806E+01  0.16106441912E+02  0.19915340598E+02  0.00000000000E+00 0.  1.
         22    1    3    3    0    0  0.32141578162E+03  0.15289930264E+03  0.94512157924E+02  0.36826464590E+03  0.00000000000E+00 0.  1.
</event>
<event>
 7    1  0.4402832E-005  0.2893744E+03  0.7818608E-02  0.1188971E+00
          2   -1    0    0  502    0  0.00000000000E+00  0.00000000000E+00  0.48195161445E+03  0.48195161445E+03  0.00000000000E+00 0. -1.
          1   -1    0    0  501    0 -0.00000000000E+00 -0.00000000000E+00 -0.76873008366E+03  0.76873008366E+03  0.00000000000E+00 0. -1.
         25    2    1    2    0    0  0.15732146674E+02 -0.33712323552E+03  0.19193780092E+03  0.40787831734E+03  0.12500010388E+03 0.  0.
          2    1    1    2  501    0  0.80263370678E+01  0.87832629001E+02 -0.56960990871E+03  0.57639781480E+03  0.00000000000E+00 0. -1.
          1    1    1    2  502    0 -0.23758483742E+02  0.24929060652E+03  0.90893638574E+02  0.26640556597E+03  0.00000000000E+00 0. -1.
         22    1    3    3    0    0  0.57259302709E+02 -0.77532289179E+02  0.62250078755E+02  0.11473864178E+03  0.00000000000E+00 0. -1.
         22    1    3    3    0    0 -0.41527156035E+02 -0.25959094634E+03  0.12968772217E+03  0.29313967556E+03  0.00000000000E+00 0. -1.
</event>
<event>
 7    1  0.4402832E-005  0.3332243E+03  0.7818608E-02  0.1255793E+00
          2   -1    0    0  502    0  0.00000000000E+00  0.00000000000E+00  0.11851210279E+03  0.11851210279E+03  0.00000000000E+00 0. -1.
          1   -1    0    0  501    0 -0.00000000000E+00 -0.00000000000E+00 -0.25590108325E+04  0.25590108325E+04  0.00000000000E+00 0. -1.
         25    2    1    2    0    0 -0.29109015316E+03 -0.22254355945E+03 -0.34343323400E+03  0.51752277939E+03  0.12499731140E+03 0.  0.
          2    1    1    2  501    0  0.26093552535E+03  0.19931737232E+03 -0.20963725076E+04  0.21219313028E+04  0.00000000000E+00 0. -1.
          1    1    1    2  502    0  0.30154627803E+02  0.23226187121E+02 -0.69298817717E+00  0.38068853131E+02  0.00000000000E+00 0. -1.
         22    1    3    3    0    0 -0.24143751119E+03 -0.23156234169E+03 -0.27851830953E+03  0.43529948156E+03  0.00000000000E+00 0. -1.
         22    1    3    3    0    0 -0.49652641963E+02  0.90187822493E+01 -0.64914924468E+02  0.82223297829E+02  0.00000000000E+00 0. -1.
</event>
<event>
 7    1  0.4402832E-005  0.3115866E+03  0.7818608E-02  0.1104156E+00
          2   -1    0    0  502    0  0.00000000000E+00  0.00000000000E+00  0.11462893300E+04  0.11462893300E+04  0.00000000000E+00 0. -1.
          1   -1    0    0  501    0 -0.00000000000E+00 -0.00000000000E+00 -0.87890616200E+03  0.87890616200E+03  0.00000000000E+00 0. -1.
         25    2    1    2    0    0 -0.35423108416E+03  0.77125624846E+02 -0.15885321239E+03  0.41507519488E+03  0.12500020529E+03 0.  0.
          2    1    1    2  501    0  0.72199655536E+02 -0.21356045888E+03 -0.54490299823E+03  0.58969495278E+03  0.00000000000E+00 0. -1.
          1    1    1    2  502    0  0.28203142863E+03  0.13643483403E+03  0.97113937857E+03  0.10204253443E+04  0.00000000000E+00 0. -1.
         22    1    3    3    0    0 -0.13226813191E+03  0.41102062039E+02  0.21298969079E+01  0.13852355282E+03  0.00000000000E+00 0. -1.
         22    1    3    3    0    0 -0.22196295225E+03  0.36023562807E+02 -0.16098310930E+03  0.27655164206E+03  0.00000000000E+00 0. -1.
</event>
<event>
 7    1  0.4402832E-005  0.5816415E+02  0.7818608E-02  0.1484341E+00
          2   -1    0    0  502    0  0.00000000000E+00  0.00000000000E+00  0.59560635502E+03  0.59560635502E+03  0.00000000000E+00 0. -1.
          1   -1    0    0  501    0 -0.00000000000E+00 -0.00000000000E+00 -0.16229619365E+04  0.16229619365E+04  0.00000000000E+00 0. -1.
         25    2    1    2    0    0 -0.74877510628E+01 -0.25237928416E+02 -0.35072113721E+02  0.13246199575E+03  0.12499243061E+03 0.  0.
          2    1    1    2  501    0  0.22125369852E+02  0.54186490025E+02 -0.15381567955E+04  0.15392699683E+04  0.00000000000E+00 0. -1.
          1    1    1    2  502    0 -0.14637618790E+02 -0.28948561609E+02  0.54587332776E+03  0.54683632749E+03  0.00000000000E+00 0. -1.
         22    1    3    3    0    0 -0.59731140435E+02 -0.36886550331E+00  0.80878412572E+01  0.60277345459E+02  0.00000000000E+00 0.  1.
         22    1    3    3    0    0  0.52243389372E+02 -0.24869062913E+02 -0.43159954978E+02  0.72184650286E+02  0.00000000000E+00 0.  1.
</event>
<event>
 7    1  0.4402832E-005  0.5378007E+03  0.7818608E-02  0.1116847E+00
          2   -1    0    0  502    0  0.00000000000E+00  0.00000000000E+00  0.27189651041E+04  0.27189651041E+04  0.00000000000E+00 0. -1.
          1   -1    0    0  501    0 -0.00000000000E+00 -0.00000000000E+00 -0.57267474782E+03  0.57267474782E+03  0.00000000000E+00 0. -1.
         25    2    1    2    0    0 -0.50587303047E+03  0.78338788335E+02  0.41275163628E+03  0.66935255544E+03  0.12499776603E+03 0.  0.
          2    1    1    2  501    0  0.54781852563E+03  0.24576440066E+02 -0.27307368105E+03  0.61259968472E+03  0.00000000000E+00 0. -1.
          1    1    1    2  502    0 -0.41945495165E+02 -0.10291522840E+03  0.20066124011E+04  0.20096876118E+04  0.00000000000E+00 0. -1.
         22    1    3    3    0    0 -0.19336830155E+03  0.88931302895E+02  0.19149088957E+03  0.28630200395E+03  0.00000000000E+00 0.  1.
         22    1    3    3    0    0 -0.31250472892E+03 -0.10592514560E+02  0.22126074671E+03  0.38305055149E+03  0.00000000000E+00 0.  1.
</event>
<event>
 7    1  0.4402832E-005  0.1198885E+03  0.7818608E-02  0.1249899E+00
          2   -1    0    0  502    0  0.00000000000E+00  0.00000000000E+00  0.29710309068E+04  0.29710309068E+04  0.00000000000E+00 0. -1.
          1   -1    0    0  501    0 -0.00000000000E+00 -0.00000000000E+00 -0.14525035434E+04  0.14525035434E+04  0.00000000000E+00 0. -1.
         25    2    1    2    0    0  0.26498839504E+02 -0.15821085302E+03  0.51695371881E+03  0.55551788023E+03  0.12500442136E+03 0.  0.
          2    1    1    2  501    0 -0.96788921970E+02  0.70785764683E+02 -0.14294176674E+04  0.14344384224E+04  0.00000000000E+00 0. -1.
          1    1    1    2  502    0  0.70290082466E+02  0.87425088335E+02  0.24309913119E+04  0.24335781476E+04  0.00000000000E+00 0. -1.
         22    1    3    3    0    0 -0.60167242257E+00 -0.56641256340E+02  0.37294543095E+03  0.37722259793E+03  0.00000000000E+00 0.  1.
         22    1    3    3    0    0  0.27100511927E+02 -0.10156959668E+03  0.14400828786E+03  0.17829528230E+03  0.00000000000E+00 0.  1.
</event>
<event>
 7    1  0.4402832E-005  0.2224168E+03  0.7818608E-02  0.1265831E+00
          2   -1    0    0  502    0  0.00000000000E+00  0.00000000000E+00  0.15672277914E+03  0.15672277914E+03  0.00000000000E+00 0. -1.
          1   -1    0    0  501    0 -0.00000000000E+00 -0.00000000000E+00 -0.53956300881E+03  0.53956300881E+03  0.00000000000E+00 0. -1.
         25    2    1    2    0    0 -0.17605816314E+03 -0.17361258238E+03 -0.80375939311E+02  0.28848332043E+03  0.12499811590E+03 0.  0.
          2    1    1    2  501    0  0.17656463898E+03  0.12194033450E+03 -0.27642983549E+03  0.34993995323E+03  0.00000000000E+00 0. -1.
          1    1    1    2  502    0 -0.50647584662E+00  0.51672247887E+02 -0.26034454864E+02  0.57862514287E+02  0.00000000000E+00 0. -1.
         22    1    3    3    0    0 -0.64080326584E+02 -0.10327164995E+03 -0.96603736358E+02  0.15525335364E+03  0.00000000000E+00 0. -1.
         22    1    3    3    0    0 -0.11197783655E+03 -0.70340932434E+02  0.16227797046E+02  0.13322996679E+03  0.00000000000E+00 0. -1.
</event>
<event>
 7    1  0.4402832E-005  0.4279368E+03  0.7818608E-02  0.1071019E+00
          2   -1    0    0  502    0  0.00000000000E+00  0.00000000000E+00  0.71293624293E+03  0.71293624293E+03  0.00000000000E+00 0. -1.
          1   -1    0    0  501    0 -0.00000000000E+00 -0.00000000000E+00 -0.21266612441E+04  0.21266612441E+04  0.00000000000E+00 0. -1.
         25    2    1    2    0    0  0.11602348537E+03  0.28998521602E+03 -0.16099040883E+04  0.16446790932E+04  0.12500108524E+03 0.  0.
          2    1    1    2  501    0 -0.21703191147E+03  0.13366188490E+03 -0.38923656045E+03  0.46526707391E+03  0.00000000000E+00 0. -1.
          1    1    1    2  502    0  0.10100842610E+03 -0.42364710092E+03  0.58541564759E+03  0.72965131995E+03  0.00000000000E+00 0. -1.
         22    1    3    3    0    0  0.56356068926E+02  0.13035786032E+03 -0.43799015763E+03  0.46043952527E+03  0.00000000000E+00 0.  1.
         22    1    3    3    0    0  0.59667416448E+02  0.15962735571E+03 -0.11719139307E+04  0.11842395679E+04  0.00000000000E+00 0.  1.
</event>
<event>
 7    1  0.4402832E-005  0.1615207E+03  0.7818608E-02  0.1188224E+00
          2   -1    0    0  502    0  0.00000000000E+00  0.00000000000E+00  0.18566199368E+04  0.18566199368E+04  0.00000000000E+00 0. -1.
          1   -1    0    0  501    0 -0.00000000000E+00 -0.00000000000E+00 -0.17157562371E+03  0.17157562371E+03  0.00000000000E+00 0. -1.
         25    2    1    2    0    0  0.47911940025E+02  0.82712518310E+02  0.46210773631E+03  0.48816632131E+03  0.12500353043E+03 0.  0.
          2    1    1    2  501    0 -0.16991867886E+03  0.23133115651E+02 -0.10580937076E+03  0.20150216228E+03  0.00000000000E+00 0. -1.
          1    1    1    2  502    0  0.12200673883E+03 -0.10584563396E+03  0.13287459476E+04  0.13385270770E+04  0.00000000000E+00 0. -1.
         22    1    3    3    0    0  0.36072436442E+02  0.27606040385E+02  0.40635751296E+03  0.40888842301E+03  0.00000000000E+00 0.  1.
         22    1    3    3    0    0  0.11839503583E+02  0.55106477926E+02  0.55750223353E+02  0.79277898297E+02  0.00000000000E+00 0.  1.
</event>
<event>
 7    1  0.4402832E-005  0.5991377E+03  0.7818608E-02  0.1242465E+00
          2   -1    0    0  502    0  0.00000000000E+00  0.00000000000E+00  0.34615450714E+03  0.34615450714E+03  0.00000000000E+00 0. -1.
          1   -1    0    0  501    0 -0.00000000000E+00 -0.00000000000E+00 -0.18620839644E+04  0.18620839644E+04  0.00000000000E+00 0. -1.
         25    2    1    2    0    0 -0.20279138434E+03  0.56741365073E+03 -0.11432663915E+04  0.12983683288E+04  0.12497871362E+03 0.  0.
          2    1    1    2  501    0  0.23929953957E+02  0.35282859222E+01 -0.30702654960E+03  0.30797791099E+03  0.00000000000E+00 0. -1.
          1    1    1    2  502    0  0.17886143038E+03 -0.57094193666E+03 -0.65636516157E+02  0.60189223169E+03  0.00000000000E+00 0. -1.
         22    1    3    3    0    0 -0.81024134299E+02  0.90512228837E+02 -0.18966251754E+03  0.22523153524E+03  0.00000000000E+00 0.  1.
         22    1    3    3    0    0 -0.12176725004E+03  0.47690142190E+03 -0.95360387394E+03  0.10731367936E+04  0.00000000000E+00 0.  1.
</event>
<event>
 7    1  0.4402832E-005  0.7760702E+02  0.7818608E-02  0.1423838E+00
          2   -1    0    0  502    0  0.00000000000E+00  0.00000000000E+00  0.77646658986E+01  0.77646658986E+01  0.00000000000E+00 0. -1.
          1   -1    0    0  501    0 -0.00000000000E+00 -0.00000000000E+00 -0.29023259166E+04  0.29023259166E+04  0.00000000000E+00 0. -1.
         25    2    1    2    0    0 -0.21299487738E+02  0.10746497853E+03 -0.11733610134E+04  0.11850748685E+04  0.12499594576E+03 0.  0.
          2    1    1    2  501    0  0.84948969441E+01 -0.71818285950E+02 -0.13365488332E+04  0.13385039458E+04  0.00000000000E+00 0. -1.
          1    1    1    2  502    0  0.12804590794E+02 -0.35646692575E+02 -0.38465140412E+03  0.38651176816E+03  0.00000000000E+00 0. -1.
         22    1    3    3    0    0 -0.45456830438E+02  0.36296321946E+02 -0.89054922974E+03  0.89244701636E+03  0.00000000000E+00 0. -1.
         22    1    3    3    0    0  0.24157342700E+02  0.71168656579E+02 -0.28281178365E+03  0.29262785216E+03  0.00000000000E+00 0. -1.
</event>
<event>
 7    1  0.4402832E-005  0.1201461E+03  0.7818608E-02  0.1353508E+00
          2   -1    0    0  502    0  0.00000000000E+00  0.00000000000E+00  0.17154381210E+04  0.17154381210E+04  0.00000000000E+00 0. -1.
          1   -1    0    0  501    0 -0.00000000000E+00 -0.00000000000E+00 -0.22362810533E+02  0.22362810533E+02  0.00000000000E+00 0. -1.
         25    2    1    2    0    0  0.37180722169E+02  0.13915234527E+03  0.10986805996E+04  0.11151075025E+04  0.12497960229E+03 0.  0.
          2    1    1    2  501    0 -0.12273924250E+01 -0.11535518330E+03  0.24675298708E+03  0.27238825496E+03  0.00000000000E+00 0. -1.
          1    1    1    2  502    0 -0.35953329744E+02 -0.23797161973E+02  0.34764172375E+03  0.35030517400E+03  0.00000000000E+00 0. -1.
         22    1    3    3    0    0 -0.43964200184E+01  0.14700732295E+03  0.79448550717E+03  0.80798372670E+03  0.00000000000E+00 0. -1.
         22    1    3    3    0    0  0.41577142187E+02 -0.78549776819E+01  0.30419509244E+03  0.30712377585E+03  0.00000000000E+00 0. -1.
</event>
<event>
 7    1  0.4402832E-005  0.8415320E+03  0.7818608E-02  0.1111193E+00
          2   -1    0    0  502    0  0.00000000000E+00  0.00000000000E+00  0.18055508019E+04  0.18055508019E+04  0.00000000000E+00 0. -1.
          1   -1    0    0  501    0 -0.00000000000E+00 -0.00000000000E+00 -0.13153317586E+04  0.13153317586E+04  0.00000000000E+00 0. -1.
         25    2    1    2    0    0  0.15242048682E+03 -0.77595616707E+03 -0.33525324263E+03  0.86796332355E+03  0.12500246529E+03 0.  0.
          2    1    1    2  501    0 -0.35273239561E+02 -0.67640388872E+02 -0.59327625511E+03  0.59816062935E+03  0.00000000000E+00 0. -1.
          1    1    1    2  502    0 -0.11714724726E+03  0.84359655594E+03  0.14187485410E+04  0.16547586076E+04  0.00000000000E+00 0. -1.
         22    1    3    3    0    0  0.28898455482E+02 -0.20938378874E+03 -0.15009193026E+03  0.25923788158E+03  0.00000000000E+00 0. -1.
         22    1    3    3    0    0  0.12352203134E+03 -0.56657237833E+03 -0.18516131237E+03  0.60872544198E+03  0.00000000000E+00 0. -1.
</event>
<event>
 7    1  0.4402832E-005  0.4495257E+03  0.7818608E-02  0.1063427E+00
          2   -1    0    0  502    0  0.00000000000E+00  0.00000000000E+00  0.11160735092E+04  0.11160735092E+04  0.00000000000E+00 0. -1.
          1   -1    0    0  501    0 -0.00000000000E+00 -0.00000000000E+00 -0.10542902387E+04  0.10542902387E+04  0.00000000000E+00 0. -1.
         25    2    1    2    0    0  0.45231230742E+03 -0.35406180089E+03  0.70577123612E+03  0.91852270428E+03  0.12499895298E+03 0.  0.
          2    1    1    2  501    0 -0.43664318925E+03  0.85069689058E+02 -0.81796480945E+03  0.93110716688E+03  0.00000000000E+00 0. -1.
          1    1    1    2  502    0 -0.15669118168E+02  0.26899211183E+03  0.17397684382E+03  0.32073387672E+03  0.00000000000E+00 0. -1.
         22    1    3    3    0    0  0.30462069067E+03 -0.18066733194E+03  0.36452085694E+03  0.50824197501E+03  0.00000000000E+00 0. -1.
         22    1    3    3    0    0  0.14769161675E+03 -0.17339446895E+03  0.34125037918E+03  0.41028072927E+03  0.00000000000E+00 0. -1.
</event>
<event>
 7    1  0.4402832E-005  0.5125462E+03  0.7818608E-02  0.1145315E+00
          2   -1    0    0  502    0  0.00000000000E+00  0.00000000000E+00  0.17199473529E+04  0.17199473529E+04  0.00000000000E+00 0. -1.
          1   -1    0    0  501    0 -0.00000000000E+00 -0.00000000000E+00 -0.32325040293E+04  0.32325040293E+04  0.00000000000E+00 0. -1.
         25    2    1    2    0    0 -0.49546129841E+03  0.22974554662E+03 -0.68446350664E+03  0.88452266986E+03  0.12500058869E+03 0.  0.
          2    1    1    2  501    0  0.48248080585E+03 -0.14851640167E+03 -0.24209125960E+04  0.24729865844E+04  0.00000000000E+00 0. -1.
          1    1    1    2  502    0  0.12980492556E+02 -0.81229144951E+02  0.15928194262E+04  0.15949421280E+04  0.00000000000E+00 0. -1.
         22    1    3    3    0    0 -0.15853508165E+03  0.16397394079E+02 -0.16207536064E+03  0.22731183245E+03  0.00000000000E+00 0.  1.
         22    1    3    3    0    0 -0.33692621676E+03  0.21334815254E+03 -0.52238814600E+03  0.65721083741E+03  0.00000000000E+00 0.  1.
</event>
<event>
 7    1  0.4402832E-005  0.4614030E+03  0.7818608E-02  0.1261186E+00
          2   -1    0    0  502    0  0.00000000000E+00  0.00000000000E+00  0.17867523995E+04  0.17867523995E+04  0.00000000000E+00 0. -1.
          1   -1    0    0  501    0 -0.00000000000E+00 -0.00000000000E+00 -0.14725399546E+04  0.14725399546E+04  0.00000000000E+00 0. -1.
         25    2    1    2    0    0  0.42634079476E+03  0.22751370623E+03  0.14776712635E+04  0.15596986064E+04  0.12497367730E+03 0.  0.
          2    1    1    2  501    0 -0.40029011545E+03 -0.22841285702E+03 -0.13936776571E+04  0.14679039552E+04  0.00000000000E+00 0. -1.
          1    1    1    2  502    0 -0.26050679304E+02  0.89915078819E+00  0.23021883841E+03  0.23168979244E+03  0.00000000000E+00 0. -1.
         22    1    3    3    0    0  0.99080619929E+02  0.30034735567E+02  0.18854460260E+03  0.21510025977E+03  0.00000000000E+00 0.  1.
         22    1    3    3    0    0  0.32726017483E+03  0.19747897067E+03  0.12891266610E+04  0.13445983467E+04  0.00000000000E+00 0.  1.
</event>
<event>
 7    1  0.4402832E-005  0.3865347E+03  0.7818608E-02  0.1133994E+00
          2   -1    0    0  502    0  0.00000000000E+00  0.00000000000E+00  0.37173170548E+04  0.37173170548E+04  0.00000000000E+00 0. -1.
          1   -1    0    0  501    0 -0.00000000000E+00 -0.00000000000E+00 -0.39737232020E+03  0.39737232020E+03  0.00000000000E+00 0. -1.
         25    2    1    2    0    0 -0.46214012905E+03  0.17519946519E+03  0.13996761248E+04  0.14896261461E+04  0.12499779680E+03 0.  0.
          2    1    1    2  501    0  0.36735149711E+03 -0.93641123995E+02 -0.24811638695E+03  0.45307562725E+03  0.00000000000E+00 0. -1.
          1    1    1    2  502    0  0.94788631941E+02 -0.81558341190E+02  0.21683849968E+04  0.21719876017E+04  0.00000000000E+00 0. -1.
         22    1    3    3    0    0 -0.43848714483E+03  0.19252568421E+03  0.12874074732E+04  0.13735920491E+04  0.00000000000E+00 0.  1.
         22    1    3    3    0    0 -0.23652984222E+02 -0.17326219026E+02  0.11226865157E+03  0.11603409694E+03  0.00000000000E+00 0.  1.
</event>
<event>
 7    1  0.4402832E-005  0.3736026E+03  0.7818608E-02  0.1127111E+00
          2   -1    0    0  502    0  0.00000000000E+00  0.00000000000E+00  0.72438146765E+03  0.72438146765E+03  0.00000000000E+00 0. -1.
          1   -1    0    0  501    0 -0.00000000000E+00 -0.00000000000E+00 -0.55692750068E+03  0.55692750068E+03  0.00000000000E+00 0. -1.
         25    2    1    2    0    0  0.14452643841E+02 -0.43680545958E+03  0.16920680888E+03  0.48503856457E+03  0.12499430594E+03 0.  0.
          2    1    1    2  501    0 -0.11779075110E+03  0.34121203714E+03 -0.29812458257E+03  0.46816512265E+03  0.00000000000E+00 0. -1.
          1    1    1    2  502    0  0.10333810725E+03  0.95593422441E+02  0.29637174067E+03  0.32810528111E+03  0.00000000000E+00 0. -1.
         22    1    3    3    0    0  0.57782619487E+01 -0.90745134114E+02 -0.16174804089E+02  0.92356331477E+02  0.00000000000E+00 0.  1.
         22    1    3    3    0    0  0.86743818923E+01 -0.34606032547E+03  0.18538161297E+03  0.39268223310E+03  0.00000000000E+00 0.  1.
</event>
<event>
 7    1  0.4402832E-005  0.3139618E+03  0.7818608E-02  0.1200814E+00
          2   -1    0    0  502    0  0.00000000000E+00  0.00000000000E+00  0.21780777394E+04  0.21780777394E+04  0.00000000000E+00 0. -1.
          1   -1    0    0  501    0 -0.00000000000E+00 -0.00000000000E+00 -0.19500652831E+03  0.19500652831E+03  0.00000000000E+00 0. -1.
         25    2    1    2    0    0 -0.30393165716E+03 -0.10817488517E+03  0.79975924791E+03  0.87138734604E+03  0.12499917682E+03 0.  0.
          2    1    1    2  501    0  0.26485227673E+03  0.16793105394E+03 -0.26224220664E+01  0.31361512155E+03  0.00000000000E+00 0. -1.
          1    1    1    2  502    0  0.39079380425E+02 -0.59756168766E+02  0.11859343852E+04  0.11880818001E+04  0.00000000000E+00 0. -1.
         22    1    3    3    0    0 -0.30741645337E+03 -0.84994963377E+02  0.70533668874E+03  0.77409874311E+03  0.00000000000E+00 0. -1.
         22    1    3    3    0    0  0.34847962079E+01 -0.23179921796E+02  0.94422559172E+02  0.97288602928E+02  0.00000000000E+00 0. -1.
</event>
<event>
 7    1  0.4402832E-005  0.1301337E+03  0.7818608E-02  0.1314736E+00
          2   -1    0    0  502    0  0.00000000000E+00  0.00000000000E+00  0.15290288499E+03  0.15290288499E+03  0.00000000000E+00 0. -1.
          1   -1    0    0  501    0 -0.00000000000E+00 -0.00000000000E+00 -0.28918930895E+03  0.28918930895E+03  0.00000000000E+00 0. -1.
         25    2    1    2    0    0  0.86975403617E+02  0.58046234931E+01  0.29709280239E+02  0.15525515901E+03  0.12499243408E+03 0.  0.
          2    1    1    2  501    0 -0.13939255228E+03 -0.25138560201E+02 -0.18018737330E+03  0.22919363067E+03  0.00000000000E+00 0. -1.
          1    1    1    2  502    0  0.52417148667E+02  0.19333936708E+02  0.14191669110E+02  0.57643404264E+02  0.00000000000E+00 0. -1.
         22    1    3    3    0    0  0.85334064141E+02  0.26683380600E+02  0.67514704880E+02  0.11203633642E+03  0.00000000000E+00 0.  1.
         22    1    3    3    0    0  0.16413394759E+01 -0.20878757107E+02 -0.37805424641E+02  0.43218822588E+02  0.00000000000E+00 0.  1.
</event>
<event>
 7    1  0.4402832E-005  0.1678389E+03  0.7818608E-02  0.1222910E+00
          2   -1    0    0  502    0  0.00000000000E+00  0.00000000000E+00  0.10347387319E+04  0.10347387319E+04  0.00000000000E+00 0. -1.
          1   -1    0    0  501    0 -0.00000000000E+00 -0.00000000000E+00 -0.15539465092E+03  0.15539465092E+03  0.00000000000E+00 0. -1.
         25    2    1    2    0    0  0.24502537990E+03  0.47869160897E+02  0.58888657066E+03  0.65172192554E+03  0.12500072708E+03 0.  0.
          2    1    1    2  501    0 -0.14292657836E+03 -0.74716464372E+02 -0.60245952802E+02  0.17216309616E+03  0.00000000000E+00 0. -1.
          1    1    1    2  502    0 -0.10209880154E+03  0.26847303475E+02  0.35070346314E+03  0.36624836114E+03  0.00000000000E+00 0. -1.
         22    1    3    3    0    0  0.11949726614E+03  0.76014243428E+01  0.14173770971E+03  0.18554502585E+03  0.00000000000E+00 0.  1.
         22    1    3    3    0    0  0.12552811377E+03  0.40267736554E+02  0.44714886095E+03  0.46617689969E+03  0.00000000000E+00 0.  1.
</event>
<event>
 7    1  0.4402832E-005  0.1408682E+03  0.7818608E-02  0.1274314E+00
          2   -1    0    0  502    0  0.00000000000E+00  0.00000000000E+00  0.12771337574E+04  0.12771337574E+04  0.00000000000E+00 0. -1.
          1   -1    0    0  501    0 -0.00000000000E+00 -0.00000000000E+00 -0.53295043143E+02  0.53295043143E+02  0.00000000000E+00 0. -1.
         25    2    1    2    0    0 -0.19484820965E+02  0.13485177067E+03  0.17869855818E+03  0.25714289376E+03  0.12499853925E+03 0.  0.
          2    1    1    2  501    0  0.94568133066E+02 -0.13834380496E+03  0.66531028393E+03  0.68609031043E+03  0.00000000000E+00 0. -1.
          1    1    1    2  502    0 -0.75083312101E+02  0.34920342892E+01  0.37982987218E+03  0.38719559638E+03  0.00000000000E+00 0. -1.
         22    1    3    3    0    0 -0.59732638254E+02  0.12895801626E+03  0.15398882122E+03  0.20954883700E+03  0.00000000000E+00 0.  1.
         22    1    3    3    0    0  0.40247817289E+02  0.58937544150E+01  0.24709736958E+02  0.47594056753E+02  0.00000000000E+00 0.  1.
</event>
<event>
 7    1  0.4402832E-005  0.3598363E+03  0.7818608E-02  0.1178531E+00
          2   -1    0    0  502    0  0.00000000000E+00  0.00000000000E+00  0.39370670647E+03  0.39370670647E+03  0.00000000000E+00 0. -1.
          1   -1    0    0  501    0 -0.00000000000E+00 -0.00000000000E+00 -0.16733539866E+04  0.16733539866E+04  0.00000000000E+00 0. -1.
         25    2    1    2    0    0 -0.14756498821E+03 -0.38208346945E+03 -0.12384952951E+03  0.44578740758E+03  0.12499801370E+03 0.  0.
          2    1    1    2  501    0 -0.48339271434E+01  0.79551394082E+02 -0.12633489786E+04  0.12658603528E+04  0.00000000000E+00 0. -1.
          1    1    1    2  502    0  0.15239891535E+03  0.30253207537E+03  0.10755122801E+03  0.35541293262E+03  0.00000000000E+00 0. -1.
         22    1    3    3    0    0 -0.15219328606E+03 -0.23315358722E+03 -0.67576531718E+02  0.28651348868E+03  0.00000000000E+00 0.  1.
         22    1    3    3    0    0  0.46282978589E+01 -0.14892988223E+03 -0.56272997790E+02  0.15927391890E+03  0.00000000000E+00 0.  1.
</event>
<event>
 7    1  0.4402832E-005  0.1593081E+03  0.7818608E-02  0.1212197E+00
          2   -1    0    0  502    0  0.00000000000E+00  0.00000000000E+00  0.82377829371E+03  0.82377829371E+03  0.00000000000E+00 0. -1.
          1   -1    0    0  501    0 -0.00000000000E+00 -0.00000000000E+00 -0.88620341735E+03  0.88620341735E+03  0.00000000000E+00 0. -1.
         25    2    1    2    0    0  0.17985732985E+02  0.25823107750E+03 -0.39516843815E+02  0.29016012981E+03  0.12499817602E+03 0.  0.
          2    1    1    2  501    0  0.40353453531E+02 -0.14822172872E+03 -0.70750628658E+03  0.72399117924E+03  0.00000000000E+00 0. -1.
          1    1    1    2  502    0 -0.58339186516E+02 -0.11000934877E+03  0.68459800675E+03  0.69583040200E+03  0.00000000000E+00 0. -1.
         22    1    3    3    0    0  0.21626941523E+02  0.25781097032E+03 -0.84256766357E+01  0.25885365178E+03  0.00000000000E+00 0.  1.
         22    1    3    3    0    0 -0.36412085385E+01  0.42010718191E+00 -0.31091167180E+02  0.31306478024E+02  0.00000000000E+00 0.  1.
</event>
<event>
 7    1  0.4402832E-005  0.5713092E+03  0.7818608E-02  0.1136066E+00
          2   -1    0    0  502    0  0.00000000000E+00  0.00000000000E+00  0.16139039092E+04  0.16139039092E+04  0.00000000000E+00 0. -1.
          1   -1    0    0  501    0 -0.00000000000E+00 -0.00000000000E+00 -0.13374501647E+04  0.13374501647E+04  0.00000000000E+00 0. -1.
         25    2    1    2    0    0  0.23727083968E+03  0.47804907581E+03 -0.37485928591E+03  0.66405819034E+03  0.12500170270E+03 0.  0.
          2    1    1    2  501    0 -0.31160554064E+03 -0.51382771566E+03 -0.70620305560E+03  0.92727541220E+03  0.00000000000E+00 0. -1.
          1    1    1    2  502    0  0.74334700963E+02  0.35778639853E+02  0.13575160859E+04  0.13600204713E+04  0.00000000000E+00 0. -1.
         22    1    3    3    0    0  0.77264011930E+02  0.14895551350E+03 -0.19196797669E+03  0.25496897187E+03  0.00000000000E+00 0.  1.
         22    1    3    3    0    0  0.16000682775E+03  0.32909356231E+03 -0.18289130922E+03  0.40908921847E+03  0.00000000000E+00 0.  1.
</event>
<event>
 7    1  0.4402832E-005  0.1303731E+03  0.7818608E-02  0.1339777E+00
          2   -1    0    0  502    0  0.00000000000E+00  0.00000000000E+00  0.15826325305E+04  0.15826325305E+04  0.00000000000E+00 0. -1.
          1   -1    0    0  501    0 -0.00000000000E+00 -0.00000000000E+00 -0.94357070756E+02  0.94357070756E+02  0.00000000000E+00 0. -1.
         25    2    1    2    0    0  0.12175986175E+03  0.11879245181E+03  0.22440406199E+03  0.30808893464E+03  0.12499799225E+03 0.  0.
          2    1    1    2  501    0 -0.22805397911E+02 -0.38442966885E+02 -0.39294982740E+02  0.59515069902E+02  0.00000000000E+00 0. -1.
          1    1    1    2  502    0 -0.98954463838E+02 -0.80349484925E+02  0.13031663805E+04  0.13093855968E+04  0.00000000000E+00 0. -1.
         22    1    3    3    0    0  0.30620082653E+02  0.11141459233E+03  0.15482721672E+03  0.19318971993E+03  0.00000000000E+00 0.  1.
         22    1    3    3    0    0  0.91139779096E+02  0.73778594773E+01  0.69576845269E+02  0.11489921471E+03  0.00000000000E+00 0.  1.
</event>
<event>
 7    1  0.4402832E-005  0.1160009E+04  0.7818608E-02  0.1101632E+00
          2   -1    0    0  502    0  0.00000000000E+00  0.00000000000E+00  0.11117430657E+04  0.11117430657E+04  0.00000000000E+00 0. -1.
          1   -1    0    0  501    0 -0.00000000000E+00 -0.00000000000E+00 -0.24551464789E+04  0.24551464789E+04  0.00000000000E+00 0. -1.
         25    2    1    2    0    0  0.87945756827E+03 -0.73160193642E+03 -0.10867386358E+04  0.15828180821E+04  0.12500084266E+03 0.  0.
          2    1    1    2  501    0 -0.87400584318E+03  0.79392227421E+03 -0.80700033883E+03  0.14301917138E+04  0.00000000000E+00 0. -1.
          1    1    1    2  502    0 -0.54517250902E+01 -0.62320337784E+02  0.55033556140E+03  0.55387974864E+03  0.00000000000E+00 0. -1.
         22    1    3    3    0    0  0.45312593937E+03 -0.39368042087E+03 -0.65379402057E+03  0.88755507549E+03  0.00000000000E+00 0. -1.
         22    1    3    3    0    0  0.42633162890E+03 -0.33792151556E+03 -0.43294461525E+03  0.69526300661E+03  0.00000000000E+00 0. -1.
</event>
<event>
 7    1  0.4402832E-005  0.3614239E+03  0.7818608E-02  0.1091918E+00
          2   -1    0    0  502    0  0.00000000000E+00  0.00000000000E+00  0.21485041069E+04  0.21485041069E+04  0.00000000000E+00 0. -1.
          1   -1    0    0  501    0 -0.00000000000E+00 -0.00000000000E+00 -0.21324778921E+03  0.21324778921E+03  0.00000000000E+00 0. -1.
         25    2    1    2    0    0  0.32712118245E+03  0.51088454683E+02  0.50903329006E+03  0.61996740098E+03  0.12500555859E+03 0.  0.
          2    1    1    2  501    0 -0.41277335265E+02  0.22415698747E+03 -0.32336558015E+02  0.23020822406E+03  0.00000000000E+00 0. -1.
          1    1    1    2  502    0 -0.28584384719E+03 -0.27524544216E+03  0.14585595857E+04  0.15115762711E+04  0.00000000000E+00 0. -1.
         22    1    3    3    0    0  0.26493013592E+03  0.78172532751E+02  0.45889924313E+03  0.53561874233E+03  0.00000000000E+00 0.  1.
         22    1    3    3    0    0  0.62191046534E+02 -0.27084078068E+02  0.50134046932E+02  0.84348658647E+02  0.00000000000E+00 0.  1.
</event>
<event>
 7    1  0.4402832E-005  0.4886538E+02  0.7818608E-02  0.1522320E+00
          2   -1    0    0  502    0  0.00000000000E+00  0.00000000000E+00  0.12591132920E+03  0.12591132920E+03  0.00000000000E+00 0. -1.
          1   -1    0    0  501    0 -0.00000000000E+00 -0.00000000000E+00 -0.64720946951E+03  0.64720946951E+03  0.00000000000E+00 0. -1.
         25    2    1    2    0    0 -0.29011143141E+02  0.81898050855E+01 -0.11670964459E+03  0.17365479659E+03  0.12500451154E+03 0.  0.
          2    1    1    2  501    0 -0.36417612680E+01  0.29553678519E+02 -0.49515987131E+03  0.49605441284E+03  0.00000000000E+00 0. -1.
          1    1    1    2  502    0  0.32652904409E+02 -0.37743483605E+02  0.90571375594E+02  0.10341158928E+03  0.00000000000E+00 0. -1.
         22    1    3    3    0    0  0.37178961407E+02 -0.25000467303E+02 -0.13809769074E+02  0.46882920755E+02  0.00000000000E+00 0. -1.
         22    1    3    3    0    0 -0.66190104548E+02  0.33190272389E+02 -0.10289987551E+03  0.12677187583E+03  0.00000000000E+00 0. -1.
</event>
<event>
 7    1  0.4402832E-005  0.9296564E+03  0.7818608E-02  0.1104540E+00
          2   -1    0    0  502    0  0.00000000000E+00  0.00000000000E+00  0.20285748807E+04  0.20285748807E+04  0.00000000000E+00 0. -1.
          1   -1    0    0  501    0 -0.00000000000E+00 -0.00000000000E+00 -0.21525524753E+04  0.21525524753E+04  0.00000000000E+00 0. -1.
         25    2    1    2    0    0  0.87280098558E+03 -0.33394176501E+03 -0.33334153056E+03  0.10000202143E+04  0.12500076025E+03 0.  0.
          2    1    1    2  501    0 -0.89102260945E+03  0.26099750174E+03 -0.13398312455E+04  0.16300885721E+04  0.00000000000E+00 0. -1.
          1    1    1    2  502    0  0.18221623867E+02  0.72944263274E+02  0.15491951815E+04  0.15510185696E+04  0.00000000000E+00 0. -1.
         22    1    3    3    0    0  0.66666369653E+03 -0.22180519894E+03 -0.20178768880E+03  0.73099678651E+03  0.00000000000E+00 0.  1.
         22    1    3    3    0    0  0.20613728906E+03 -0.11213656607E+03 -0.13155384176E+03  0.26902342774E+03  0.00000000000E+00 0.  1.
</event>
<event>
 7    1  0.5716188E-005  0.1032910E+04  0.7818608E-02  0.1141294E+00
          2   -1    0    0  502    0  0.00000000000E+00  0.00000000000E+00  0.20447763492E+04  0.20447763492E+04  0.00000000000E+00 0. -1.
          1   -1    0    0  501    0 -0.00000000000E+00 -0.00000000000E+00 -0.12523231344E+04  0.12523231344E+04  0.00000000000E+00 0. -1.
         25    2    1    2    0    0 -0.48509830756E+02  0.10068783948E+04 -0.22006678487E+03  0.10393321034E+04  0.12499810342E+03 0.  0.
          2    1    1    2  501    0  0.27971071927E+02  0.32441431291E+02 -0.45630322425E+03  0.45830934944E+03  0.00000000000E+00 0. -1.
          1    1    1    2  502    0  0.20538758829E+02 -0.10393198261E+04  0.14688232239E+04  0.17994580308E+04  0.00000000000E+00 0. -1.
         22    1    3    3    0    0  0.10331173578E+02  0.91212501156E+02  0.12813349230E+02  0.92685680842E+02  0.00000000000E+00 0. -1.
         22    1    3    3    0    0 -0.58841004334E+02  0.91566589361E+03 -0.23288013410E+03  0.94664642258E+03  0.00000000000E+00 0. -1.
</event>
<event>
 7    1  0.4402832E-005  0.1886533E+03  0.7818608E-02  0.1310930E+00
          2   -1    0    0  502    0  0.00000000000E+00  0.00000000000E+00  0.11728910886E+04  0.11728910886E+04  0.00000000000E+00 0. -1.
          1   -1    0    0  501    0 -0.00000000000E+00 -0.00000000000E+00 -0.11773310856E+03  0.11773310856E+03  0.00000000000E+00 0. -1.
         25    2    1    2    0    0 -0.12623925568E+03 -0.14202353495E+03  0.80860592963E+03  0.83998386874E+03  0.12498926423E+03 0.  0.
          2    1    1    2  501    0  0.93178154461E+02  0.16433779651E+03 -0.11746357561E+02  0.18928036545E+03  0.00000000000E+00 0. -1.
          1    1    1    2  502    0  0.33061101215E+02 -0.22314261558E+02  0.25829840801E+03  0.26135996300E+03  0.00000000000E+00 0. -1.
         22    1    3    3    0    0 -0.10425763019E+03 -0.66594819072E+02  0.28747601486E+03  0.31296482630E+03  0.00000000000E+00 0.  1.
         22    1    3    3    0    0 -0.21981625488E+02 -0.75428715877E+02  0.52112991477E+03  0.52701904245E+03  0.00000000000E+00 0.  1.
</event>
<event>
 7    1  0.4402832E-005  0.3157171E+03  0.7818608E-02  0.1173843E+00
          2   -1    0    0  502    0  0.00000000000E+00  0.00000000000E+00  0.21917871059E+04  0.21917871059E+04  0.00000000000E+00 0. -1.
          1   -1    0    0  501    0 -0.00000000000E+00 -0.00000000000E+00 -0.16622058967E+03  0.16622058967E+03  0.00000000000E+00 0. -1.
         25    2    1    2    0    0 -0.10265929263E+03  0.28368893921E+03  0.23080991981E+03  0.39989578538E+03  0.12500030194E+03 0.  0.
          2    1    1    2  501    0  0.13599471404E+03 -0.37348446794E+03  0.18168447616E+04  0.18598145331E+04  0.00000000000E+00 0. -1.
          1    1    1    2  502    0 -0.33335421403E+02  0.89795528728E+02 -0.22088165142E+02  0.98297377070E+02  0.00000000000E+00 0. -1.
         22    1    3    3    0    0 -0.12927223492E+03  0.19509448923E+03  0.16337031355E+03  0.28541729064E+03  0.00000000000E+00 0.  1.
         22    1    3    3    0    0  0.26612942284E+02  0.88594449980E+02  0.67439606265E+02  0.11447849474E+03  0.00000000000E+00 0.  1.
</event>
<event>
 7    1  0.4402832E-005  0.1473377E+04  0.7818608E-02  0.1085855E+00
          2   -1    0    0  502    0  0.00000000000E+00  0.00000000000E+00  0.19518007148E+04  0.19518007148E+04  0.00000000000E+00 0. -1.
          1   -1    0    0  501    0 -0.00000000000E+00 -0.00000000000E+00 -0.17535976910E+04  0.17535976910E+04  0.00000000000E+00 0. -1.
         25    2    1    2    0    0  0.67551136133E+03  0.12725267543E+04  0.25380502087E+03  0.14682240385E+04  0.12499959598E+03 0.  0.
          2    1    1    2  501    0  0.25412643963E+02  0.54998676056E+02 -0.62772575686E+03  0.63064275360E+03  0.00000000000E+00 0. -1.
          1    1    1    2  502    0 -0.70092400529E+03 -0.13275254303E+04  0.57212375979E+03  0.16065316137E+04  0.00000000000E+00 0. -1.
         22    1    3    3    0    0  0.91002330264E+02  0.15077589534E+03  0.72270409894E+02  0.19036230424E+03  0.00000000000E+00 0.  1.
         22    1    3    3    0    0  0.58450903106E+03  0.11217508589E+04  0.18153461097E+03  0.12778617343E+04  0.00000000000E+00 0.  1.
</event>
<event>
 7    1  0.4402832E-005  0.3313960E+03  0.7818608E-02  0.1205508E+00
          2   -1    0    0  502    0  0.00000000000E+00  0.00000000000E+00  0.13371524839E+04  0.13371524839E+04  0.00000000000E+00 0. -1.
          1   -1    0    0  501    0 -0.00000000000E+00 -0.00000000000E+00 -0.62652154795E+03  0.62652154795E+03  0.00000000000E+00 0. -1.
         25    2    1    2    0    0 -0.32266672162E+03  0.12098099692E+03  0.97833356510E+03  0.10447545436E+04  0.12500110781E+03 0.  0.
          2    1    1    2  501    0  0.57015441843E+02  0.29726961931E+02 -0.51926680614E+03  0.52323271002E+03  0.00000000000E+00 0. -1.
          1    1    1    2  502    0  0.26565127978E+03 -0.15070795886E+03  0.25156417700E+03  0.39568677822E+03  0.00000000000E+00 0. -1.
         22    1    3    3    0    0  0.52171436211E+01  0.17673330291E+02  0.23131796633E+02  0.29574401204E+02  0.00000000000E+00 0.  1.
         22    1    3    3    0    0 -0.32788386524E+03  0.10330766663E+03  0.95520176847E+03  0.10151801424E+04  0.00000000000E+00 0.  1.
</event>
<event>
 7    1  0.4402832E-005  0.3539909E+03  0.7818608E-02  0.1210341E+00
          2   -1    0    0  502    0  0.00000000000E+00  0.00000000000E+00  0.40196315624E+04  0.40196315624E+04  0.00000000000E+00 0. -1.
          1   -1    0    0  501    0 -0.00000000000E+00 -0.00000000000E+00 -0.15606644843E+03  0.15606644843E+03  0.00000000000E+00 0. -1.
         25    2    1    2    0    0 -0.33562753132E+03 -0.20124795046E+03  0.76971676212E+03  0.87248860259E+03  0.12500356165E+03 0.  0.
          2    1    1    2  501    0  0.27858447411E+03  0.19763171316E+03  0.17497372682E+03  0.38377520548E+03  0.00000000000E+00 0. -1.
          1    1    1    2  502    0  0.57043057204E+02  0.36162372930E+01  0.29188746250E+04  0.29194342027E+04  0.00000000000E+00 0. -1.
         22    1    3    3    0    0 -0.31916573741E+03 -0.14263367064E+03  0.64227815388E+03  0.73125396333E+03  0.00000000000E+00 0.  1.
         22    1    3    3    0    0 -0.16461793902E+02 -0.58614279813E+02  0.12743860824E+03  0.14123463926E+03  0.00000000000E+00 0.  1.
</event>
<event>
 7    1  0.5116864E-005  0.2551102E+03  0.7818608E-02  0.1202025E+00
          2   -1    0    0  502    0  0.00000000000E+00  0.00000000000E+00  0.15510473469E+04  0.15510473469E+04  0.00000000000E+00 0. -1.
          1   -1    0    0  501    0 -0.00000000000E+00 -0.00000000000E+00 -0.13557214931E+04  0.13557214931E+04  0.00000000000E+00 0. -1.
         25    2    1    2    0    0  0.15486889374E+03 -0.22705111126E+03 -0.11417349147E+04  0.11809827917E+04  0.12500062959E+03 0.  0.
          2    1    1    2  501    0 -0.14839439967E+03  0.14056678673E+03 -0.13899593684E+03  0.24718371678E+03  0.00000000000E+00 0. -1.
          1    1    1    2  502    0 -0.64744940739E+01  0.86484324530E+02  0.14760567053E+04  0.14786023315E+04  0.00000000000E+00 0. -1.
         22    1    3    3    0    0  0.61291422371E+02 -0.25363557990E+02 -0.14068160741E+03  0.15553540816E+03  0.00000000000E+00 0.  1.
         22    1    3    3    0    0  0.93577471370E+02 -0.20168755327E+03 -0.10010533073E+04  0.10254473835E+04  0.00000000000E+00 0.  1.
</event>
<event>
 7    1  0.4402832E-005  0.6449882E+03  0.7818608E-02  0.1064311E+00
          2   -1    0    0  502    0  0.00000000000E+00  0.00000000000E+00  0.80784193883E+03  0.80784193883E+03  0.00000000000E+00 0. -1.
          1   -1    0    0  501    0 -0.00000000000E+00 -0.00000000000E+00 -0.19927199108E+04  0.19927199108E+04  0.00000000000E+00 0. -1.
         25    2    1    2    0    0  0.16809784143E+03  0.59234723813E+03 -0.95045683934E+03  0.11393539129E+04  0.12500800225E+03 0.  0.
          2    1    1    2  501    0  0.18089963773E+03 -0.41063659107E+02 -0.78553192313E+03  0.80713772387E+03  0.00000000000E+00 0. -1.
          1    1    1    2  502    0 -0.34899747916E+03 -0.55128357903E+03  0.55111079054E+03  0.85407021281E+03  0.00000000000E+00 0. -1.
         22    1    3    3    0    0  0.16501328594E+03  0.45537022732E+03 -0.80540581023E+03  0.93982442383E+03  0.00000000000E+00 0. -1.
         22    1    3    3    0    0  0.30845554914E+01  0.13697701081E+03 -0.14505102911E+03  0.19952948910E+03  0.00000000000E+00 0. -1.
</event>
<event>
 7    1  0.4402832E-005  0.6123360E+03  0.7818608E-02  0.1190595E+00
          2   -1    0    0  502    0  0.00000000000E+00  0.00000000000E+00  0.18949099089E+04  0.18949099089E+04  0.00000000000E+00 0. -1.
          1   -1    0    0  501    0 -0.00000000000E+00 -0.00000000000E+00 -0.61833701413E+03  0.61833701413E+03  0.00000000000E+00 0. -1.
         25    2    1    2    0    0  0.59282074961E+03 -0.25071584219E+02  0.27829147988E+03  0.66718701767E+03  0.12500937273E+03 0.  0.
          2    1    1    2  501    0 -0.62171813717E+03 -0.39273509617E+01 -0.19537192229E+03  0.65170472930E+03  0.00000000000E+00 0. -1.
          1    1    1    2  502    0  0.28897387561E+02  0.28998935181E+02  0.11936533371E+04  0.11943551760E+04  0.00000000000E+00 0. -1.
         22    1    3    3    0    0  0.29837464407E+03 -0.71569103645E+02  0.11814458315E+03  0.32879736518E+03  0.00000000000E+00 0.  1.
         22    1    3    3    0    0  0.29444610553E+03  0.46497519426E+02  0.16014689674E+03  0.33838965249E+03  0.00000000000E+00 0.  1.
</event>
<event>
 7    1  0.4402832E-005  0.8051380E+03  0.7818608E-02  0.1165234E+00
          2   -1    0    0  502    0  0.00000000000E+00  0.00000000000E+00  0.20724899548E+04  0.20724899548E+04  0.00000000000E+00 0. -1.
          1   -1    0    0  501    0 -0.00000000000E+00 -0.00000000000E+00 -0.63730166521E+03  0.63730166521E+03  0.00000000000E+00 0. -1.
         25    2    1    2    0    0  0.80192781523E+03 -0.17344014542E+03 -0.77326800144E+01  0.82997418982E+03  0.12501062571E+03 0.  0.
          2    1    1    2  501    0 -0.76231210850E+03  0.16125018450E+03  0.47822661517E+03  0.91423304919E+03  0.00000000000E+00 0. -1.
          1    1    1    2  502    0 -0.39615706732E+02  0.12189960914E+02  0.96469435447E+03  0.96558438105E+03  0.00000000000E+00 0. -1.
         22    1    3    3    0    0  0.64111650527E+03 -0.17231169407E+03 -0.43276364670E+02  0.66527778934E+03  0.00000000000E+00 0.  1.
         22    1    3    3    0    0  0.16081130996E+03 -0.11284513509E+01  0.35543684655E+02  0.16469640048E+03  0.00000000000E+00 0.  1.
</event>
<event>
 7    1  0.4402832E-005  0.2877934E+03  0.7818608E-02  0.1190311E+00
          2   -1    0    0  502    0  0.00000000000E+00  0.00000000000E+00  0.10652629188E+04  0.10652629188E+04  0.00000000000E+00 0. -1.
          1   -1    0    0  501    0 -0.00000000000E+00 -0.00000000000E+00 -0.11089848971E+04  0.11089848971E+04  0.00000000000E+00 0. -1.
         25    2    1    2    0    0 -0.11059138974E+02  0.33659367028E+03 -0.59538481083E+03  0.69535982027E+03  0.12499841298E+03 0.  0.
          2    1    1    2  501    0  0.32839119857E+02 -0.25197283474E+03 -0.42670038118E+03  0.49663057954E+03  0.00000000000E+00 0. -1.
          1    1    1    2  502    0 -0.21779980882E+02 -0.84620835535E+02  0.97836321370E+03  0.98225741600E+03  0.00000000000E+00 0. -1.
         22    1    3    3    0    0 -0.47053260496E+02  0.50014547177E+02 -0.14300590793E+03  0.15863843782E+03  0.00000000000E+00 0. -1.
         22    1    3    3    0    0  0.35994121521E+02  0.28657912310E+03 -0.45237890290E+03  0.53672138244E+03  0.00000000000E+00 0. -1.
</event>
<event>
 7    1  0.4402832E-005  0.2531538E+03  0.7818608E-02  0.1170722E+00
          2   -1    0    0  502    0  0.00000000000E+00  0.00000000000E+00  0.29803641630E+03  0.29803641630E+03  0.00000000000E+00 0. -1.
          1   -1    0    0  501    0 -0.00000000000E+00 -0.00000000000E+00 -0.19997875907E+04  0.19997875907E+04  0.00000000000E+00 0. -1.
         25    2    1    2    0    0  0.35448612096E+03  0.60808394606E+02 -0.40705565169E+03  0.55738486904E+03  0.12500207140E+03 0.  0.
          2    1    1    2  501    0 -0.11615935985E+03 -0.42753362293E+02 -0.14500846006E+04  0.14553577553E+04  0.00000000000E+00 0. -1.
          1    1    1    2  502    0 -0.23832676111E+03 -0.18055032314E+02  0.15538907788E+03  0.28508138273E+03  0.00000000000E+00 0. -1.
         22    1    3    3    0    0 -0.35268391074E+01  0.18178564431E+02 -0.33114868475E+02  0.37940655147E+02  0.00000000000E+00 0.  1.
         22    1    3    3    0    0  0.35801296007E+03  0.42629830176E+02 -0.37394078321E+03  0.51944421389E+03  0.00000000000E+00 0.  1.
</event>
<event>
 7    1  0.4402832E-005  0.4345962E+03  0.7818608E-02  0.1063432E+00
          2   -1    0    0  502    0  0.00000000000E+00  0.00000000000E+00  0.15953492261E+04  0.15953492261E+04  0.00000000000E+00 0. -1.
          1   -1    0    0  501    0 -0.00000000000E+00 -0.00000000000E+00 -0.16203690618E+04  0.16203690618E+04  0.00000000000E+00 0. -1.
         25    2    1    2    0    0  0.31237909422E+03 -0.47483002718E+03  0.11241380554E+04  0.12658418124E+04  0.12499949234E+03 0.  0.
          2    1    1    2  501    0 -0.22164270610E+03  0.16894101982E+03 -0.14707148529E+04  0.14968863470E+04  0.00000000000E+00 0. -1.
          1    1    1    2  502    0 -0.90736388122E+02  0.30588900736E+03  0.32155696176E+03  0.45299012860E+03  0.00000000000E+00 0. -1.
         22    1    3    3    0    0  0.64204672931E+02 -0.69662998987E+02  0.29939941310E+03  0.31403054313E+03  0.00000000000E+00 0. -1.
         22    1    3    3    0    0  0.24817442129E+03 -0.40516702819E+03  0.82473864230E+03  0.95181126923E+03  0.00000000000E+00 0. -1.
</event>
<event>
 7    1  0.4402832E-005  0.1219389E+03  0.7818608E-02  0.1362940E+00
          2   -1    0    0  502    0  0.00000000000E+00  0.00000000000E+00  0.17703482980E+03  0.17703482980E+03  0.00000000000E+00 0. -1.
          1   -1    0    0  501    0 -0.00000000000E+00 -0.00000000000E+00 -0.10210655690E+04  0.10210655690E+04  0.00000000000E+00 0. -1.
         25    2    1    2    0    0 -0.11260517766E+03  0.38304903737E+02  0.87495757990E+02  0.19346358650E+03  0.12500183978E+03 0.  0.
          2    1    1    2  501    0  0.97002322404E+02 -0.74305519713E+02 -0.95239119351E+03  0.96019776416E+03  0.00000000000E+00 0. -1.
          1    1    1    2  502    0  0.15602855252E+02  0.36000615976E+02  0.20864696363E+02  0.44439048111E+02  0.00000000000E+00 0. -1.
         22    1    3    3    0    0 -0.51264382602E+02 -0.32264506972E+02  0.79037902685E+02  0.99579241785E+02  0.00000000000E+00 0. -1.
         22    1    3    3    0    0 -0.61340795055E+02  0.70569410710E+02  0.84578553057E+01  0.93884344713E+02  0.00000000000E+00 0. -1.
</event>
<event>
 7    1  0.4402832E-005  0.1260765E+03  0.7818608E-02  0.1282624E+00
          2   -1    0    0  502    0  0.00000000000E+00  0.00000000000E+00  0.12672288929E+04  0.12672288929E+04  0.00000000000E+00 0. -1.
          1   -1    0    0  501    0 -0.00000000000E+00 -0.00000000000E+00 -0.26538764551E+04  0.26538764551E+04  0.00000000000E+00 0. -1.
         25    2    1    2    0    0  0.19682613857E+02 -0.19594931642E+03  0.29208416838E+03  0.37379288541E+03  0.12499767946E+03 0.  0.
          2    1    1    2  501    0 -0.46546024737E+01  0.77443128699E+02 -0.26086247316E+04  0.26097781694E+04  0.00000000000E+00 0. -1.
          1    1    1    2  502    0 -0.15028011383E+02  0.11850618772E+03  0.92989300096E+03  0.93753429318E+03  0.00000000000E+00 0. -1.
         22    1    3    3    0    0 -0.15917144539E+02 -0.34640109333E+01 -0.58482708032E+01  0.17307718897E+02  0.00000000000E+00 0.  1.
         22    1    3    3    0    0  0.35599758396E+02 -0.19248530548E+03  0.29793243918E+03  0.35648516651E+03  0.00000000000E+00 0.  1.
</event>
<event>
 7    1  0.4402832E-005  0.2252992E+03  0.7818608E-02  0.1288713E+00
          2   -1    0    0  502    0  0.00000000000E+00  0.00000000000E+00  0.44773042771E+03  0.44773042771E+03  0.00000000000E+00 0. -1.
          1   -1    0    0  501    0 -0.00000000000E+00 -0.00000000000E+00 -0.53350895664E+03  0.53350895664E+03  0.00000000000E+00 0. -1.
         25    2    1    2    0    0  0.79057564003E+02  0.23772547201E+03  0.69610258225E+02  0.28850444014E+03  0.12500290182E+03 0.  0.
          2    1    1    2  501    0 -0.43614370921E+02 -0.21713005573E+03 -0.39327337990E+03  0.45134424311E+03  0.00000000000E+00 0. -1.
          1    1    1    2  502    0 -0.35443193082E+02 -0.20595416283E+02  0.23788459274E+03  0.24139070109E+03  0.00000000000E+00 0. -1.
         22    1    3    3    0    0  0.31113073042E+02 -0.29588057019E+01 -0.57570105361E+01  0.31779254485E+02  0.00000000000E+00 0. -1.
         22    1    3    3    0    0  0.47944490961E+02  0.24068427771E+03  0.75367268762E+02  0.25672518566E+03  0.00000000000E+00 0. -1.
</event>
<event>
 7    1  0.4402832E-005  0.6181724E+02  0.7818608E-02  0.1397438E+00
          2   -1    0    0  502    0  0.00000000000E+00  0.00000000000E+00  0.22994192764E+04  0.22994192764E+04  0.00000000000E+00 0. -1.
          1   -1    0    0  501    0 -0.00000000000E+00 -0.00000000000E+00 -0.23894141252E+03  0.23894141252E+03  0.00000000000E+00 0. -1.
         25    2    1    2    0    0 -0.62221690973E+02 -0.57249064192E+01  0.42472606595E+03  0.44712749259E+03  0.12500580047E+03 0.  0.
          2    1    1    2  501    0  0.39334002320E+02 -0.48023585581E+02 -0.22304321070E+03  0.23152041454E+03  0.00000000000E+00 0. -1.
          1    1    1    2  502    0  0.22887688653E+02  0.53748492000E+02  0.18587950086E+04  0.18597127818E+04  0.00000000000E+00 0. -1.
         22    1    3    3    0    0 -0.25560432355E+02 -0.21291695940E+01  0.54313438815E+01  0.26217714655E+02  0.00000000000E+00 0. -1.
         22    1    3    3    0    0 -0.36661258618E+02 -0.35957368252E+01  0.41929472207E+03  0.42090977794E+03  0.00000000000E+00 0. -1.
</event>
<event>
 7    1  0.4402832E-005  0.1363319E+03  0.7818608E-02  0.1257473E+00
          2   -1    0    0  502    0  0.00000000000E+00  0.00000000000E+00  0.34063474641E+03  0.34063474641E+03  0.00000000000E+00 0. -1.
          1   -1    0    0  501    0 -0.00000000000E+00 -0.00000000000E+00 -0.71275249830E+03  0.71275249830E+03  0.00000000000E+00 0. -1.
         25    2    1    2    0    0 -0.15776459336E+03  0.82602621079E+02  0.19279664327E+03  0.29070338010E+03  0.12500019848E+03 0.  0.
          2    1    1    2  501    0  0.91009287175E+02  0.94762822080E+01 -0.62663779085E+03  0.63328304193E+03  0.00000000000E+00 0. -1.
          1    1    1    2  502    0  0.66755306180E+02 -0.92078903287E+02  0.61723395691E+02  0.12940082268E+03  0.00000000000E+00 0. -1.
         22    1    3    3    0    0  0.44121981016E+01  0.34022874071E+02  0.24285377088E+00  0.34308634921E+02  0.00000000000E+00 0. -1.
         22    1    3    3    0    0 -0.16217679146E+03  0.48579747008E+02  0.19255378949E+03  0.25639474518E+03  0.00000000000E+00 0. -1.
</event>
<event>
 7    1  0.4402832E-005  0.2939189E+03  0.7818608E-02  0.1104741E+00
          2   -1    0    0  502    0  0.00000000000E+00  0.00000000000E+00  0.48041984251E+03  0.48041984251E+03  0.00000000000E+00 0. -1.
          1   -1    0    0  501    0 -0.00000000000E+00 -0.00000000000E+00 -0.10082473084E+04  0.10082473084E+04  0.00000000000E+00 0. -1.
         25    2    1    2    0    0 -0.20430780937E+03 -0.22973072429E+03  0.18024638897E+03  0.37766388538E+03  0.12499345154E+03 0.  0.
          2    1    1    2  501    0  0.21572166229E+03 -0.98621879552E+02 -0.74362130496E+03  0.78053491651E+03  0.00000000000E+00 0. -1.
          1    1    1    2  502    0 -0.11413852925E+02  0.32835260385E+03  0.35547450112E+02  0.33046834901E+03  0.00000000000E+00 0. -1.
         22    1    3    3    0    0 -0.45132984265E+02  0.47574927154E+00  0.54698906032E+02  0.70916732349E+02  0.00000000000E+00 0.  1.
         22    1    3    3    0    0 -0.15917482510E+03 -0.23020647357E+03  0.12554748293E+03  0.30674715303E+03  0.00000000000E+00 0.  1.
</event>
<event>
 7    1  0.4402832E-005  0.6898593E+03  0.7818608E-02  0.1156684E+00
          2   -1    0    0  502    0  0.00000000000E+00  0.00000000000E+00  0.22543164929E+04  0.22543164929E+04  0.00000000000E+00 0. -1.
          1   -1    0    0  501    0 -0.00000000000E+00 -0.00000000000E+00 -0.22518340605E+04  0.22518340605E+04  0.00000000000E+00 0. -1.
         25    2    1    2    0    0 -0.37413605637E+03  0.61018222710E+03 -0.83831893502E+03  0.11093708643E+04  0.12499975504E+03 0.  0.
          2    1    1    2  501    0  0.32479660213E+03 -0.58968380547E+03 -0.11889544614E+04  0.13663208022E+04  0.00000000000E+00 0. -1.
          1    1    1    2  502    0  0.49339454231E+02 -0.20498421624E+02  0.20297558288E+04  0.20304588870E+04  0.00000000000E+00 0. -1.
         22    1    3    3    0    0 -0.19908960071E+03  0.23356516562E+03 -0.41707918771E+03  0.51782661628E+03  0.00000000000E+00 0. -1.
         22    1    3    3    0    0 -0.17504645566E+03  0.37661706147E+03 -0.42123974731E+03  0.59154424800E+03  0.00000000000E+00 0. -1.
</event>
<event>
 7    1  0.4402832E-005  0.4410125E+02  0.7818608E-02  0.1580365E+00
          2   -1    0    0  502    0  0.00000000000E+00  0.00000000000E+00  0.73876720025E+03  0.73876720025E+03  0.00000000000E+00 0. -1.
          1   -1    0    0  501    0 -0.00000000000E+00 -0.00000000000E+00 -0.33889639146E+03  0.33889639146E+03  0.00000000000E+00 0. -1.
         25    2    1    2    0    0  0.19583672231E+02  0.32958168762E+02 -0.26017612054E+02  0.13330966481E+03  0.12499915795E+03 0.  0.
          2    1    1    2  501    0  0.19324048406E+02 -0.11983081186E+02 -0.25801933026E+03  0.25901928088E+03  0.00000000000E+00 0. -1.
          1    1    1    2  502    0 -0.38907720637E+02 -0.20975087576E+02  0.68390775110E+03  0.68533464602E+03  0.00000000000E+00 0. -1.
         22    1    3    3    0    0 -0.27115203604E+02 -0.90090039876E+01  0.35391230177E+02  0.45485553671E+02  0.00000000000E+00 0. -1.
         22    1    3    3    0    0  0.46698875836E+02  0.41967172749E+02 -0.61408842231E+02  0.87824111137E+02  0.00000000000E+00 0. -1.
</event>
<event>
 7    1  0.4402832E-005  0.4840795E+03  0.7818608E-02  0.1201399E+00
          2   -1    0    0  502    0  0.00000000000E+00  0.00000000000E+00  0.18929140518E+04  0.18929140518E+04  0.00000000000E+00 0. -1.
          1   -1    0    0  501    0 -0.00000000000E+00 -0.00000000000E+00 -0.25080072823E+03  0.25080072823E+03  0.00000000000E+00 0. -1.
         25    2    1    2    0    0 -0.40467759227E+03  0.19025371194E+03  0.11705013277E+04  0.12592295197E+04  0.12500078672E+03 0.  0.
          2    1    1    2  501    0  0.44488725476E+03 -0.21262807141E+03  0.91385521554E+02  0.50148447608E+03  0.00000000000E+00 0. -1.
          1    1    1    2  502    0 -0.40209662489E+02  0.22374359473E+02  0.38022647437E+03  0.38300078425E+03  0.00000000000E+00 0. -1.
         22    1    3    3    0    0 -0.29619646115E+03  0.18637394507E+03  0.80092551305E+03  0.87404191459E+03  0.00000000000E+00 0. -1.
         22    1    3    3    0    0 -0.10848113112E+03  0.38797668602E+01  0.36957581463E+03  0.38518760515E+03  0.00000000000E+00 0. -1.
</event>
<event>
 7    1  0.4402832E-005  0.4665516E+03  0.7818608E-02  0.1048240E+00
          2   -1    0    0  502    0  0.00000000000E+00  0.00000000000E+00  0.11695978622E+04  0.11695978622E+04  0.00000000000E+00 0. -1.
          1   -1    0    0  501    0 -0.00000000000E+00 -0.00000000000E+00 -0.65866547050E+03  0.65866547050E+03  0.00000000000E+00 0. -1.
         25    2    1    2    0    0 -0.22952846737E+02  0.49140754611E+03  0.18741013817E+03  0.54107035665E+03  0.12500544550E+03 0.  0.
          2    1    1    2  501    0 -0.29750465822E+03 -0.12224662763E+03 -0.33673343839E+03  0.46566368568E+03  0.00000000000E+00 0. -1.
          1    1    1    2  502    0  0.32045750496E+03 -0.36916091848E+03  0.66025569187E+03  0.82152929033E+03  0.00000000000E+00 0. -1.
         22    1    3    3    0    0 -0.45673268113E+02  0.38112262649E+03  0.19029910524E+03  0.42843232056E+03  0.00000000000E+00 0. -1.
         22    1    3    3    0    0  0.22720421376E+02  0.11028491962E+03 -0.28889670686E+01  0.11263803609E+03  0.00000000000E+00 0. -1.
</event>
<event>
 7    1  0.4402832E-005  0.6281140E+03  0.7818608E-02  0.1038595E+00
          2   -1    0    0  502    0  0.00000000000E+00  0.00000000000E+00  0.12813468999E+04  0.12813468999E+04  0.00000000000E+00 0. -1.
          1   -1    0    0  501    0 -0.00000000000E+00 -0.00000000000E+00 -0.20923715036E+04  0.20923715036E+04  0.00000000000E+00 0. -1.
         25    2    1    2    0    0  0.49867102694E+03  0.31322868172E+03 -0.22397968195E+02  0.60242167037E+03  0.12500079918E+03 0.  0.
          2    1    1    2  501    0  0.15231716760E+03 -0.22852699844E+03 -0.16587368538E+04  0.16813188450E+04  0.00000000000E+00 0. -1.
          1    1    1    2  502    0 -0.65098819454E+03 -0.84701683287E+02  0.87011021830E+03  0.10899778881E+04  0.00000000000E+00 0. -1.
         22    1    3    3    0    0  0.23610835682E+02  0.19874668829E+02  0.28189951036E+02  0.41798891876E+02  0.00000000000E+00 0. -1.
         22    1    3    3    0    0  0.47506019126E+03  0.29335401289E+03 -0.50587919231E+02  0.56062277850E+03  0.00000000000E+00 0. -1.
</event>
<event>
 7    1  0.4402832E-005  0.3013322E+03  0.7818608E-02  0.1179087E+00
          2   -1    0    0  502    0  0.00000000000E+00  0.00000000000E+00  0.13631855872E+03  0.13631855872E+03  0.00000000000E+00 0. -1.
          1   -1    0    0  501    0 -0.00000000000E+00 -0.00000000000E+00 -0.10301568002E+04  0.10301568002E+04  0.00000000000E+00 0. -1.
         25    2    1    2    0    0  0.31086193440E+03  0.15558128917E+03 -0.35842857251E+03  0.51472160106E+03  0.12500642066E+03 0.  0.
          2    1    1    2  501    0 -0.59159032010E+02 -0.73790819625E+02 -0.22352848180E+03  0.24271353136E+03  0.00000000000E+00 0. -1.
          1    1    1    2  502    0 -0.25170290239E+03 -0.81790469543E+02 -0.31188118717E+03  0.40904022650E+03  0.00000000000E+00 0. -1.
         22    1    3    3    0    0  0.17429016528E+03  0.14471241526E+03 -0.17760613790E+03  0.28785879363E+03  0.00000000000E+00 0.  1.
         22    1    3    3    0    0  0.13657176912E+03  0.10868873902E+02 -0.18082243461E+03  0.22686280743E+03  0.00000000000E+00 0.  1.
</event>
<event>
 7    1  0.4402832E-005  0.2115524E+03  0.7818608E-02  0.1340822E+00
          2   -1    0    0  502    0  0.00000000000E+00  0.00000000000E+00  0.27428140312E+03  0.27428140312E+03  0.00000000000E+00 0. -1.
          1   -1    0    0  501    0 -0.00000000000E+00 -0.00000000000E+00 -0.13740225355E+04  0.13740225355E+04  0.00000000000E+00 0. -1.
         25    2    1    2    0    0 -0.37740768216E+02  0.23124942616E+03 -0.38047930387E+03  0.46399346300E+03  0.12499908140E+03 0.  0.
          2    1    1    2  501    0  0.13739407514E+02 -0.23588549575E+02 -0.90455523195E+03  0.90496704837E+03  0.00000000000E+00 0. -1.
          1    1    1    2  502    0  0.24001360702E+02 -0.20766087658E+03  0.18529340345E+03  0.27934342724E+03  0.00000000000E+00 0. -1.
         22    1    3    3    0    0  0.20138532300E+00  0.10953595249E+03 -0.28314764274E+03  0.30359636532E+03  0.00000000000E+00 0. -1.
         22    1    3    3    0    0 -0.37942153539E+02  0.12171347367E+03 -0.97331661125E+02  0.16039709768E+03  0.00000000000E+00 0. -1.
</event>
<event>
 7    1  0.4402832E-005  0.1720347E+03  0.7818608E-02  0.1206394E+00
          2   -1    0    0  502    0  0.00000000000E+00  0.00000000000E+00  0.23633938619E+03  0.23633938619E+03  0.00000000000E+00 0. -1.
          1   -1    0    0  501    0 -0.00000000000E+00 -0.00000000000E+00 -0.44812811135E+03  0.44812811135E+03  0.00000000000E+00 0. -1.
         25    2    1    2    0    0 -0.18096900818E+02  0.17317110443E+03 -0.27394188892E+02  0.21608348397E+03  0.12500360487E+03 0.  0.
          2    1    1    2  501    0 -0.10229350119E+03 -0.14953508372E+03 -0.26541585070E+03  0.32135692844E+03  0.00000000000E+00 0. -1.
          1    1    1    2  502    0  0.12039040201E+03 -0.23636020709E+02  0.81021314432E+02  0.14702708514E+03  0.00000000000E+00 0. -1.
         22    1    3    3    0    0 -0.31739108812E+02  0.91864881868E+02 -0.73287710830E+02  0.12172763083E+03  0.00000000000E+00 0.  1.
         22    1    3    3    0    0  0.13642207993E+02  0.81306222563E+02  0.45893521938E+02  0.94355853143E+02  0.00000000000E+00 0.  1.
</event>
<event>
 7    1  0.4402832E-005  0.3748944E+03  0.7818608E-02  0.1130109E+00
          2   -1    0    0  502    0  0.00000000000E+00  0.00000000000E+00  0.57483104208E+03  0.57483104208E+03  0.00000000000E+00 0. -1.
          1   -1    0    0  501    0 -0.00000000000E+00 -0.00000000000E+00 -0.10765158562E+04  0.10765158562E+04  0.00000000000E+00 0. -1.
         25    2    1    2    0    0  0.45571158942E+03  0.18016854972E+03 -0.27294981566E+02  0.50646024358E+03  0.12499281287E+03 0.  0.
          2    1    1    2  501    0 -0.33567273469E+03 -0.11795019707E+03 -0.75431783663E+03  0.83401668596E+03  0.00000000000E+00 0. -1.
          1    1    1    2  502    0 -0.12003885473E+03 -0.62218352651E+02  0.27992800403E+03  0.31086996878E+03  0.00000000000E+00 0. -1.
         22    1    3    3    0    0  0.16348306604E+03  0.94676812932E+02 -0.64706859253E+02  0.19969323830E+03  0.00000000000E+00 0. -1.
         22    1    3    3    0    0  0.29222852338E+03  0.85491736791E+02  0.37411877688E+02  0.30676700528E+03  0.00000000000E+00 0. -1.
</event>
<event>
 7    1  0.4402832E-005  0.2188340E+03  0.7818608E-02  0.1286606E+00
          2   -1    0    0  502    0  0.00000000000E+00  0.00000000000E+00  0.10143491057E+04  0.10143491057E+04  0.00000000000E+00 0. -1.
          1   -1    0    0  501    0 -0.00000000000E+00 -0.00000000000E+00 -0.25347914916E+03  0.25347914916E+03  0.00000000000E+00 0. -1.
         25    2    1    2    0    0  0.20862359293E+03  0.46877360520E+02 -0.12364152380E+03  0.27682560543E+03  0.12499559574E+03 0.  0.
          2    1    1    2  501    0 -0.22203750954E+03 -0.87782199279E+02  0.21864725882E+03  0.32374834971E+03  0.00000000000E+00 0. -1.
          1    1    1    2  502    0  0.13413916609E+02  0.40904838759E+02  0.66586422150E+03  0.66725429970E+03  0.00000000000E+00 0. -1.
         22    1    3    3    0    0  0.92551174778E+02  0.12693585400E+02  0.12990286133E+02  0.94316459840E+02  0.00000000000E+00 0.  1.
         22    1    3    3    0    0  0.11607241816E+03  0.34183775120E+02 -0.13663180993E+03  0.18250914559E+03  0.00000000000E+00 0.  1.
</event>
<event>
 7    1  0.4402832E-005  0.1813148E+03  0.7818608E-02  0.1354701E+00
          2   -1    0    0  502    0  0.00000000000E+00  0.00000000000E+00  0.12858665653E+04  0.12858665653E+04  0.00000000000E+00 0. -1.
          1   -1    0    0  501    0 -0.00000000000E+00 -0.00000000000E+00 -0.86938192909E+03  0.86938192909E+03  0.00000000000E+00 0. -1.
         25    2    1    2    0    0 -0.44339412583E+02  0.18120195336E+03 -0.73946627572E+03  0.77281081319E+03  0.12500419454E+03 0.  0.
          2    1    1    2  501    0  0.23958302221E+02 -0.16159309298E+03 -0.54078394931E+02  0.17207789150E+03  0.00000000000E+00 0. -1.
          1    1    1    2  502    0  0.20381110362E+02 -0.19608860385E+02  0.12100293069E+04  0.12103597897E+04  0.00000000000E+00 0. -1.
         22    1    3    3    0    0  0.14229746569E+02  0.70025899647E+02 -0.11176923934E+03  0.13265924457E+03  0.00000000000E+00 0. -1.
         22    1    3    3    0    0 -0.58569159152E+02  0.11117605372E+03 -0.62769703638E+03  0.64015156862E+03  0.00000000000E+00 0. -1.
</event>
<event>
 7    1  0.4592660E-005  0.5137971E+03  0.7818608E-02  0.1100514E+00
          2   -1    0    0  502    0  0.00000000000E+00  0.00000000000E+00  0.14483023447E+04  0.14483023447E+04  0.00000000000E+00 0. -1.
          1   -1    0    0  501    0 -0.00000000000E+00 -0.00000000000E+00 -0.14424137645E+04  0.14424137645E+04  0.00000000000E+00 0. -1.
         25    2    1    2    0    0 -0.35183878721E+03  0.24280565268E+03 -0.37296739142E+03  0.58092482572E+03  0.12499544358E+03 0.  0.
          2    1    1    2  501    0 -0.26507279475E+01  0.14327451020E+03 -0.90854864644E+03  0.91978000336E+03  0.00000000000E+00 0. -1.
          1    1    1    2  502    0  0.35448951516E+03 -0.38608016288E+03  0.12874046180E+04  0.13900112802E+04  0.00000000000E+00 0. -1.
         22    1    3    3    0    0 -0.30847481584E+03  0.21823824434E+03 -0.37318401819E+03  0.53108469638E+03  0.00000000000E+00 0. -1.
         22    1    3    3    0    0 -0.43363971367E+02  0.24567408334E+02  0.21662676533E+00  0.49840129335E+02  0.00000000000E+00 0. -1.
</event>
<event>
 7    1  0.4402832E-005  0.4451059E+03  0.7818608E-02  0.1248819E+00
          2   -1    0    0  502    0  0.00000000000E+00  0.00000000000E+00  0.16630047412E+04  0.16630047412E+04  0.00000000000E+00 0. -1.
          1   -1    0    0  501    0 -0.00000000000E+00 -0.00000000000E+00 -0.22760346787E+03  0.22760346787E+03  0.00000000000E+00 0. -1.
         25    2    1    2    0    0  0.38487099336E+03 -0.17280218495E+03  0.22247604824E+03  0.49305202716E+03  0.12497372841E+03 0.  0.
          2    1    1    2  501    0  0.29804126960E+02 -0.66766587470E+01 -0.48684101621E+02  0.57471780088E+02  0.00000000000E+00 0. -1.
          1    1    1    2  502    0 -0.41467512032E+03  0.17947884370E+03  0.12616093267E+04  0.13400844018E+04  0.00000000000E+00 0. -1.
         22    1    3    3    0    0  0.14006006866E+03 -0.56307269419E+02  0.15078634865E+02  0.15170595457E+03  0.00000000000E+00 0.  1.
         22    1    3    3    0    0  0.24481092470E+03 -0.11649491553E+03  0.20739741338E+03  0.34134607259E+03  0.00000000000E+00 0.  1.
</event>
<event>
 7    1  0.4402832E-005  0.8938889E+02  0.7818608E-02  0.1412993E+00
          2   -1    0    0  502    0  0.00000000000E+00  0.00000000000E+00  0.35244182452E+04  0.35244182452E+04  0.00000000000E+00 0. -1.
          1   -1    0    0  501    0 -0.00000000000E+00 -0.00000000000E+00 -0.13993217381E+02  0.13993217381E+02  0.00000000000E+00 0. -1.
         25    2    1    2    0    0  0.10257078432E+03  0.65988319631E+02  0.31865682422E+04  0.31913504194E+04  0.12500045303E+03 0.  0.
          2    1    1    2  501    0 -0.69196808175E+02 -0.53168867464E+02  0.20141544351E+03  0.21950696484E+03  0.00000000000E+00 0. -1.
          1    1    1    2  502    0 -0.33373976141E+02 -0.12819452167E+02  0.12244134214E+03  0.12755407835E+03  0.00000000000E+00 0. -1.
         22    1    3    3    0    0  0.70568268130E+02 -0.26417420863E+02  0.11832300576E+04  0.11856268932E+04  0.00000000000E+00 0. -1.
         22    1    3    3    0    0  0.32002516185E+02  0.92405740495E+02  0.20033381846E+04  0.20057235262E+04  0.00000000000E+00 0. -1.
</event>
<event>
 7    1  0.4402832E-005  0.3583485E+03  0.7818608E-02  0.1279224E+00
          2   -1    0    0  502    0  0.00000000000E+00  0.00000000000E+00  0.44424152908E+03  0.44424152908E+03  0.00000000000E+00 0. -1.
          1   -1    0    0  501    0 -0.00000000000E+00 -0.00000000000E+00 -0.56119377994E+03  0.56119377994E+03  0.00000000000E+00 0. -1.
         25    2    1    2    0    0  0.15251338298E+02  0.36349703060E+03 -0.95856204846E+02  0.39645440677E+03  0.12499996024E+03 0.  0.
          2    1    1    2  501    0 -0.41289247641E+02 -0.35268880005E+03 -0.21362223048E+03  0.41440155526E+03  0.00000000000E+00 0. -1.
          1    1    1    2  502    0  0.26037909344E+02 -0.10808230554E+02  0.19252618446E+03  0.19457934699E+03  0.00000000000E+00 0. -1.
         22    1    3    3    0    0 -0.34654703517E+02  0.30605380051E+03 -0.68037830681E+02  0.31543465834E+03  0.00000000000E+00 0.  1.
         22    1    3    3    0    0  0.49906041815E+02  0.57443230095E+02 -0.27818374165E+02  0.81019748423E+02  0.00000000000E+00 0.  1.
</event>
<event>
 7    1  0.4402832E-005  0.3329255E+03  0.7818608E-02  0.1124759E+00
          2   -1    0    0  502    0  0.00000000000E+00  0.00000000000E+00  0.34294304070E+03  0.34294304070E+03  0.00000000000E+00 0. -1.
          1   -1    0    0  501    0 -0.00000000000E+00 -0.00000000000E+00 -0.22542153829E+04  0.22542153829E+04  0.00000000000E+00 0. -1.
         25    2    1    2    0    0  0.45854182418E+03  0.45613703044E+02 -0.35244625236E+03  0.59345084019E+03  0.12499729795E+03 0.  0.
          2    1    1    2  501    0 -0.16122550920E+03  0.21369781544E+02 -0.16710412055E+04  0.16789368788E+04  0.00000000000E+00 0. -1.
          1    1    1    2  502    0 -0.29731631498E+03 -0.66983484588E+02  0.11221511572E+03  0.32477070459E+03  0.00000000000E+00 0. -1.
         22    1    3    3    0    0  0.13595910709E+03  0.45858051648E+02 -0.17141843679E+03  0.22354444787E+03  0.00000000000E+00 0.  1.
         22    1    3    3    0    0  0.32258271708E+03 -0.24434860456E+00 -0.18102781556E+03  0.36990639231E+03  0.00000000000E+00 0.  1.
</event>
<event>
 7    1  0.4402832E-005  0.5781751E+03  0.7818608E-02  0.1124581E+00
          2   -1    0    0  502    0  0.00000000000E+00  0.00000000000E+00  0.11194717955E+04  0.11194717955E+04  0.00000000000E+00 0. -1.
          1   -1    0    0  501    0 -0.00000000000E+00 -0.00000000000E+00 -0.17696477762E+04  0.17696477762E+04  0.00000000000E+00 0. -1.
         25    2    1    2    0    0 -0.58122997457E+03  0.20163090742E+03  0.29682673723E+03  0.69441678493E+03  0.12500101235E+03 0.  0.
          2    1    1    2  501    0  0.56434435393E+03 -0.10930553994E+03 -0.15142793321E+04  0.16197142176E+04  0.00000000000E+00 0. -1.
          1    1    1    2  502    0  0.16885620642E+02 -0.92325367477E+02  0.56727661423E+03  0.57498856921E+03  0.00000000000E+00 0. -1.
         22    1    3    3    0    0 -0.28400192634E+03  0.34164422553E+02  0.15015898916E+03  0.32306659369E+03  0.00000000000E+00 0.  1.
         22    1    3    3    0    0 -0.29722804823E+03  0.16746648486E+03  0.14666774807E+03  0.37135019124E+03  0.00000000000E+00 0.  1.
</event>
<event>
 7    1  0.4402832E-005  0.5337510E+03  0.7818608E-02  0.1223251E+00
          2   -1    0    0  502    0  0.00000000000E+00  0.00000000000E+00  0.46398031963E+04  0.46398031963E+04  0.00000000000E+00 0. -1.
          1   -1    0    0  501    0 -0.00000000000E+00 -0.00000000000E+00 -0.11562516318E+03  0.11562516318E+03  0.00000000000E+00 0. -1.
         25    2    1    2    0    0 -0.72634707711E+02  0.51202255208E+03  0.35461406824E+04  0.35858306631E+04  0.12499963964E+03 0.  0.
          2    1    1    2  501    0  0.10177263625E+03 -0.52768079054E+03  0.66585578627E+03  0.85566851894E+03  0.00000000000E+00 0. -1.
          1    1    1    2  502    0 -0.29137928540E+02  0.15658238459E+02  0.31218156444E+03  0.31392917750E+03  0.00000000000E+00 0. -1.
         22    1    3    3    0    0 -0.36320104282E+02  0.48458034788E+03  0.32863298176E+04  0.33220627528E+04  0.00000000000E+00 0. -1.
         22    1    3    3    0    0 -0.36314603429E+02  0.27442204202E+02  0.25981086488E+03  0.26376791030E+03  0.00000000000E+00 0. -1.
</event>
<event>
 7    1  0.4402832E-005  0.5692758E+03  0.7818608E-02  0.1188664E+00
          2   -1    0    0  502    0  0.00000000000E+00  0.00000000000E+00  0.51299532315E+03  0.51299532315E+03  0.00000000000E+00 0. -1.
          1   -1    0    0  501    0 -0.00000000000E+00 -0.00000000000E+00 -0.22322581954E+04  0.22322581954E+04  0.00000000000E+00 0. -1.
         25    2    1    2    0    0 -0.44314125042E+03  0.33812191770E+03 -0.51758203991E+03  0.77085449401E+03  0.12499953533E+03 0.  0.
          2    1    1    2  501    0  0.48116057996E+03 -0.31407535149E+03 -0.15345012758E+04  0.16385521034E+04  0.00000000000E+00 0. -1.
          1    1    1    2  502    0 -0.38019329539E+02 -0.24046566212E+02  0.33282044353E+03  0.33584692108E+03  0.00000000000E+00 0. -1.
         22    1    3    3    0    0 -0.39090290992E+03  0.25810071786E+03 -0.47197273442E+03  0.66496565894E+03  0.00000000000E+00 0.  1.
         22    1    3    3    0    0 -0.52238340504E+02  0.80021199844E+02 -0.45609305494E+02  0.10588883506E+03  0.00000000000E+00 0.  1.
</event>
<event>
 7    1  0.4402832E-005  0.1002362E+03  0.7818608E-02  0.1332381E+00
          2   -1    0    0  502    0  0.00000000000E+00  0.00000000000E+00  0.13301562072E+04  0.13301562072E+04  0.00000000000E+00 0. -1.
          1   -1    0    0  501    0 -0.00000000000E+00 -0.00000000000E+00 -0.20871203084E+02  0.20871203084E+02  0.00000000000E+00 0. -1.
         25    2    1    2    0    0  0.74562281193E+02  0.11928110153E+03  0.74218123625E+03  0.76566568466E+03  0.12499375292E+03 0.  0.
          2    1    1    2  501    0 -0.16684645865E+02 -0.59721175649E+02  0.24231711270E+03  0.25012512736E+03  0.00000000000E+00 0. -1.
          1    1    1    2  502    0 -0.57877635328E+02 -0.59559925881E+02  0.32478665518E+03  0.33523659828E+03  0.00000000000E+00 0. -1.
         22    1    3    3    0    0 -0.30722415157E+02  0.41139511272E+02  0.13373590651E+03  0.14325368711E+03  0.00000000000E+00 0. -1.
         22    1    3    3    0    0  0.10528469635E+03  0.78141590258E+02  0.60844532974E+03  0.62241199755E+03  0.00000000000E+00 0. -1.
</event>
<event>
 7    1  0.4402832E-005  0.4365119E+02  0.7818608E-02  0.1505099E+00
          2   -1    0    0  502    0  0.00000000000E+00  0.00000000000E+00  0.60278912675E+03  0.60278912675E+03  0.00000000000E+00 0. -1.
          1   -1    0    0  501    0 -0.00000000000E+00 -0.00000000000E+00 -0.43808770895E+03  0.43808770895E+03  0.00000000000E+00 0. -1.
         25    2    1    2    0    0  0.33100798141E+01  0.56380254437E+01 -0.58673036405E+02  0.13823393945E+03  0.12499341125E+03 0.  0.
          2    1    1    2  501    0  0.19754760303E+02  0.31803362318E+02 -0.33773953547E+03  0.33980832572E+03  0.00000000000E+00 0. -1.
          1    1    1    2  502    0 -0.23064840117E+02 -0.37441387761E+02  0.56111398967E+03  0.56283457052E+03  0.00000000000E+00 0. -1.
         22    1    3    3    0    0 -0.57116990751E+01 -0.56675326554E+02 -0.82245284999E+01  0.57553097357E+02  0.00000000000E+00 0.  1.
         22    1    3    3    0    0  0.90217788891E+01  0.62313351998E+02 -0.50448507905E+02  0.80680842096E+02  0.00000000000E+00 0.  1.
</event>
<event>
 7    1  0.4402832E-005  0.4748808E+03  0.7818608E-02  0.1186051E+00
          2   -1    0    0  502    0  0.00000000000E+00  0.00000000000E+00  0.15242447391E+04  0.15242447391E+04  0.00000000000E+00 0. -1.
          1   -1    0    0  501    0 -0.00000000000E+00 -0.00000000000E+00 -0.92653697704E+03  0.92653697704E+03  0.00000000000E+00 0. -1.
         25    2    1    2    0    0  0.43995014117E+03  0.15187015782E+03 -0.40686006341E+03  0.63069877161E+03  0.12500063105E+03 0.  0.
          2    1    1    2  501    0 -0.44264291376E+03 -0.20731926652E+03 -0.26044934358E+03  0.55384825354E+03  0.00000000000E+00 0. -1.
          1    1    1    2  502    0  0.26927725935E+01  0.55449108704E+02  0.12650171691E+04  0.12662346910E+04  0.00000000000E+00 0. -1.
         22    1    3    3    0    0  0.11970674888E+03 -0.15213560989E+02 -0.10538053610E+03  0.16020678998E+03  0.00000000000E+00 0.  1.
         22    1    3    3    0    0  0.32024339229E+03  0.16708371881E+03 -0.30147952731E+03  0.47049198163E+03  0.00000000000E+00 0.  1.
</event>
<event>
 7    1  0.4402832E-005  0.2486555E+03  0.7818608E-02  0.1133471E+00
          2   -1    0    0  502    0  0.00000000000E+00  0.00000000000E+00  0.17009473470E+04  0.17009473470E+04  0.00000000000E+00 0. -1.
          1   -1    0    0  501    0 -0.00000000000E+00 -0.00000000000E+00 -0.11653935009E+03  0.11653935009E+03  0.00000000000E+00 0. -1.
         25    2    1    2    0    0 -0.89686304217E+02  0.26770388656E+03  0.93150895083E+03  0.98134765928E+03  0.12500119540E+03 0.  0.
          2    1    1    2  501    0 -0.12942466324E+03 -0.14669395679E+03  0.80758018826E+02  0.21164053963E+03  0.00000000000E+00 0. -1.
          1    1    1    2  502    0  0.21911096746E+03 -0.12100992978E+03  0.57214102726E+03  0.62449849819E+03  0.00000000000E+00 0. -1.
         22    1    3    3    0    0 -0.90454051762E+02  0.28058226595E+03  0.87296561958E+03  0.92139965076E+03  0.00000000000E+00 0. -1.
         22    1    3    3    0    0  0.76774754466E+00 -0.12878379388E+02  0.58543331248E+02  0.59948008520E+02  0.00000000000E+00 0. -1.
</event>
<event>
 7    1  0.4402832E-005  0.1421888E+03  0.7818608E-02  0.1214816E+00
          2   -1    0    0  502    0  0.00000000000E+00  0.00000000000E+00  0.93521798364E+03  0.93521798364E+03  0.00000000000E+00 0. -1.
          1   -1    0    0  501    0 -0.00000000000E+00 -0.00000000000E+00 -0.13717660913E+03  0.13717660913E+03  0.00000000000E+00 0. -1.
         25    2    1    2    0    0 -0.35284014900E+02 -0.16908669110E+03  0.33605602581E+03  0.39798751676E+03  0.12500056081E+03 0.  0.
          2    1    1    2  501    0 -0.93562802000E+02  0.98272219928E+02 -0.47786016457E+02  0.14385732688E+03  0.00000000000E+00 0. -1.
          1    1    1    2  502    0  0.12884681690E+03  0.70814471175E+02  0.50977136516E+03  0.53054974912E+03  0.00000000000E+00 0. -1.
         22    1    3    3    0    0 -0.51711210937E+02 -0.53101363965E+02  0.22374785470E+03  0.23570512654E+03  0.00000000000E+00 0. -1.
         22    1    3    3    0    0  0.16427196036E+02 -0.11598532714E+03  0.11230817110E+03  0.16228239023E+03  0.00000000000E+00 0. -1.
</event>
<event>
 7    1  0.4402832E-005  0.9515684E+02  0.7818608E-02  0.1297926E+00
          2   -1    0    0  502    0  0.00000000000E+00  0.00000000000E+00  0.79966852110E+03  0.79966852110E+03  0.00000000000E+00 0. -1.
          1   -1    0    0  501    0 -0.00000000000E+00 -0.00000000000E+00 -0.51879376634E+03  0.51879376634E+03  0.00000000000E+00 0. -1.
         25    2    1    2    0    0 -0.27306376565E+02  0.15928137505E+03 -0.17672924225E+03  0.27013858601E+03  0.12500174378E+03 0.  0.
          2    1    1    2  501    0  0.56027500870E+02 -0.69246479995E+02 -0.28558314547E+03  0.29915194939E+03  0.00000000000E+00 0. -1.
          1    1    1    2  502    0 -0.28721124305E+02 -0.90034895051E+02  0.74318714248E+03  0.74917175204E+03  0.00000000000E+00 0. -1.
         22    1    3    3    0    0 -0.75197129234E+01  0.20035084706E+02  0.19338329875E+02  0.28843052959E+02  0.00000000000E+00 0.  1.
         22    1    3    3    0    0 -0.19786663642E+02  0.13924629034E+03 -0.19606757212E+03  0.24129553305E+03  0.00000000000E+00 0.  1.
</event>
<event>
 7    1  0.4402832E-005  0.1608309E+04  0.7818608E-02  0.1099964E+00
          2   -1    0    0  502    0  0.00000000000E+00  0.00000000000E+00  0.25899709456E+04  0.25899709456E+04  0.00000000000E+00 0. -1.
          1   -1    0    0  501    0 -0.00000000000E+00 -0.00000000000E+00 -0.27072051831E+04  0.27072051831E+04  0.00000000000E+00 0. -1.
         25    2    1    2    0    0 -0.87821001393E+03 -0.13761356717E+04 -0.93509296749E+03  0.18854775800E+04  0.12499852561E+03 0.  0.
          2    1    1    2  501    0  0.45705350258E+02  0.60670023202E+01 -0.99247551830E+03  0.99354589325E+03  0.00000000000E+00 0. -1.
          1    1    1    2  502    0  0.83250466368E+03  0.13700686694E+04  0.18103342483E+04  0.24181526554E+04  0.00000000000E+00 0. -1.
         22    1    3    3    0    0 -0.73315700045E+03 -0.12250926604E+04 -0.80741843836E+03  0.16402121047E+04  0.00000000000E+00 0. -1.
         22    1    3    3    0    0 -0.14505301349E+03 -0.15104301130E+03 -0.12767452913E+03  0.24526547530E+03  0.00000000000E+00 0. -1.
</event>
<event>
 7    1  0.4402832E-005  0.5343441E+03  0.7818608E-02  0.1185532E+00
          2   -1    0    0  502    0  0.00000000000E+00  0.00000000000E+00  0.35562377513E+03  0.35562377513E+03  0.00000000000E+00 0. -1.
          1   -1    0    0  501    0 -0.00000000000E+00 -0.00000000000E+00 -0.46542079285E+04  0.46542079285E+04  0.00000000000E+00 0. -1.
         25    2    1    2    0    0  0.35224756782E+02 -0.56928448171E+03 -0.94758802836E+03  0.11130468963E+04  0.12499886932E+03 0.  0.
          2    1    1    2  501    0 -0.23232278569E+02  0.43848127009E+02 -0.33704851288E+04  0.33708503973E+04  0.00000000000E+00 0. -1.
          1    1    1    2  502    0 -0.11992478214E+02  0.52543635470E+03  0.19489003840E+02  0.52593441002E+03  0.00000000000E+00 0. -1.
         22    1    3    3    0    0  0.11285078274E+02 -0.54985112310E+03 -0.91903638382E+03  0.10710235690E+04  0.00000000000E+00 0.  1.
         22    1    3    3    0    0  0.23939678509E+02 -0.19433358602E+02 -0.28551644539E+02  0.42023327326E+02  0.00000000000E+00 0.  1.
</event>
<event>
 7    1  0.4402832E-005  0.4023353E+03  0.7818608E-02  0.1069973E+00
          2   -1    0    0  502    0  0.00000000000E+00  0.00000000000E+00  0.35220905789E+04  0.35220905789E+04  0.00000000000E+00 0. -1.
          1   -1    0    0  501    0 -0.00000000000E+00 -0.00000000000E+00 -0.95877460244E+03  0.95877460244E+03  0.00000000000E+00 0. -1.
         25    2    1    2    0    0  0.40690267178E+03  0.10020560522E+03  0.23510919908E+03  0.49649601568E+03  0.12498404086E+03 0.  0.
          2    1    1    2  501    0 -0.35774671621E+02 -0.27268754693E+03 -0.79150685553E+03  0.83792686299E+03  0.00000000000E+00 0. -1.
          1    1    1    2  502    0 -0.37112800016E+03  0.17248194171E+03  0.31197136329E+04  0.31464423026E+04  0.00000000000E+00 0. -1.
         22    1    3    3    0    0  0.58245180134E+02 -0.24831644628E+02  0.58259794122E+02  0.86042519692E+02  0.00000000000E+00 0. -1.
         22    1    3    3    0    0  0.34865749165E+03  0.12503724985E+03  0.17684940496E+03  0.41045349599E+03  0.00000000000E+00 0. -1.
</event>
<event>
 7    1  0.4402832E-005  0.3035417E+03  0.7818608E-02  0.1180523E+00
          2   -1    0    0  502    0  0.00000000000E+00  0.00000000000E+00  0.74051195188E+03  0.74051195188E+03  0.00000000000E+00 0. -1.
          1   -1    0    0  501    0 -0.00000000000E+00 -0.00000000000E+00 -0.52475894980E+03  0.52475894980E+03  0.00000000000E+00 0. -1.
         25    2    1    2    0    0 -0.21346865007E+03 -0.13143193407E+03  0.26006224370E+03  0.38223193281E+03  0.12500264797E+03 0.  0.
          2    1    1    2  501    0  0.21966319256E+03  0.22360959980E+03 -0.40418913374E+03  0.51149000687E+03  0.00000000000E+00 0. -1.
          1    1    1    2  502    0 -0.61945424905E+01 -0.92177665729E+02  0.35987989212E+03  0.37154896201E+03  0.00000000000E+00 0. -1.
         22    1    3    3    0    0 -0.17254968055E+03 -0.89006228394E+02  0.25846890123E+03  0.32326718648E+03  0.00000000000E+00 0. -1.
         22    1    3    3    0    0 -0.40918969525E+02 -0.42425705678E+02  0.15933424690E+01  0.58964746327E+02  0.00000000000E+00 0. -1.
</event>
<event>
 7    1  0.4402832E-005  0.1051959E+03  0.7818608E-02  0.1306267E+00
          2   -1    0    0  502    0  0.00000000000E+00  0.00000000000E+00  0.91451832926E+02  0.91451832926E+02  0.00000000000E+00 0. -1.
          1   -1    0    0  501    0 -0.00000000000E+00 -0.00000000000E+00 -0.34709698584E+03  0.34709698584E+03  0.00000000000E+00 0. -1.
         25    2    1    2    0    0  0.29335959270E+02  0.12147612755E+03 -0.10234740121E+03  0.20424742307E+03  0.12499988490E+03 0.  0.
          2    1    1    2  501    0 -0.69105812033E+02 -0.28176964113E+02 -0.78252277052E+02  0.10813405304E+03  0.00000000000E+00 0. -1.
          1    1    1    2  502    0  0.39769852763E+02 -0.93299163438E+02 -0.75045474658E+02  0.12616734266E+03  0.00000000000E+00 0. -1.
         22    1    3    3    0    0  0.36435319017E+02  0.25989867045E+02  0.19888120300E+02  0.48974922052E+02  0.00000000000E+00 0.  1.
         22    1    3    3    0    0 -0.70993597468E+01  0.95486260506E+02 -0.12223552151E+03  0.15527250102E+03  0.00000000000E+00 0.  1.
</event>
<event>
 7    1  0.4402832E-005  0.3408693E+03  0.7818608E-02  0.1098373E+00
          2   -1    0    0  502    0  0.00000000000E+00  0.00000000000E+00  0.71088855005E+03  0.71088855005E+03  0.00000000000E+00 0. -1.
          1   -1    0    0  501    0 -0.00000000000E+00 -0.00000000000E+00 -0.86569566342E+03  0.86569566342E+03  0.00000000000E+00 0. -1.
         25    2    1    2    0    0 -0.22581057883E+03 -0.40974154290E+03 -0.31257755746E+03  0.57637516094E+03  0.12500018896E+03 0.  0.
          2    1    1    2  501    0  0.20748762599E+03  0.79191886014E+02 -0.33777926176E+03  0.40424905618E+03  0.00000000000E+00 0. -1.
          1    1    1    2  502    0  0.18322952837E+02  0.33054965688E+03  0.49554970585E+03  0.59595999634E+03  0.00000000000E+00 0. -1.
         22    1    3    3    0    0 -0.53851645562E+02 -0.20459119924E+03 -0.17942388641E+03  0.27739951252E+03  0.00000000000E+00 0.  1.
         22    1    3    3    0    0 -0.17195893326E+03 -0.20515034366E+03 -0.13315367105E+03  0.29897564842E+03  0.00000000000E+00 0.  1.
</event>
<event>
 7    1  0.4402832E-005  0.2569846E+03  0.7818608E-02  0.1270773E+00
          2   -1    0    0  502    0  0.00000000000E+00  0.00000000000E+00  0.89351399998E+03  0.89351399998E+03  0.00000000000E+00 0. -1.
          1   -1    0    0  501    0 -0.00000000000E+00 -0.00000000000E+00 -0.20463614110E+03  0.20463614110E+03  0.00000000000E+00 0. -1.
         25    2    1    2    0    0 -0.19777283281E+03 -0.13197529577E+03  0.27517477554E+03  0.38454704485E+03  0.12499480197E+03 0.  0.
          2    1    1    2  501    0  0.19853327904E+03  0.17459996452E+03 -0.31595519051E+02  0.26626844973E+03  0.00000000000E+00 0. -1.
          1    1    1    2  502    0 -0.76044622954E+00 -0.42624668751E+02  0.44529860239E+03  0.44733464650E+03  0.00000000000E+00 0. -1.
         22    1    3    3    0    0 -0.73377030771E+02 -0.12378875789E+03  0.15114789191E+03  0.20869482613E+03  0.00000000000E+00 0.  1.
         22    1    3    3    0    0 -0.12439580204E+03 -0.81865378872E+01  0.12402688363E+03  0.17585221873E+03  0.00000000000E+00 0.  1.
</event>
<event>
 7    1  0.4402832E-005  0.8969080E+02  0.7818608E-02  0.1309481E+00
          2   -1    0    0  502    0  0.00000000000E+00  0.00000000000E+00  0.18786959694E+03  0.18786959694E+03  0.00000000000E+00 0. -1.
          1   -1    0    0  501    0 -0.00000000000E+00 -0.00000000000E+00 -0.79266252398E+03  0.79266252398E+03  0.00000000000E+00 0. -1.
         25    2    1    2    0    0 -0.32564818645E+01 -0.10867358737E+03  0.32920099496E+02  0.16890423077E+03  0.12499741180E+03 0.  0.
          2    1    1    2  501    0  0.70346190318E+02  0.56471139686E+02 -0.70028745369E+03  0.70607371705E+03  0.00000000000E+00 0. -1.
          1    1    1    2  502    0 -0.67089708454E+02  0.52202447684E+02  0.62574427158E+02  0.10555417310E+03  0.00000000000E+00 0. -1.
         22    1    3    3    0    0  0.41364395591E+02 -0.10013203296E+03  0.51330816827E+02  0.11988448609E+03  0.00000000000E+00 0.  1.
         22    1    3    3    0    0 -0.44620877456E+02 -0.85415544061E+01 -0.18410717331E+02  0.49019744687E+02  0.00000000000E+00 0.  1.
</event>
<event>
 7    1  0.4402832E-005  0.5074942E+03  0.7818608E-02  0.1038780E+00
          2   -1    0    0  502    0  0.00000000000E+00  0.00000000000E+00  0.12593233631E+04  0.12593233631E+04  0.00000000000E+00 0. -1.
          1   -1    0    0  501    0 -0.00000000000E+00 -0.00000000000E+00 -0.14198052879E+04  0.14198052879E+04  0.00000000000E+00 0. -1.
         25    2    1    2    0    0  0.28700088665E+03  0.31379251486E+03 -0.20432791686E+02  0.44370943819E+03  0.12500126097E+03 0.  0.
          2    1    1    2  501    0 -0.23762316932E+03  0.24177294763E+03 -0.10857788196E+04  0.11374684935E+04  0.00000000000E+00 0. -1.
          1    1    1    2  502    0 -0.49377717330E+02 -0.55556546250E+03  0.94572968650E+03  0.10979507193E+04  0.00000000000E+00 0. -1.
         22    1    3    3    0    0  0.98148474567E+02  0.15262369756E+03  0.45003327896E+02  0.18695565153E+03  0.00000000000E+00 0. -1.
         22    1    3    3    0    0  0.18885241209E+03  0.16116881731E+03 -0.65436119583E+02  0.25675378667E+03  0.00000000000E+00 0. -1.
</event>
<event>
 7    1  0.4402832E-005  0.4618227E+03  0.7818608E-02  0.1090603E+00
          2   -1    0    0  502    0  0.00000000000E+00  0.00000000000E+00  0.64233864606E+03  0.64233864606E+03  0.00000000000E+00 0. -1.
          1   -1    0    0  501    0 -0.00000000000E+00 -0.00000000000E+00 -0.10591388257E+04  0.10591388257E+04  0.00000000000E+00 0. -1.
         25    2    1    2    0    0  0.36643451731E+03 -0.14562255934E+03 -0.15011539074E+02  0.41392193573E+03  0.12500334920E+03 0.  0.
          2    1    1    2  501    0 -0.49337128155E+03  0.15900241915E+02 -0.74826532298E+03  0.89642012066E+03  0.00000000000E+00 0. -1.
          1    1    1    2  502    0  0.12693676425E+03  0.12972231742E+03  0.34647668238E+03  0.39113541541E+03  0.00000000000E+00 0. -1.
         22    1    3    3    0    0  0.26435954184E+03 -0.11276763632E+03 -0.66453469243E+02  0.29498910274E+03  0.00000000000E+00 0.  1.
         22    1    3    3    0    0  0.10207497547E+03 -0.32854923020E+02  0.51441930168E+02  0.11893283299E+03  0.00000000000E+00 0.  1.
</event>
<event>
 7    1  0.4402832E-005  0.4912662E+03  0.7818608E-02  0.1138207E+00
          2   -1    0    0  502    0  0.00000000000E+00  0.00000000000E+00  0.20402727353E+04  0.20402727353E+04  0.00000000000E+00 0. -1.
          1   -1    0    0  501    0 -0.00000000000E+00 -0.00000000000E+00 -0.19137009424E+03  0.19137009424E+03  0.00000000000E+00 0. -1.
         25    2    1    2    0    0 -0.57011429921E+02 -0.44135303611E+03  0.88615373518E+03  0.99946686899E+03  0.12499109654E+03 0.  0.
          2    1    1    2  501    0  0.29013417659E+01  0.51758001520E+03  0.38032092512E+03  0.64229393271E+03  0.00000000000E+00 0. -1.
          1    1    1    2  502    0  0.54110088155E+02 -0.76226979092E+02  0.58242798072E+03  0.58988202779E+03  0.00000000000E+00 0. -1.
         22    1    3    3    0    0 -0.11401073249E+02 -0.37185952149E+03  0.78378692427E+03  0.86760096291E+03  0.00000000000E+00 0.  1.
         22    1    3    3    0    0 -0.45610356672E+02 -0.69493514617E+02  0.10236681092E+03  0.13186590608E+03  0.00000000000E+00 0.  1.
</event>
<event>
 7    1  0.4402832E-005  0.3072234E+03  0.7818608E-02  0.1119755E+00
          2   -1    0    0  502    0  0.00000000000E+00  0.00000000000E+00  0.31314269894E+03  0.31314269894E+03  0.00000000000E+00 0. -1.
          1   -1    0    0  501    0 -0.00000000000E+00 -0.00000000000E+00 -0.12243291056E+04  0.12243291056E+04  0.00000000000E+00 0. -1.
         25    2    1    2    0    0 -0.25280177776E+02 -0.38726891608E+03 -0.39724308676E+03  0.56924788583E+03  0.12499913914E+03 0.  0.
          2    1    1    2  501    0  0.15032432256E+03  0.24745439302E+03 -0.66635200526E+03  0.72653704206E+03  0.00000000000E+00 0. -1.
          1    1    1    2  502    0 -0.12504414479E+03  0.13981452306E+03  0.15240868533E+03  0.24168687669E+03  0.00000000000E+00 0. -1.
         22    1    3    3    0    0 -0.47241062680E+02 -0.47080274749E+02 -0.70502858849E+02  0.97051137960E+02  0.00000000000E+00 0. -1.
         22    1    3    3    0    0  0.21960884904E+02 -0.34018864133E+03 -0.32674022792E+03  0.47219674787E+03  0.00000000000E+00 0. -1.
</event>
<event>
 7    1  0.4402832E-005  0.1735138E+03  0.7818608E-02  0.1221190E+00
          2   -1    0    0  502    0  0.00000000000E+00  0.00000000000E+00  0.42974370528E+03  0.42974370528E+03  0.00000000000E+00 0. -1.
          1   -1    0    0  501    0 -0.00000000000E+00 -0.00000000000E+00 -0.12941025595E+04  0.12941025595E+04  0.00000000000E+00 0. -1.
         25    2    1    2    0    0  0.73642585312E+02  0.19564147702E+02  0.12135378245E+03  0.19015139361E+03  0.12499930292E+03 0.  0.
          2    1    1    2  501    0 -0.17720902047E+03 -0.10397812052E+02 -0.12433037706E+04  0.12559121854E+04  0.00000000000E+00 0. -1.
          1    1    1    2  502    0  0.10356643516E+03 -0.91663356500E+01  0.25759113397E+03  0.27778268575E+03  0.00000000000E+00 0. -1.
         22    1    3    3    0    0 -0.12635182546E+02  0.50574759682E+02  0.61688650941E+02  0.80764743606E+02  0.00000000000E+00 0. -1.
         22    1    3    3    0    0  0.86277767858E+02 -0.31010611980E+02  0.59665131505E+02  0.10938665001E+03  0.00000000000E+00 0. -1.
</event>
<event>
 7    1  0.4402832E-005  0.5963463E+03  0.7818608E-02  0.1137942E+00
          2   -1    0    0  502    0  0.00000000000E+00  0.00000000000E+00  0.20285752232E+04  0.20285752232E+04  0.00000000000E+00 0. -1.
          1   -1    0    0  501    0 -0.00000000000E+00 -0.00000000000E+00 -0.52790899075E+03  0.52790899075E+03  0.00000000000E+00 0. -1.
         25    2    1    2    0    0 -0.42283612891E+03 -0.50818406426E+03  0.11910723914E+04  0.13679620279E+04  0.12500093275E+03 0.  0.
          2    1    1    2  501    0  0.36051948948E+03  0.46252092127E+03 -0.23991584819E+03  0.63360833258E+03  0.00000000000E+00 0. -1.
          1    1    1    2  502    0  0.62316639432E+02  0.45663142993E+02  0.54950968928E+03  0.55491385348E+03  0.00000000000E+00 0. -1.
         22    1    3    3    0    0 -0.33283307385E+03 -0.46199330931E+03  0.10486775549E+04  0.11932896912E+04  0.00000000000E+00 0.  1.
         22    1    3    3    0    0 -0.90003055061E+02 -0.46190754954E+02  0.14239483645E+03  0.17467233671E+03  0.00000000000E+00 0.  1.
</event>
<event>
 7    1  0.4402832E-005  0.1371324E+03  0.7818608E-02  0.1247655E+00
          2   -1    0    0  502    0  0.00000000000E+00  0.00000000000E+00  0.45751856382E+03  0.45751856382E+03  0.00000000000E+00 0. -1.
          1   -1    0    0  501    0 -0.00000000000E+00 -0.00000000000E+00 -0.76470627373E+03  0.76470627373E+03  0.00000000000E+00 0. -1.
         25    2    1    2    0    0  0.20299354916E+02 -0.10397889870E+03 -0.61698414042E+03  0.63837110616E+03  0.12499825787E+03 0.  0.
          2    1    1    2  501    0 -0.13887284095E+03  0.35090317725E+02 -0.84559541475E+02  0.16633494042E+03  0.00000000000E+00 0. -1.
          1    1    1    2  502    0  0.11857348603E+03  0.68888580976E+02  0.39435597198E+03  0.41751879097E+03  0.00000000000E+00 0. -1.
         22    1    3    3    0    0  0.57321420955E+02 -0.66475025106E+02 -0.20460647731E+03  0.22263980961E+03  0.00000000000E+00 0. -1.
         22    1    3    3    0    0 -0.37022066039E+02 -0.37503873595E+02 -0.41237766310E+03  0.41573129655E+03  0.00000000000E+00 0. -1.
</event>
<event>
 7    1  0.4402832E-005  0.2665511E+03  0.7818608E-02  0.1130362E+00
          2   -1    0    0  502    0  0.00000000000E+00  0.00000000000E+00  0.71775307303E+03  0.71775307303E+03  0.00000000000E+00 0. -1.
          1   -1    0    0  501    0 -0.00000000000E+00 -0.00000000000E+00 -0.55459999588E+03  0.55459999588E+03  0.00000000000E+00 0. -1.
         25    2    1    2    0    0  0.60718369897E+02  0.99499847349E+02 -0.86742109693E+02  0.19166633467E+03  0.12499940074E+03 0.  0.
          2    1    1    2  501    0  0.11221522351E+03  0.15278977183E+03 -0.35523170458E+03  0.40264939427E+03  0.00000000000E+00 0. -1.
          1    1    1    2  502    0 -0.17293359341E+03 -0.25228961918E+03  0.60512689143E+03  0.67803733998E+03  0.00000000000E+00 0. -1.
         22    1    3    3    0    0  0.44713748041E+02  0.74458328377E+02 -0.11931143168E+03  0.14757567434E+03  0.00000000000E+00 0.  1.
         22    1    3    3    0    0  0.16004621856E+02  0.25041518972E+02  0.32569321985E+02  0.44090660323E+02  0.00000000000E+00 0.  1.
</event>
<event>
 7    1  0.4402832E-005  0.1564035E+04  0.7818608E-02  0.1031670E+00
          2   -1    0    0  502    0  0.00000000000E+00  0.00000000000E+00  0.19693477299E+04  0.19693477299E+04  0.00000000000E+00 0. -1.
          1   -1    0    0  501    0 -0.00000000000E+00 -0.00000000000E+00 -0.23133832523E+04  0.23133832523E+04  0.00000000000E+00 0. -1.
         25    2    1    2    0    0 -0.99762198430E+03  0.11039603027E+04 -0.19077716744E+03  0.15053235929E+04  0.12500087255E+03 0.  0.
          2    1    1    2  501    0 -0.65466993655E+02  0.10306892145E+03 -0.96711112411E+03  0.97478872388E+03  0.00000000000E+00 0. -1.
          1    1    1    2  502    0  0.10630889780E+04 -0.12070292241E+04  0.81385276915E+03  0.18026186654E+04  0.00000000000E+00 0. -1.
         22    1    3    3    0    0 -0.87847863513E+03  0.93040228944E+03 -0.19721853584E+03  0.12947077985E+04  0.00000000000E+00 0. -1.
         22    1    3    3    0    0 -0.11914334917E+03  0.17355801326E+03  0.64413684005E+01  0.21061579439E+03  0.00000000000E+00 0. -1.
</event>
<event>
 7    1  0.4402832E-005  0.5282726E+03  0.7818608E-02  0.1249200E+00
          2   -1    0    0  502    0  0.00000000000E+00  0.00000000000E+00  0.34853221439E+04  0.34853221439E+04  0.00000000000E+00 0. -1.
          1   -1    0    0  501    0 -0.00000000000E+00 -0.00000000000E+00 -0.51276754813E+03  0.51276754813E+03  0.00000000000E+00 0. -1.
         25    2    1    2    0    0  0.53015956772E+03  0.15493171396E+03 -0.82466055528E+02  0.57227479969E+03  0.12499917128E+03 0.  0.
          2    1    1    2  501    0 -0.24530750312E+02 -0.74483714554E+01 -0.16298606878E+03  0.16498998323E+03  0.00000000000E+00 0. -1.
          1    1    1    2  502    0 -0.50562881740E+03 -0.14748334250E+03  0.32180067201E+04  0.32608249091E+04  0.00000000000E+00 0. -1.
         22    1    3    3    0    0  0.37636007610E+03  0.14955810590E+03 -0.17890243983E+02  0.40538203556E+03  0.00000000000E+00 0.  1.
         22    1    3    3    0    0  0.15379949161E+03  0.53736080563E+01 -0.64575811544E+02  0.16689276413E+03  0.00000000000E+00 0.  1.
</event>
<event>
 7    1  0.4402832E-005  0.1779944E+03  0.7818608E-02  0.1346897E+00
          2   -1    0    0  502    0  0.00000000000E+00  0.00000000000E+00  0.28513357028E+03  0.28513357028E+03  0.00000000000E+00 0. -1.
          1   -1    0    0  501    0 -0.00000000000E+00 -0.00000000000E+00 -0.54082326709E+03  0.54082326709E+03  0.00000000000E+00 0. -1.
         25    2    1    2    0    0 -0.14778564098E+03 -0.10298369219E+03 -0.37477492836E+03  0.43419744282E+03  0.12499974355E+03 0.  0.
          2    1    1    2  501    0  0.12483368360E+03  0.12350935321E+03 -0.78094943711E+02  0.19218956559E+03  0.00000000000E+00 0. -1.
          1    1    1    2  502    0  0.22951957383E+02 -0.20525661020E+02  0.19718017526E+03  0.19956982895E+03  0.00000000000E+00 0. -1.
         22    1    3    3    0    0 -0.13475997202E+03 -0.24842728784E+02 -0.27065363264E+03  0.30336578596E+03  0.00000000000E+00 0. -1.
         22    1    3    3    0    0 -0.13025668965E+02 -0.78140963403E+02 -0.10412129572E+03  0.13083165686E+03  0.00000000000E+00 0. -1.
</event>
<event>
 7    1  0.4402832E-005  0.1174175E+03  0.7818608E-02  0.1293605E+00
          2   -1    0    0  502    0  0.00000000000E+00  0.00000000000E+00  0.98682465581E+03  0.98682465581E+03  0.00000000000E+00 0. -1.
          1   -1    0    0  501    0 -0.00000000000E+00 -0.00000000000E+00 -0.44625528356E+02  0.44625528356E+02  0.00000000000E+00 0. -1.
         25    2    1    2    0    0  0.12607245893E+03 -0.63115834206E+01  0.53982823007E+03  0.56830342121E+03  0.12498063686E+03 0.  0.
          2    1    1    2  501    0 -0.24090248946E+02  0.71173836899E+02  0.49067020616E+02  0.89742006136E+02  0.00000000000E+00 0. -1.
          1    1    1    2  502    0 -0.10198220998E+03 -0.64862253479E+02  0.35330387677E+03  0.37340475683E+03  0.00000000000E+00 0. -1.
         22    1    3    3    0    0  0.12857092792E+03 -0.21722970400E+02  0.28974632901E+03  0.31773464734E+03  0.00000000000E+00 0. -1.
         22    1    3    3    0    0 -0.24984689945E+01  0.15411386979E+02  0.25008190106E+03  0.25056877386E+03  0.00000000000E+00 0. -1.
</event>
<event>
 7    1  0.4402832E-005  0.7211215E+03  0.7818608E-02  0.1106750E+00
          2   -1    0    0  502    0  0.00000000000E+00  0.00000000000E+00  0.10160743311E+04  0.10160743311E+04  0.00000000000E+00 0. -1.
          1   -1    0    0  501    0 -0.00000000000E+00 -0.00000000000E+00 -0.16379852464E+04  0.16379852464E+04  0.00000000000E+00 0. -1.
         25    2    1    2    0    0  0.26584297387E+03  0.72353028344E+03  0.10964436455E+03  0.78855265142E+03  0.12499935828E+03 0.  0.
          2    1    1    2  501    0  0.16110117079E+02 -0.92828175610E+02 -0.10852787913E+04  0.10893606661E+04  0.00000000000E+00 0. -1.
          1    1    1    2  502    0 -0.28195309095E+03 -0.63070210783E+03  0.35372351140E+03  0.77614625995E+03  0.00000000000E+00 0. -1.
         22    1    3    3    0    0  0.23366770727E+03  0.67460188317E+03  0.68960140455E+02  0.71724737655E+03  0.00000000000E+00 0. -1.
         22    1    3    3    0    0  0.32175266603E+02  0.48928400273E+02  0.40684224097E+02  0.71305274872E+02  0.00000000000E+00 0. -1.
</event>
<event>
 7    1  0.4402832E-005  0.2416240E+03  0.7818608E-02  0.1203888E+00
          2   -1    0    0  502    0  0.00000000000E+00  0.00000000000E+00  0.30345827146E+04  0.30345827146E+04  0.00000000000E+00 0. -1.
          1   -1    0    0  501    0 -0.00000000000E+00 -0.00000000000E+00 -0.50054923216E+03  0.50054923216E+03  0.00000000000E+00 0. -1.
         25    2    1    2    0    0  0.28368567765E+03  0.77117426314E+02  0.44811544194E+03  0.55032532089E+03  0.12500339340E+03 0.  0.
          2    1    1    2  501    0 -0.20569684305E+03 -0.12151834648E+03 -0.41683400210E+03  0.48044613130E+03  0.00000000000E+00 0. -1.
          1    1    1    2  502    0 -0.77988834595E+02  0.44400920166E+02  0.25027520426E+04  0.25043604946E+04  0.00000000000E+00 0. -1.
         22    1    3    3    0    0 -0.11027171761E+02  0.70227958169E+01  0.60059113331E+01  0.14387117469E+02  0.00000000000E+00 0. -1.
         22    1    3    3    0    0  0.29471284941E+03  0.70094630497E+02  0.44210953061E+03  0.53593820342E+03  0.00000000000E+00 0. -1.
</event>
<event>
 7    1  0.4402832E-005  0.7195292E+03  0.7818608E-02  0.1108628E+00
          2   -1    0    0  502    0  0.00000000000E+00  0.00000000000E+00  0.69284311936E+03  0.69284311936E+03  0.00000000000E+00 0. -1.
          1   -1    0    0  501    0 -0.00000000000E+00 -0.00000000000E+00 -0.91710104037E+03  0.91710104037E+03  0.00000000000E+00 0. -1.
         25    2    1    2    0    0 -0.40470213710E+03 -0.63293416846E+03  0.46588370390E+02  0.76301059687E+03  0.12500085320E+03 0.  0.
          2    1    1    2  501    0  0.31260539494E+03  0.62894059891E+03 -0.27594698116E+03  0.75460926731E+03  0.00000000000E+00 0. -1.
          1    1    1    2  502    0  0.92096742157E+02  0.39935695483E+01  0.51006897547E+01  0.92324295554E+02  0.00000000000E+00 0. -1.
         22    1    3    3    0    0 -0.11804648290E+03 -0.11870505820E+03  0.48444147256E+02  0.17427764736E+03  0.00000000000E+00 0. -1.
         22    1    3    3    0    0 -0.28665565420E+03 -0.51422911026E+03 -0.18557768660E+01  0.58873294950E+03  0.00000000000E+00 0. -1.
</event>
<event>
 7    1  0.4402832E-005  0.6804529E+03  0.7818608E-02  0.1161745E+00
          2   -1    0    0  502    0  0.00000000000E+00  0.00000000000E+00  0.22690960467E+04  0.22690960467E+04  0.00000000000E+00 0. -1.
          1   -1    0    0  501    0 -0.00000000000E+00 -0.00000000000E+00 -0.99357044841E+03  0.99357044841E+03  0.00000000000E+00 0. -1.
         25    2    1    2    0    0 -0.50497470853E+03 -0.48325803840E+03  0.27893934230E+03  0.76286934198E+03  0.12499875329E+03 0.  0.
          2    1    1    2  501    0  0.51767318347E+03  0.43379824379E+03 -0.59938393234E+03  0.90301026547E+03  0.00000000000E+00 0. -1.
          1    1    1    2  502    0 -0.12698474943E+02  0.49459794609E+02  0.15959701883E+04  0.15967868876E+04  0.00000000000E+00 0. -1.
         22    1    3    3    0    0 -0.75647084773E+02 -0.82241632868E+02 -0.17959068125E+01  0.11175595238E+03  0.00000000000E+00 0.  1.
         22    1    3    3    0    0 -0.42932762375E+03 -0.40101640553E+03  0.28073524911E+03  0.65111338960E+03  0.00000000000E+00 0.  1.
</event>
<event>
 7    1  0.4402832E-005  0.2358454E+03  0.7818608E-02  0.1169700E+00
          2   -1    0    0  502    0  0.00000000000E+00  0.00000000000E+00  0.11618053468E+03  0.11618053468E+03  0.00000000000E+00 0. -1.
          1   -1    0    0  501    0 -0.00000000000E+00 -0.00000000000E+00 -0.17020355945E+04  0.17020355945E+04  0.00000000000E+00 0. -1.
         25    2    1    2    0    0 -0.24907207813E+03  0.62066418381E+02 -0.12974061093E+03  0.31360632322E+03  0.12500863749E+03 0.  0.
          2    1    1    2  501    0  0.10374053141E+03  0.85484581475E+02 -0.92200353869E+03  0.93175116683E+03  0.00000000000E+00 0. -1.
          1    1    1    2  502    0  0.14533154672E+03 -0.14755099986E+03 -0.53411091018E+03  0.57285863911E+03  0.00000000000E+00 0. -1.
         22    1    3    3    0    0 -0.23172003238E+03  0.83402370907E+02 -0.14112466304E+03  0.28384203247E+03  0.00000000000E+00 0. -1.
         22    1    3    3    0    0 -0.17352045744E+02 -0.21335952526E+02  0.11384052104E+02  0.29764290752E+02  0.00000000000E+00 0. -1.
</event>
<event>
 7    1  0.4402832E-005  0.1025706E+04  0.7818608E-02  0.1022966E+00
          2   -1    0    0  502    0  0.00000000000E+00  0.00000000000E+00  0.13898039768E+04  0.13898039768E+04  0.00000000000E+00 0. -1.
          1   -1    0    0  501    0 -0.00000000000E+00 -0.00000000000E+00 -0.11354855690E+04  0.11354855690E+04  0.00000000000E+00 0. -1.
         25    2    1    2    0    0  0.99051938290E+03  0.14874451467E+03  0.56199578935E+03  0.11553008204E+04  0.12500855899E+03 0.  0.
          2    1    1    2  501    0 -0.10400039574E+04  0.57396520257E+02 -0.42815132461E+03  0.11261510328E+04  0.00000000000E+00 0. -1.
          1    1    1    2  502    0  0.49484574487E+02 -0.20614103493E+03  0.12047394310E+03  0.24383769266E+03  0.00000000000E+00 0. -1.
         22    1    3    3    0    0  0.35808158558E+03  0.13254279644E+02  0.15010708679E+03  0.38849740715E+03  0.00000000000E+00 0.  1.
         22    1    3    3    0    0  0.63243779732E+03  0.13549023503E+03  0.41188870257E+03  0.76680341325E+03  0.00000000000E+00 0.  1.
</event>
<event>
 7    1  0.4402832E-005  0.7282637E+02  0.7818608E-02  0.1521013E+00
          2   -1    0    0  502    0  0.00000000000E+00  0.00000000000E+00  0.21981801642E+04  0.21981801642E+04  0.00000000000E+00 0. -1.
          1   -1    0    0  501    0 -0.00000000000E+00 -0.00000000000E+00 -0.13608246686E+03  0.13608246686E+03  0.00000000000E+00 0. -1.
         25    2    1    2    0    0  0.45429849396E+02  0.57707349359E+02  0.43481260172E+02  0.15136458083E+03  0.12500642767E+03 0.  0.
          2    1    1    2  501    0 -0.17691177578E+02  0.96565319856E+01 -0.80262876781E+02  0.82754792993E+02  0.00000000000E+00 0. -1.
          1    1    1    2  502    0 -0.27738671818E+02 -0.67363881344E+02  0.20988793139E+04  0.21001432572E+04  0.00000000000E+00 0. -1.
         22    1    3    3    0    0  0.40130069539E+02  0.47705839229E+02  0.86645277943E+02  0.10674115311E+03  0.00000000000E+00 0.  1.
         22    1    3    3    0    0  0.52997798568E+01  0.10001510129E+02 -0.43164017771E+02  0.44623427721E+02  0.00000000000E+00 0.  1.
</event>
<event>
 7    1  0.4402832E-005  0.3681549E+03  0.7818608E-02  0.1097989E+00
          2   -1    0    0  502    0  0.00000000000E+00  0.00000000000E+00  0.29860053382E+04  0.29860053382E+04  0.00000000000E+00 0. -1.
          1   -1    0    0  501    0 -0.00000000000E+00 -0.00000000000E+00 -0.49520474012E+03  0.49520474012E+03  0.00000000000E+00 0. -1.
         25    2    1    2    0    0  0.41388900412E+03  0.17498708953E+02  0.18755117579E+04  0.19247807231E+04  0.12500466173E+03 0.  0.
          2    1    1    2  501    0 -0.32688049290E+03  0.16994940896E+03 -0.38625610094E+03  0.53378594376E+03  0.00000000000E+00 0. -1.
          1    1    1    2  502    0 -0.87008511216E+02 -0.18744811792E+03  0.10015449411E+04  0.10226434114E+04  0.00000000000E+00 0. -1.
         22    1    3    3    0    0  0.44000727122E+02  0.41991753079E+02  0.31777364687E+03  0.32354205594E+03  0.00000000000E+00 0. -1.
         22    1    3    3    0    0  0.36988827700E+03 -0.24493044126E+02  0.15577381110E+04  0.16012386672E+04  0.00000000000E+00 0. -1.
</event>
<event>
 7    1  0.4402832E-005  0.4046371E+03  0.7818608E-02  0.1156002E+00
          2   -1    0    0  502    0  0.00000000000E+00  0.00000000000E+00  0.52396504664E+03  0.52396504664E+03  0.00000000000E+00 0. -1.
          1   -1    0    0  501    0 -0.00000000000E+00 -0.00000000000E+00 -0.21013329228E+04  0.21013329228E+04  0.00000000000E+00 0. -1.
         25    2    1    2    0    0 -0.14673654776E+03  0.35018955274E+03 -0.53967153840E+02  0.40336010283E+03  0.12499032587E+03 0.  0.
          2    1    1    2  501    0  0.66257830243E+02  0.63566664777E+02 -0.17438465225E+04  0.17462621553E+04  0.00000000000E+00 0. -1.
          1    1    1    2  502    0  0.80478717522E+02 -0.41375621752E+03  0.22044580019E+03  0.47567571131E+03  0.00000000000E+00 0. -1.
         22    1    3    3    0    0 -0.33700181532E+02  0.23447668886E+03 -0.46634436232E+02  0.24143278671E+03  0.00000000000E+00 0.  1.
         22    1    3    3    0    0 -0.11303636623E+03  0.11571286388E+03 -0.73327176079E+01  0.16192731612E+03  0.00000000000E+00 0.  1.
</event>
<event>
 7    1  0.4402832E-005  0.3588499E+03  0.7818608E-02  0.1229628E+00
          2   -1    0    0  502    0  0.00000000000E+00  0.00000000000E+00  0.85541744657E+03  0.85541744657E+03  0.00000000000E+00 0. -1.
          1   -1    0    0  501    0 -0.00000000000E+00 -0.00000000000E+00 -0.14634181337E+04  0.14634181337E+04  0.00000000000E+00 0. -1.
         25    2    1    2    0    0  0.26725784366E+03  0.25432646784E+03 -0.45150437812E+03  0.59631407601E+03  0.12500226619E+03 0.  0.
          2    1    1    2  501    0 -0.22566274859E+03 -0.27408145830E+03 -0.90523636287E+03  0.97236680042E+03  0.00000000000E+00 0. -1.
          1    1    1    2  502    0 -0.41595095066E+02  0.19754990452E+02  0.74874005382E+03  0.75015470389E+03  0.00000000000E+00 0. -1.
         22    1    3    3    0    0  0.84909388145E+02  0.13909665489E+02 -0.77841063368E+02  0.11602721291E+03  0.00000000000E+00 0. -1.
         22    1    3    3    0    0  0.18234845551E+03  0.24041680236E+03 -0.37366331475E+03  0.48028686310E+03  0.00000000000E+00 0. -1.
</event>
<event>
 7    1  0.4402832E-005  0.1283552E+04  0.7818608E-02  0.1058406E+00
          2   -1    0    0  502    0  0.00000000000E+00  0.00000000000E+00  0.23238796528E+04  0.23238796528E+04  0.00000000000E+00 0. -1.
          1   -1    0    0  501    0 -0.00000000000E+00 -0.00000000000E+00 -0.88774411989E+03  0.88774411989E+03  0.00000000000E+00 0. -1.
         25    2    1    2    0    0  0.16271278029E+03  0.12930877981E+04  0.94450748584E+03  0.16143947553E+04  0.12499813132E+03 0.  0.
          2    1    1    2  501    0  0.84922774271E+02 -0.55083092849E+02 -0.15004302828E+03  0.18099429561E+03  0.00000000000E+00 0. -1.
          1    1    1    2  502    0 -0.24763555456E+03 -0.12380047052E+04  0.64167107532E+03  0.14162347217E+04  0.00000000000E+00 0. -1.
         22    1    3    3    0    0  0.47378568831E+02  0.10283894082E+03  0.90026865493E+02  0.14465618910E+03  0.00000000000E+00 0. -1.
         22    1    3    3    0    0  0.11533421146E+03  0.11902488573E+04  0.85448062035E+03  0.14697385662E+04  0.00000000000E+00 0. -1.
</event>
<event>
 7    1  0.4402832E-005  0.9528618E+02  0.7818608E-02  0.1450044E+00
          2   -1    0    0  502    0  0.00000000000E+00  0.00000000000E+00  0.56919648256E+03  0.56919648256E+03  0.00000000000E+00 0. -1.
          1   -1    0    0  501    0 -0.00000000000E+00 -0.00000000000E+00 -0.18197056781E+03  0.18197056781E+03  0.00000000000E+00 0. -1.
         25    2    1    2    0    0  0.25631118927E+02 -0.10026038844E+03 -0.13312031175E+02  0.16281930340E+03  0.12499526246E+03 0.  0.
          2    1    1    2  501    0  0.19225149912E+02  0.16508629633E+02 -0.87527086037E+02  0.91121523427E+02  0.00000000000E+00 0. -1.
          1    1    1    2  502    0 -0.44856268839E+02  0.83751758807E+02  0.48806503196E+03  0.49722622354E+03  0.00000000000E+00 0. -1.
         22    1    3    3    0    0  0.72087287744E+02 -0.41221654948E+02 -0.25153428724E+02  0.86766911132E+02  0.00000000000E+00 0. -1.
         22    1    3    3    0    0 -0.46456168816E+02 -0.59038733492E+02  0.11841397549E+02  0.76052392266E+02  0.00000000000E+00 0. -1.
</event>
<event>
 7    1  0.4402832E-005  0.7492289E+03  0.7818608E-02  0.1140193E+00
          2   -1    0    0  502    0  0.00000000000E+00  0.00000000000E+00  0.11292298817E+04  0.11292298817E+04  0.00000000000E+00 0. -1.
          1   -1    0    0  501    0 -0.00000000000E+00 -0.00000000000E+00 -0.16912731987E+04  0.16912731987E+04  0.00000000000E+00 0. -1.
         25    2    1    2    0    0 -0.76199009234E+03 -0.22223718703E+03 -0.22770760208E+03  0.83516009045E+03  0.12499342592E+03 0.  0.
          2    1    1    2  501    0  0.59738295803E+02  0.35227573554E+01 -0.99492427266E+03  0.99672231947E+03  0.00000000000E+00 0. -1.
          1    1    1    2  502    0  0.70225179653E+03  0.21871442967E+03  0.66058855770E+03  0.98862067045E+03  0.00000000000E+00 0. -1.
         22    1    3    3    0    0 -0.61531195467E+03 -0.13094304143E+03 -0.15630417106E+03  0.64821746008E+03  0.00000000000E+00 0.  1.
         22    1    3    3    0    0 -0.14667813766E+03 -0.91294145597E+02 -0.71403431025E+02  0.18694263037E+03  0.00000000000E+00 0.  1.
</event>
<event>
 7    1  0.4402832E-005  0.5673413E+03  0.7818608E-02  0.1022884E+00
          2   -1    0    0  502    0  0.00000000000E+00  0.00000000000E+00  0.93811163167E+03  0.93811163167E+03  0.00000000000E+00 0. -1.
          1   -1    0    0  501    0 -0.00000000000E+00 -0.00000000000E+00 -0.11293796929E+04  0.11293796929E+04  0.00000000000E+00 0. -1.
         25    2    1    2    0    0 -0.58672447582E+03 -0.36690109724E+02 -0.28185541335E+03  0.66382045689E+03  0.12499340092E+03 0.  0.
          2    1    1    2  501    0  0.10129782630E+03  0.37013781081E+03 -0.45890349261E+03  0.59821038451E+03  0.00000000000E+00 0. -1.
          1    1    1    2  502    0  0.48542664952E+03 -0.33344770109E+03  0.54949084476E+03  0.80546048314E+03  0.00000000000E+00 0. -1.
         22    1    3    3    0    0 -0.52630207861E+03 -0.66584137656E+02 -0.22748734244E+03  0.57721557178E+03  0.00000000000E+00 0.  1.
         22    1    3    3    0    0 -0.60422397216E+02  0.29894027932E+02 -0.54368070906E+02  0.86604885112E+02  0.00000000000E+00 0.  1.
</event>
<event>
 7    1  0.4402832E-005  0.1840470E+03  0.7818608E-02  0.1275672E+00
          2   -1    0    0  502    0  0.00000000000E+00  0.00000000000E+00  0.73072892370E+03  0.73072892370E+03  0.00000000000E+00 0. -1.
          1   -1    0    0  501    0 -0.00000000000E+00 -0.00000000000E+00 -0.17444778284E+03  0.17444778284E+03  0.00000000000E+00 0. -1.
         25    2    1    2    0    0 -0.19962799458E+03 -0.88763874405E+02 -0.42648385442E+02  0.25529672608E+03  0.12500868747E+03 0.  0.
          2    1    1    2  501    0  0.22313336559E+02  0.52218281887E+02  0.66147616369E+02  0.87178788148E+02  0.00000000000E+00 0. -1.
          1    1    1    2  502    0  0.17731465803E+03  0.36545592518E+02  0.53278190993E+03  0.56270119232E+03  0.00000000000E+00 0. -1.
         22    1    3    3    0    0 -0.10533392514E+02 -0.58988576452E+02 -0.16043628029E+02  0.62032269909E+02  0.00000000000E+00 0.  1.
         22    1    3    3    0    0 -0.18909460207E+03 -0.29775297953E+02 -0.26604757414E+02  0.19326445617E+03  0.00000000000E+00 0.  1.
</event>
<event>
 7    1  0.4402832E-005  0.1862459E+03  0.7818608E-02  0.1197148E+00
          2   -1    0    0  502    0  0.00000000000E+00  0.00000000000E+00  0.23065142693E+04  0.23065142693E+04  0.00000000000E+00 0. -1.
          1   -1    0    0  501    0 -0.00000000000E+00 -0.00000000000E+00 -0.37455621110E+02  0.37455621110E+02  0.00000000000E+00 0. -1.
         25    2    1    2    0    0  0.49429988142E+02 -0.96613794876E+02  0.43275066103E+03  0.46333275402E+03  0.12500622879E+03 0.  0.
          2    1    1    2  501    0 -0.21257003771E+03  0.67647430040E+01  0.80347761157E+03  0.83114863591E+03  0.00000000000E+00 0. -1.
          1    1    1    2  502    0  0.16314004957E+03  0.89849051872E+02  0.10328303755E+04  0.10494885004E+04  0.00000000000E+00 0. -1.
         22    1    3    3    0    0  0.15740301102E+02 -0.12040267473E+03  0.35695766777E+03  0.37704553802E+03  0.00000000000E+00 0. -1.
         22    1    3    3    0    0  0.33689687040E+02  0.23788879854E+02  0.75792993256E+02  0.86287215996E+02  0.00000000000E+00 0. -1.
</event>
<event>
 7    1  0.4402832E-005  0.9106537E+03  0.7818608E-02  0.9638699E-01
          2   -1    0    0  502    0  0.00000000000E+00  0.00000000000E+00  0.31455670051E+04  0.31455670051E+04  0.00000000000E+00 0. -1.
          1   -1    0    0  501    0 -0.00000000000E+00 -0.00000000000E+00 -0.13377660599E+04  0.13377660599E+04  0.00000000000E+00 0. -1.
         25    2    1    2    0    0 -0.13492026721E+04 -0.18970149820E+03  0.18340651952E+02  0.13683185395E+04  0.12499894954E+03 0.  0.
          2    1    1    2  501    0  0.73505156892E+03  0.19602593364E+03 -0.38702461100E+03  0.85353091634E+03  0.00000000000E+00 0. -1.
          1    1    1    2  502    0  0.61415110315E+03 -0.63244354353E+01  0.21764849042E+04  0.22614836091E+04  0.00000000000E+00 0. -1.
         22    1    3    3    0    0 -0.69105101550E+02  0.17837629688E+02  0.22898367858E+01  0.71406858534E+02  0.00000000000E+00 0.  1.
         22    1    3    3    0    0 -0.12800975705E+04 -0.20753912789E+03  0.16050815166E+02  0.12969116810E+04  0.00000000000E+00 0.  1.
</event>
<event>
 7    1  0.4402832E-005  0.1583987E+03  0.7818608E-02  0.1217486E+00
          2   -1    0    0  502    0  0.00000000000E+00  0.00000000000E+00  0.11554101113E+04  0.11554101113E+04  0.00000000000E+00 0. -1.
          1   -1    0    0  501    0 -0.00000000000E+00 -0.00000000000E+00 -0.66395088034E+02  0.66395088034E+02  0.00000000000E+00 0. -1.
         25    2    1    2    0    0  0.21117591496E+02  0.16403611225E+03  0.35954358027E+03  0.41503000048E+03  0.12499806557E+03 0.  0.
          2    1    1    2  501    0  0.10547169466E+03 -0.53830813336E+02  0.99004489586E+02  0.15435000420E+03  0.00000000000E+00 0. -1.
          1    1    1    2  502    0 -0.12658928615E+03 -0.11020529891E+03  0.63046695344E+03  0.65242519468E+03  0.00000000000E+00 0. -1.
         22    1    3    3    0    0  0.41325841358E+02  0.16885061423E+03  0.25612376284E+03  0.30954440228E+03  0.00000000000E+00 0.  1.
         22    1    3    3    0    0 -0.20208249862E+02 -0.48145019804E+01  0.10341981743E+03  0.10548559821E+03  0.00000000000E+00 0.  1.
</event>
<event>
 7    1  0.4402832E-005  0.4297911E+03  0.7818608E-02  0.1151984E+00
          2   -1    0    0  502    0  0.00000000000E+00  0.00000000000E+00  0.60246918507E+03  0.60246918507E+03  0.00000000000E+00 0. -1.
          1   -1    0    0  501    0 -0.00000000000E+00 -0.00000000000E+00 -0.53191282395E+03  0.53191282395E+03  0.00000000000E+00 0. -1.
         25    2    1    2    0    0  0.39800739369E+03 -0.89982517185E+02  0.16767564478E+03  0.45852809037E+03  0.12500459583E+03 0.  0.
          2    1    1    2  501    0 -0.44114455384E+03  0.10277464148E+02 -0.24327326732E+03  0.50388096436E+03  0.00000000000E+00 0. -1.
          1    1    1    2  502    0  0.43137160153E+02  0.79705053036E+02  0.14615398367E+03  0.17197295429E+03  0.00000000000E+00 0. -1.
         22    1    3    3    0    0  0.33343526240E+03 -0.75740373066E+02  0.84398420455E+02  0.35219138504E+03  0.00000000000E+00 0. -1.
         22    1    3    3    0    0  0.64572131286E+02 -0.14242144119E+02  0.83277224328E+02  0.10633670533E+03  0.00000000000E+00 0. -1.
</event>
<event>
 7    1  0.4402832E-005  0.5610564E+03  0.7818608E-02  0.1172154E+00
          2   -1    0    0  502    0  0.00000000000E+00  0.00000000000E+00  0.28032824461E+04  0.28032824461E+04  0.00000000000E+00 0. -1.
          1   -1    0    0  501    0 -0.00000000000E+00 -0.00000000000E+00 -0.51719118136E+03  0.51719118136E+03  0.00000000000E+00 0. -1.
         25    2    1    2    0    0  0.34867113625E+03 -0.48254888810E+03  0.19059592498E+03  0.63747684526E+03  0.12499972386E+03 0.  0.
          2    1    1    2  501    0 -0.31451828555E+03  0.43950797413E+03 -0.44513556498E+02  0.54228264584E+03  0.00000000000E+00 0. -1.
          1    1    1    2  502    0 -0.34152850698E+02  0.43040913970E+02  0.21400088963E+04  0.21407141364E+04  0.00000000000E+00 0. -1.
         22    1    3    3    0    0  0.16418756974E+03 -0.18298890162E+03  0.13748081515E+03  0.28167973074E+03  0.00000000000E+00 0. -1.
         22    1    3    3    0    0  0.18448356651E+03 -0.29955998648E+03  0.53115109827E+02  0.35579711452E+03  0.00000000000E+00 0. -1.
</event>
<event>
 7    1  0.4402832E-005  0.1967162E+03  0.7818608E-02  0.1184475E+00
          2   -1    0    0  502    0  0.00000000000E+00  0.00000000000E+00  0.56810565012E+03  0.56810565012E+03  0.00000000000E+00 0. -1.
          1   -1    0    0  501    0 -0.00000000000E+00 -0.00000000000E+00 -0.28029807059E+03  0.28029807059E+03  0.00000000000E+00 0. -1.
         25    2    1    2    0    0 -0.14948425135E+03 -0.24092571796E+03  0.68871520074E+02  0.31742577012E+03  0.12500036113E+03 0.  0.
          2    1    1    2  501    0  0.14145493333E+03  0.10477502005E+03 -0.86749331136E+02  0.19624665461E+03  0.00000000000E+00 0. -1.
          1    1    1    2  502    0  0.80293180148E+01  0.13615069791E+03  0.30568539059E+03  0.33473129598E+03  0.00000000000E+00 0. -1.
         22    1    3    3    0    0 -0.37250837874E+02 -0.16467702393E+03  0.88804385293E+01  0.16907101858E+03  0.00000000000E+00 0.  1.
         22    1    3    3    0    0 -0.11223341347E+03 -0.76248694028E+02  0.59991081545E+02  0.14835475155E+03  0.00000000000E+00 0.  1.
</event>
<event>
 7    1  0.4402832E-005  0.1443703E+03  0.7818608E-02  0.1232628E+00
          2   -1    0    0  502    0  0.00000000000E+00  0.00000000000E+00  0.95679042726E+03  0.95679042726E+03  0.00000000000E+00 0. -1.
          1   -1    0    0  501    0 -0.00000000000E+00 -0.00000000000E+00 -0.22589250699E+03  0.22589250699E+03  0.00000000000E+00 0. -1.
         25    2    1    2    0    0 -0.77405780837E+02  0.16963701453E+03  0.11863294381E+03  0.25390444729E+03  0.12500128555E+03 0.  0.
          2    1    1    2  501    0  0.10702802585E+03 -0.29325543210E+02 -0.13106882897E+03  0.17173824189E+03  0.00000000000E+00 0. -1.
          1    1    1    2  502    0 -0.29622245011E+02 -0.14031147132E+03  0.74333380542E+03  0.75704024508E+03  0.00000000000E+00 0. -1.
         22    1    3    3    0    0 -0.74232563969E+02  0.17940703512E+03  0.73479401559E+02  0.20759715860E+03  0.00000000000E+00 0. -1.
         22    1    3    3    0    0 -0.31732168681E+01 -0.97700205908E+01  0.45153542252E+02  0.46307288687E+02  0.00000000000E+00 0. -1.
</event>
<event>
 7    1  0.4402832E-005  0.9901784E+02  0.7818608E-02  0.1445703E+00
          2   -1    0    0  502    0  0.00000000000E+00  0.00000000000E+00  0.65851249225E+03  0.65851249225E+03  0.00000000000E+00 0. -1.
          1   -1    0    0  501    0 -0.00000000000E+00 -0.00000000000E+00 -0.52837328791E+03  0.52837328791E+03  0.00000000000E+00 0. -1.
         25    2    1    2    0    0  0.92830010704E+02  0.29634614051E+02  0.10114160911E+03  0.18801680342E+03  0.12500028816E+03 0.  0.
          2    1    1    2  501    0 -0.99042882807E+02 -0.52326781641E+01 -0.47954969730E+03  0.48969866830E+03  0.00000000000E+00 0. -1.
          1    1    1    2  502    0  0.62128721024E+01 -0.24401935887E+02  0.50854729253E+03  0.50917030844E+03  0.00000000000E+00 0. -1.
         22    1    3    3    0    0  0.77543175296E+02  0.18574088205E+02  0.13060964360E+03  0.15302555273E+03  0.00000000000E+00 0. -1.
         22    1    3    3    0    0  0.15286835408E+02  0.11060525845E+02 -0.29468034488E+02  0.34991250697E+02  0.00000000000E+00 0. -1.
</event>
<event>
 7    1  0.4402832E-005  0.5936809E+03  0.7818608E-02  0.1090022E+00
          2   -1    0    0  502    0  0.00000000000E+00  0.00000000000E+00  0.23690971458E+04  0.23690971458E+04  0.00000000000E+00 0. -1.
          1   -1    0    0  501    0 -0.00000000000E+00 -0.00000000000E+00 -0.73102550742E+03  0.73102550742E+03  0.00000000000E+00 0. -1.
         25    2    1    2    0    0  0.53388409299E+03 -0.41443793478E+03  0.25393086410E+03  0.73273051316E+03  0.12498837801E+03 0.  0.
          2    1    1    2  501    0 -0.49565618985E+03  0.27739765277E+03 -0.32361450682E+03  0.65372078545E+03  0.00000000000E+00 0. -1.
          1    1    1    2  502    0 -0.38227903140E+02  0.13704028200E+03  0.17077552811E+04  0.17136713546E+04  0.00000000000E+00 0. -1.
         22    1    3    3    0    0  0.20881776589E+03 -0.10852210946E+03  0.43832710923E+02  0.23938089761E+03  0.00000000000E+00 0. -1.
         22    1    3    3    0    0  0.32506632710E+03 -0.30591582532E+03  0.21009815317E+03  0.49334961555E+03  0.00000000000E+00 0. -1.
</event>
<event>
 7    1  0.4402832E-005  0.6799387E+03  0.7818608E-02  0.1104967E+00
          2   -1    0    0  502    0  0.00000000000E+00  0.00000000000E+00  0.18397706930E+04  0.18397706930E+04  0.00000000000E+00 0. -1.
          1   -1    0    0  501    0 -0.00000000000E+00 -0.00000000000E+00 -0.62362692261E+03  0.62362692261E+03  0.00000000000E+00 0. -1.
         25    2    1    2    0    0  0.56595855027E+03  0.40955606762E+03 -0.29809245183E+03  0.76975957232E+03  0.12500174473E+03 0.  0.
          2    1    1    2  501    0 -0.48998741546E+03 -0.34114142366E+03  0.96347084215E+03  0.11334642482E+04  0.00000000000E+00 0. -1.
          1    1    1    2  502    0 -0.75971134813E+02 -0.68414643956E+02  0.55076538004E+03  0.56017379507E+03  0.00000000000E+00 0. -1.
         22    1    3    3    0    0  0.35177793933E+03  0.29430574369E+03 -0.13949015275E+03  0.47939659165E+03  0.00000000000E+00 0.  1.
         22    1    3    3    0    0  0.21418061094E+03  0.11525032393E+03 -0.15860229909E+03  0.29036298067E+03  0.00000000000E+00 0.  1.
</event>
<event>
 7    1  0.4402832E-005  0.5726962E+03  0.7818608E-02  0.1177662E+00
          2   -1    0    0  502    0  0.00000000000E+00  0.00000000000E+00  0.72189603926E+03  0.72189603926E+03  0.00000000000E+00 0. -1.
          1   -1    0    0  501    0 -0.00000000000E+00 -0.00000000000E+00 -0.13065134334E+04  0.13065134334E+04  0.00000000000E+00 0. -1.
         25    2    1    2    0    0 -0.32733193960E+03  0.51464700844E+03 -0.29003224548E+03  0.68684178572E+03  0.12500077287E+03 0.  0.
          2    1    1    2  501    0  0.37299437900E+02 -0.34146696763E+02 -0.66641065063E+03  0.66832656706E+03  0.00000000000E+00 0. -1.
          1    1    1    2  502    0  0.29003250170E+03 -0.48050031168E+03  0.37182550197E+03  0.67324111987E+03  0.00000000000E+00 0. -1.
         22    1    3    3    0    0 -0.14334064600E+03  0.30804447376E+03 -0.20761151301E+03  0.39817141905E+03  0.00000000000E+00 0.  1.
         22    1    3    3    0    0 -0.18399129360E+03  0.20660253468E+03 -0.82420732466E+02  0.28867036668E+03  0.00000000000E+00 0.  1.
</event>
<event>
 7    1  0.4402832E-005  0.3883389E+03  0.7818608E-02  0.1174450E+00
          2   -1    0    0  502    0  0.00000000000E+00  0.00000000000E+00  0.23214929441E+04  0.23214929441E+04  0.00000000000E+00 0. -1.
          1   -1    0    0  501    0 -0.00000000000E+00 -0.00000000000E+00 -0.35008259625E+04  0.35008259625E+04  0.00000000000E+00 0. -1.
         25    2    1    2    0    0  0.35248621069E+03 -0.38568684584E+02  0.66084899073E+03  0.76031640281E+03  0.12500228668E+03 0.  0.
          2    1    1    2  501    0  0.41224620438E+02 -0.65432515796E+02 -0.34249141735E+04  0.34257872058E+04  0.00000000000E+00 0. -1.
          1    1    1    2  502    0 -0.39371083113E+03  0.10400120038E+03  0.15847321644E+04  0.16362152979E+04  0.00000000000E+00 0. -1.
         22    1    3    3    0    0  0.84409188700E+02  0.41717037271E+02  0.20199166521E+03  0.22285837465E+03  0.00000000000E+00 0. -1.
         22    1    3    3    0    0  0.26807702199E+03 -0.80285721856E+02  0.45885732552E+03  0.53745802817E+03  0.00000000000E+00 0. -1.
</event>
<event>
 7    1  0.4402832E-005  0.1251042E+03  0.7818608E-02  0.1271178E+00
          2   -1    0    0  502    0  0.00000000000E+00  0.00000000000E+00  0.85649889512E+03  0.85649889512E+03  0.00000000000E+00 0. -1.
          1   -1    0    0  501    0 -0.00000000000E+00 -0.00000000000E+00 -0.78993011781E+03  0.78993011781E+03  0.00000000000E+00 0. -1.
         25    2    1    2    0    0  0.79924311283E+02  0.14584795856E+03  0.48743802808E+03  0.52998010836E+03  0.12499424583E+03 0.  0.
          2    1    1    2  501    0  0.47371664761E+01 -0.12483445462E+03 -0.75799516469E+03  0.76822050968E+03  0.00000000000E+00 0. -1.
          1    1    1    2  502    0 -0.84661477759E+02 -0.21013503937E+02  0.33712591392E+03  0.34822839488E+03  0.00000000000E+00 0. -1.
         22    1    3    3    0    0 -0.48721399490E+01  0.54007366658E+00 -0.65198902603E+01  0.81571071008E+01  0.00000000000E+00 0. -1.
         22    1    3    3    0    0  0.84796451232E+02  0.14530788489E+03  0.49395791834E+03  0.52182300126E+03  0.00000000000E+00 0. -1.
</event>
<event>
 7    1  0.4402832E-005  0.3105699E+03  0.7818608E-02  0.1083940E+00
          2   -1    0    0  502    0  0.00000000000E+00  0.00000000000E+00  0.21525668634E+04  0.21525668634E+04  0.00000000000E+00 0. -1.
          1   -1    0    0  501    0 -0.00000000000E+00 -0.00000000000E+00 -0.25004976289E+04  0.25004976289E+04  0.00000000000E+00 0. -1.
         25    2    1    2    0    0 -0.34183356445E+03  0.13083400546E+03  0.11154432123E+04  0.11805957711E+04  0.12500036873E+03 0.  0.
          2    1    1    2  501    0  0.23681191769E+03  0.17568847167E+03 -0.24326574005E+04  0.24504628852E+04  0.00000000000E+00 0. -1.
          1    1    1    2  502    0  0.10502164676E+03 -0.30652247713E+03  0.96928342268E+03  0.10220058360E+04  0.00000000000E+00 0. -1.
         22    1    3    3    0    0 -0.12076927727E+03  0.17465787047E+02  0.54340880016E+03  0.55694110653E+03  0.00000000000E+00 0. -1.
         22    1    3    3    0    0 -0.22106428717E+03  0.11336821841E+03  0.57203441215E+03  0.62365466461E+03  0.00000000000E+00 0. -1.
</event>
<event>
 7    1  0.4402832E-005  0.2541303E+03  0.7818608E-02  0.1276163E+00
          2   -1    0    0  502    0  0.00000000000E+00  0.00000000000E+00  0.10300803650E+04  0.10300803650E+04  0.00000000000E+00 0. -1.
          1   -1    0    0  501    0 -0.00000000000E+00 -0.00000000000E+00 -0.31225966222E+03  0.31225966222E+03  0.00000000000E+00 0. -1.
         25    2    1    2    0    0 -0.43160089030E+02 -0.27521155073E+03  0.43987539899E+03  0.53546227492E+03  0.12500116112E+03 0.  0.
          2    1    1    2  501    0 -0.80798472850E+01  0.40127242391E+02 -0.23593521344E+03  0.23945960923E+03  0.00000000000E+00 0. -1.
          1    1    1    2  502    0  0.51239936315E+02  0.23508430834E+03  0.51388051720E+03  0.56741814304E+03  0.00000000000E+00 0. -1.
         22    1    3    3    0    0 -0.72503463185E+02 -0.10614521138E+03  0.23815188726E+03  0.27062867453E+03  0.00000000000E+00 0.  1.
         22    1    3    3    0    0  0.29343374155E+02 -0.16906633935E+03  0.20172351173E+03  0.26483360039E+03  0.00000000000E+00 0.  1.
</event>
<event>
 7    1  0.4402832E-005  0.5398531E+02  0.7818608E-02  0.1439673E+00
          2   -1    0    0  502    0  0.00000000000E+00  0.00000000000E+00  0.66335482247E+02  0.66335482247E+02  0.00000000000E+00 0. -1.
          1   -1    0    0  501    0 -0.00000000000E+00 -0.00000000000E+00 -0.24151673839E+03  0.24151673839E+03  0.00000000000E+00 0. -1.
         25    2    1    2    0    0  0.39540089139E+02 -0.52755349170E+02 -0.13935280840E+03  0.19846213815E+03  0.12498587742E+03 0.  0.
          2    1    1    2  501    0  0.14988338509E+02  0.45921147677E+02 -0.19113530048E+02  0.51949293798E+02  0.00000000000E+00 0. -1.
          1    1    1    2  502    0 -0.54528427647E+02  0.68342014931E+01 -0.16714917699E+02  0.57440788691E+02  0.00000000000E+00 0. -1.
         22    1    3    3    0    0  0.44478258476E+02  0.31921882115E+02 -0.39864610066E+02  0.67723771089E+02  0.00000000000E+00 0. -1.
         22    1    3    3    0    0 -0.49381693370E+01 -0.84677231285E+02 -0.99488198329E+02  0.13073836706E+03  0.00000000000E+00 0. -1.
</event>
<event>
 7    1  0.4402832E-005  0.8264475E+03  0.7818608E-02  0.1087282E+00
          2   -1    0    0  502    0  0.00000000000E+00  0.00000000000E+00  0.21864487122E+04  0.21864487122E+04  0.00000000000E+00 0. -1.
          1   -1    0    0  501    0 -0.00000000000E+00 -0.00000000000E+00 -0.13019168419E+04  0.13019168419E+04  0.00000000000E+00 0. -1.
         25    2    1    2    0    0  0.86234544957E+03  0.14041248932E+03  0.87777447249E+03  0.12447764734E+04  0.12500041013E+03 0.  0.
          2    1    1    2  501    0 -0.79072182741E+03 -0.21852833757E+03 -0.96471024859E+03  0.12663575745E+04  0.00000000000E+00 0. -1.
          1    1    1    2  502    0 -0.71623622158E+02  0.78115848247E+02  0.97146764632E+03  0.97723150626E+03  0.00000000000E+00 0. -1.
         22    1    3    3    0    0  0.20323562914E+03  0.69848505583E+02  0.27330226208E+03  0.34767464841E+03  0.00000000000E+00 0.  1.
         22    1    3    3    0    0  0.65910982043E+03  0.70563983741E+02  0.60447221041E+03  0.89710182496E+03  0.00000000000E+00 0.  1.
</event>
<event>
 7    1  0.4402832E-005  0.6354023E+02  0.7818608E-02  0.1390893E+00
          2   -1    0    0  502    0  0.00000000000E+00  0.00000000000E+00  0.80961061003E+02  0.80961061003E+02  0.00000000000E+00 0. -1.
          1   -1    0    0  501    0 -0.00000000000E+00 -0.00000000000E+00 -0.74997563353E+03  0.74997563353E+03  0.00000000000E+00 0. -1.
         25    2    1    2    0    0  0.44367563984E+01  0.29272306269E+01 -0.62833029687E+03  0.64066564794E+03  0.12500102800E+03 0.  0.
          2    1    1    2  501    0  0.57023767333E+02  0.18287448841E+02 -0.90391148940E+02  0.10842832025E+03  0.00000000000E+00 0. -1.
          1    1    1    2  502    0 -0.61460523731E+02 -0.21214679468E+02  0.49706873286E+02  0.81842726336E+02  0.00000000000E+00 0. -1.
         22    1    3    3    0    0  0.48979947163E+02  0.34981070485E+02 -0.20076991279E+03  0.20959787308E+03  0.00000000000E+00 0. -1.
         22    1    3    3    0    0 -0.44543190764E+02 -0.32053839858E+02 -0.42756038408E+03  0.43106777487E+03  0.00000000000E+00 0. -1.
</event>
<event>
 7    1  0.4402832E-005  0.4958808E+03  0.7818608E-02  0.1126180E+00
          2   -1    0    0  502    0  0.00000000000E+00  0.00000000000E+00  0.19084868396E+04  0.19084868396E+04  0.00000000000E+00 0. -1.
          1   -1    0    0  501    0 -0.00000000000E+00 -0.00000000000E+00 -0.20237287717E+04  0.20237287717E+04  0.00000000000E+00 0. -1.
         25    2    1    2    0    0  0.10786416129E+03 -0.54035365136E+03 -0.91781165955E+03  0.10777846570E+04  0.12499911432E+03 0.  0.
          2    1    1    2  501    0 -0.36805649090E+02  0.45997279504E+03 -0.97234183103E+03  0.10762798262E+04  0.00000000000E+00 0. -1.
          1    1    1    2  502    0 -0.71058512199E+02  0.80380856321E+02  0.17749115585E+04  0.17781511282E+04  0.00000000000E+00 0. -1.
         22    1    3    3    0    0  0.90687108654E+02 -0.25251745524E+03 -0.35057871280E+03  0.44146874266E+03  0.00000000000E+00 0.  1.
         22    1    3    3    0    0  0.17177052636E+02 -0.28783619612E+03 -0.56723294676E+03  0.63631591432E+03  0.00000000000E+00 0.  1.
</event>
<event>
 7    1  0.4402832E-005  0.1325250E+03  0.7818608E-02  0.1234393E+00
          2   -1    0    0  502    0  0.00000000000E+00  0.00000000000E+00  0.11558057478E+03  0.11558057478E+03  0.00000000000E+00 0. -1.
          1   -1    0    0  501    0 -0.00000000000E+00 -0.00000000000E+00 -0.10369574747E+04  0.10369574747E+04  0.00000000000E+00 0. -1.
         25    2    1    2    0    0  0.18150807813E+02 -0.60135189983E+02 -0.19460826341E+03  0.23967292338E+03  0.12500016447E+03 0.  0.
          2    1    1    2  501    0  0.10905240202E+03  0.97313423985E+02 -0.76187592264E+03  0.77576881246E+03  0.00000000000E+00 0. -1.
          1    1    1    2  502    0 -0.12720320984E+03 -0.37178234002E+02  0.35107286133E+02  0.13709631365E+03  0.00000000000E+00 0. -1.
         22    1    3    3    0    0 -0.45742207394E+02 -0.33278367766E+02 -0.37257032297E+02  0.67733933549E+02  0.00000000000E+00 0.  1.
         22    1    3    3    0    0  0.63893015207E+02 -0.26856822217E+02 -0.15735123112E+03  0.17193898984E+03  0.00000000000E+00 0.  1.
</event>
<event>
 7    1  0.4402832E-005  0.3243198E+02  0.7818608E-02  0.1605720E+00
          2   -1    0    0  502    0  0.00000000000E+00  0.00000000000E+00  0.23426856478E+04  0.23426856478E+04  0.00000000000E+00 0. -1.
          1   -1    0    0  501    0 -0.00000000000E+00 -0.00000000000E+00 -0.40137046027E+01  0.40137046027E+01  0.00000000000E+00 0. -1.
         25    2    1    2    0    0  0.48534317058E+02 -0.19652893841E+02  0.15207021981E+04  0.15267293082E+04  0.12500155523E+03 0.  0.
          2    1    1    2  501    0 -0.20189263119E+02  0.17177655666E+02  0.51010094276E+03  0.51078924226E+03  0.00000000000E+00 0. -1.
          1    1    1    2  502    0 -0.28345053939E+02  0.24752381755E+01  0.30786880227E+03  0.30918080196E+03  0.00000000000E+00 0. -1.
         22    1    3    3    0    0  0.76220777378E+02 -0.30378258978E+02  0.14009652710E+04  0.14033660022E+04  0.00000000000E+00 0.  1.
         22    1    3    3    0    0 -0.27686460320E+02  0.10725365137E+02  0.11973692710E+03  0.12336330594E+03  0.00000000000E+00 0.  1.
</event>
<event>
 7    1  0.4402832E-005  0.2333247E+03  0.7818608E-02  0.1152191E+00
          2   -1    0    0  502    0  0.00000000000E+00  0.00000000000E+00  0.29408300980E+03  0.29408300980E+03  0.00000000000E+00 0. -1.
          1   -1    0    0  501    0 -0.00000000000E+00 -0.00000000000E+00 -0.27895646308E+04  0.27895646308E+04  0.00000000000E+00 0. -1.
         25    2    1    2    0    0 -0.14221959860E+03 -0.30249946590E+03 -0.75218336718E+03  0.83254987162E+03  0.12500851885E+03 0.  0.
          2    1    1    2  501    0 -0.35198411866E+01  0.22191582174E+03 -0.19629470069E+04  0.19754543713E+04  0.00000000000E+00 0. -1.
          1    1    1    2  502    0  0.14573943979E+03  0.80583644164E+02  0.21964875301E+03  0.27564339774E+03  0.00000000000E+00 0. -1.
         22    1    3    3    0    0 -0.11818031129E+03 -0.27321527943E+03 -0.73066804135E+03  0.78897969653E+03  0.00000000000E+00 0.  1.
         22    1    3    3    0    0 -0.24039287312E+02 -0.29284186479E+02 -0.21515325825E+02  0.43570175092E+02  0.00000000000E+00 0.  1.
</event>
<event>
 7    1  0.4402832E-005  0.2377117E+03  0.7818608E-02  0.1160083E+00
          2   -1    0    0  502    0  0.00000000000E+00  0.00000000000E+00  0.54948637326E+03  0.54948637326E+03  0.00000000000E+00 0. -1.
          1   -1    0    0  501    0 -0.00000000000E+00 -0.00000000000E+00 -0.11645511640E+04  0.11645511640E+04  0.00000000000E+00 0. -1.
         25    2    1    2    0    0 -0.33654698446E+03 -0.12840499523E+03 -0.83549688241E+03  0.91838552706E+03  0.12500088096E+03 0.  0.
          2    1    1    2  501    0  0.14859183496E+03 -0.11300908909E+02 -0.23803517921E+03  0.28083445390E+03  0.00000000000E+00 0. -1.
          1    1    1    2  502    0  0.18795514950E+03  0.13970590414E+03  0.45846727085E+03  0.51481755634E+03  0.00000000000E+00 0. -1.
         22    1    3    3    0    0 -0.16992926325E+03  0.12483410709E+01 -0.38850166105E+03  0.42404133466E+03  0.00000000000E+00 0. -1.
         22    1    3    3    0    0 -0.16661772121E+03 -0.12965333630E+03 -0.44699522136E+03  0.49434419240E+03  0.00000000000E+00 0. -1.
</event>
<event>
 7    1  0.4402832E-005  0.3025834E+03  0.7818608E-02  0.1198927E+00
          2   -1    0    0  502    0  0.00000000000E+00  0.00000000000E+00  0.98714726576E+03  0.98714726576E+03  0.00000000000E+00 0. -1.
          1   -1    0    0  501    0 -0.00000000000E+00 -0.00000000000E+00 -0.11690659144E+04  0.11690659144E+04  0.00000000000E+00 0. -1.
         25    2    1    2    0    0 -0.80011351700E+02  0.36488041559E+03  0.68983378388E+03  0.79437743757E+03  0.12500131941E+03 0.  0.
          2    1    1    2  501    0  0.81900553102E+02 -0.28928491762E+03 -0.10900807587E+04  0.11307827045E+04  0.00000000000E+00 0. -1.
          1    1    1    2  502    0 -0.18892014028E+01 -0.75595497965E+02  0.21832832622E+03  0.23105303812E+03  0.00000000000E+00 0. -1.
         22    1    3    3    0    0 -0.50918100714E+02  0.35143193432E+03  0.58102007364E+03  0.68094154185E+03  0.00000000000E+00 0.  1.
         22    1    3    3    0    0 -0.29093250985E+02  0.13448481262E+02  0.10881371024E+03  0.11343589572E+03  0.00000000000E+00 0.  1.
</event>
<event>
 7    1  0.4402832E-005  0.8106336E+03  0.7818608E-02  0.1115079E+00
          2   -1    0    0  502    0  0.00000000000E+00  0.00000000000E+00  0.22765941446E+04  0.22765941446E+04  0.00000000000E+00 0. -1.
          1   -1    0    0  501    0 -0.00000000000E+00 -0.00000000000E+00 -0.28536253740E+04  0.28536253740E+04  0.00000000000E+00 0. -1.
         25    2    1    2    0    0 -0.44351787620E+03 -0.59640195374E+03  0.89895633490E+03  0.11730947749E+04  0.12500184785E+03 0.  0.
          2    1    1    2  501    0  0.46552651346E+03  0.66850907633E+03 -0.26542525710E+04  0.27764502572E+04  0.00000000000E+00 0. -1.
          1    1    1    2  502    0 -0.22008637260E+02 -0.72107122595E+02  0.11782650067E+04  0.11806744865E+04  0.00000000000E+00 0. -1.
         22    1    3    3    0    0 -0.17824847964E+03 -0.19794478736E+03  0.23942404403E+03  0.35815992545E+03  0.00000000000E+00 0.  1.
         22    1    3    3    0    0 -0.26526939656E+03 -0.39845716637E+03  0.65953229088E+03  0.81493484948E+03  0.00000000000E+00 0.  1.
</event>
<event>
 7    1  0.4402832E-005  0.4753158E+03  0.7818608E-02  0.1120784E+00
          2   -1    0    0  502    0  0.00000000000E+00  0.00000000000E+00  0.27163587838E+03  0.27163587838E+03  0.00000000000E+00 0. -1.
          1   -1    0    0  501    0 -0.00000000000E+00 -0.00000000000E+00 -0.22524675588E+04  0.22524675588E+04  0.00000000000E+00 0. -1.
         25    2    1    2    0    0 -0.44415206299E+03 -0.18519927565E+03 -0.54003371080E+02  0.50011141362E+03  0.12500094071E+03 0.  0.
          2    1    1    2  501    0 -0.12468855860E+02  0.11903907255E+03 -0.75803678897E+03  0.76742787713E+03  0.00000000000E+00 0. -1.
          1    1    1    2  502    0  0.45662091885E+03  0.66160203105E+02 -0.11687915204E+04  0.12565641465E+04  0.00000000000E+00 0. -1.
         22    1    3    3    0    0 -0.26033047311E+03 -0.99715894900E+02 -0.92585077617E+02  0.29374684938E+03  0.00000000000E+00 0.  1.
         22    1    3    3    0    0 -0.18382158988E+03 -0.85483380754E+02  0.38581706537E+02  0.20636456423E+03  0.00000000000E+00 0.  1.
</event>
<event>
 7    1  0.4402832E-005  0.8681429E+03  0.7818608E-02  0.1103123E+00
          2   -1    0    0  502    0  0.00000000000E+00  0.00000000000E+00  0.35009530913E+04  0.35009530913E+04  0.00000000000E+00 0. -1.
          1   -1    0    0  501    0 -0.00000000000E+00 -0.00000000000E+00 -0.69989796942E+03  0.69989796942E+03  0.00000000000E+00 0. -1.
         25    2    1    2    0    0  0.89000557436E+03  0.11314619175E+03 -0.17827050892E+02  0.90600854076E+03  0.12498675570E+03 0.  0.
          2    1    1    2  501    0 -0.81088421711E+03 -0.13466528056E+03  0.47467532426E+03  0.94920209376E+03  0.00000000000E+00 0. -1.
          1    1    1    2  502    0 -0.79121357246E+02  0.21519088809E+02  0.23442068485E+04  0.23456404262E+04  0.00000000000E+00 0. -1.
         22    1    3    3    0    0  0.29578258056E+03  0.51353310921E+02 -0.63458591847E+02  0.30684114846E+03  0.00000000000E+00 0.  1.
         22    1    3    3    0    0  0.59422299379E+03  0.61792880833E+02  0.45631540956E+02  0.59916739230E+03  0.00000000000E+00 0.  1.
</event>
<event>
 7    1  0.4402832E-005  0.2468911E+03  0.7818608E-02  0.1190673E+00
          2   -1    0    0  502    0  0.00000000000E+00  0.00000000000E+00  0.19013512680E+04  0.19013512680E+04  0.00000000000E+00 0. -1.
          1   -1    0    0  501    0 -0.00000000000E+00 -0.00000000000E+00 -0.13642928346E+03  0.13642928346E+03  0.00000000000E+00 0. -1.
         25    2    1    2    0    0 -0.21995339766E+03 -0.24069053362E+03  0.38286607995E+03  0.51819203599E+03  0.12500048349E+03 0.  0.
          2    1    1    2  501    0  0.33980031816E+02  0.95588561814E+02 -0.15183088091E+02  0.10257846692E+03  0.00000000000E+00 0. -1.
          1    1    1    2  502    0  0.18597336584E+03  0.14510197180E+03  0.13972389927E+04  0.14170100486E+04  0.00000000000E+00 0. -1.
         22    1    3    3    0    0 -0.11142574913E+03 -0.19625522308E+03  0.29615962773E+03  0.37234706290E+03  0.00000000000E+00 0.  1.
         22    1    3    3    0    0 -0.10852764853E+03 -0.44435310539E+02  0.86706452216E+02  0.14584497308E+03  0.00000000000E+00 0.  1.
</event>
<event>
 7    1  0.4402832E-005  0.2650588E+03  0.7818608E-02  0.1265010E+00
          2   -1    0    0  502    0  0.00000000000E+00  0.00000000000E+00  0.17599954297E+03  0.17599954297E+03  0.00000000000E+00 0. -1.
          1   -1    0    0  501    0 -0.00000000000E+00 -0.00000000000E+00 -0.68084924838E+03  0.68084924838E+03  0.00000000000E+00 0. -1.
         25    2    1    2    0    0 -0.19759926114E+03 -0.18940686312E+03 -0.15757183656E+03  0.33966730421E+03  0.12499826428E+03 0.  0.
          2    1    1    2  501    0  0.15847986255E+03  0.20890616246E+03 -0.38062425528E+03  0.46220393254E+03  0.00000000000E+00 0. -1.
          1    1    1    2  502    0  0.39119398594E+02 -0.19499299340E+02  0.33346386431E+02  0.54977554594E+02  0.00000000000E+00 0. -1.
         22    1    3    3    0    0 -0.12181789981E+02  0.18480162366E+02 -0.83639357737E+01  0.23661526364E+02  0.00000000000E+00 0.  1.
         22    1    3    3    0    0 -0.18541747116E+03 -0.20788702548E+03 -0.14920790078E+03  0.31600577785E+03  0.00000000000E+00 0.  1.
</event>
<event>
 7    1  0.4402832E-005  0.4096656E+03  0.7818608E-02  0.1065809E+00
          2   -1    0    0  502    0  0.00000000000E+00  0.00000000000E+00  0.11657845162E+04  0.11657845162E+04  0.00000000000E+00 0. -1.
          1   -1    0    0  501    0 -0.00000000000E+00 -0.00000000000E+00 -0.22346123547E+04  0.22346123547E+04  0.00000000000E+00 0. -1.
         25    2    1    2    0    0 -0.32059410073E+02 -0.37850928021E+03  0.50066314195E+03  0.64076962934E+03  0.12500022078E+03 0.  0.
          2    1    1    2  501    0  0.30185298309E+03  0.28342349177E+03 -0.21088447204E+04  0.21491091535E+04  0.00000000000E+00 0. -1.
          1    1    1    2  502    0 -0.26979357302E+03  0.95085788440E+02  0.53935373987E+03  0.61051808812E+03  0.00000000000E+00 0. -1.
         22    1    3    3    0    0  0.67142001528E+01 -0.19612761058E+03  0.34912274260E+03  0.40049695319E+03  0.00000000000E+00 0. -1.
         22    1    3    3    0    0 -0.38773610226E+02 -0.18238166963E+03  0.15154039935E+03  0.24027267614E+03  0.00000000000E+00 0. -1.
</event>
<event>
 7    1  0.4402832E-005  0.2711805E+03  0.7818608E-02  0.1329404E+00
          2   -1    0    0  502    0  0.00000000000E+00  0.00000000000E+00  0.74685778376E+02  0.74685778376E+02  0.00000000000E+00 0. -1.
          1   -1    0    0  501    0 -0.00000000000E+00 -0.00000000000E+00 -0.15587941244E+04  0.15587941244E+04  0.00000000000E+00 0. -1.
         25    2    1    2    0    0  0.59063283911E+02 -0.26405010513E+03 -0.91848909610E+03  0.96563818116E+03  0.12499579089E+03 0.  0.
          2    1    1    2  501    0 -0.22937070876E+02 -0.52367860515E+01 -0.25117707487E+03  0.25227654684E+03  0.00000000000E+00 0. -1.
          1    1    1    2  502    0 -0.36126213034E+02  0.26928689118E+03 -0.31444217506E+03  0.41556517478E+03  0.00000000000E+00 0. -1.
         22    1    3    3    0    0  0.73612203827E+02 -0.90906440940E+02 -0.47833864916E+03  0.49243334659E+03  0.00000000000E+00 0. -1.
         22    1    3    3    0    0 -0.14548919916E+02 -0.17314366419E+03 -0.44015044694E+03  0.47320483457E+03  0.00000000000E+00 0. -1.
</event>
<event>
 7    1  0.4402832E-005  0.5887104E+03  0.7818608E-02  0.1215759E+00
          2   -1    0    0  502    0  0.00000000000E+00  0.00000000000E+00  0.10954951335E+04  0.10954951335E+04  0.00000000000E+00 0. -1.
          1   -1    0    0  501    0 -0.00000000000E+00 -0.00000000000E+00 -0.12192699652E+04  0.12192699652E+04  0.00000000000E+00 0. -1.
         25    2    1    2    0    0 -0.58305901872E+03  0.14659491752E+03  0.36351236287E+03  0.71359262039E+03  0.12500120304E+03 0.  0.
          2    1    1    2  501    0  0.57550678873E+03 -0.11503911170E+03 -0.96116805370E+03  0.11261820850E+04  0.00000000000E+00 0. -1.
          1    1    1    2  502    0  0.75522299936E+01 -0.31555805819E+02  0.47388085919E+03  0.47499039334E+03  0.00000000000E+00 0. -1.
         22    1    3    3    0    0 -0.57869057102E+02 -0.16155547672E+02  0.62762687716E+02  0.86884892011E+02  0.00000000000E+00 0. -1.
         22    1    3    3    0    0 -0.52518996162E+03  0.16275046519E+03  0.30074967515E+03  0.62670772838E+03  0.00000000000E+00 0. -1.
</event>
<event>
 7    1  0.4402832E-005  0.2641299E+03  0.7818608E-02  0.1250688E+00
          2   -1    0    0  502    0  0.00000000000E+00  0.00000000000E+00  0.35013320017E+03  0.35013320017E+03  0.00000000000E+00 0. -1.
          1   -1    0    0  501    0 -0.00000000000E+00 -0.00000000000E+00 -0.13274869230E+04  0.13274869230E+04  0.00000000000E+00 0. -1.
         25    2    1    2    0    0  0.30102105783E+03  0.55627166272E+02 -0.22690364420E+03  0.40102081346E+03  0.12499748072E+03 0.  0.
          2    1    1    2  501    0 -0.25052360146E+03 -0.54181194859E+02 -0.99469312900E+03  0.10271864960E+04  0.00000000000E+00 0. -1.
          1    1    1    2  502    0 -0.50497456374E+02 -0.14459714130E+01  0.24424305041E+03  0.24941281364E+03  0.00000000000E+00 0. -1.
         22    1    3    3    0    0  0.19388077201E+03  0.37915355790E+01 -0.20084142034E+03  0.27917988040E+03  0.00000000000E+00 0. -1.
         22    1    3    3    0    0  0.10714028582E+03  0.51835630693E+02 -0.26062223869E+02  0.12184093306E+03  0.00000000000E+00 0. -1.
</event>
<event>
 7    1  0.4402832E-005  0.1343148E+03  0.7818608E-02  0.1242082E+00
          2   -1    0    0  502    0  0.00000000000E+00  0.00000000000E+00  0.10950830205E+04  0.10950830205E+04  0.00000000000E+00 0. -1.
          1   -1    0    0  501    0 -0.00000000000E+00 -0.00000000000E+00 -0.59126831769E+03  0.59126831769E+03  0.00000000000E+00 0. -1.
         25    2    1    2    0    0  0.15591964296E+03  0.60755419140E+02 -0.38986608991E+02  0.21247493688E+03  0.12499394828E+03 0.  0.
          2    1    1    2  501    0 -0.28715263541E+02 -0.10444161818E+03 -0.45466184807E+03  0.46738636487E+03  0.00000000000E+00 0. -1.
          1    1    1    2  502    0 -0.12720437942E+03  0.43686199039E+02  0.99746315990E+03  0.10064900365E+04  0.00000000000E+00 0. -1.
         22    1    3    3    0    0  0.72858844335E+02  0.62800741525E+02  0.33861777575E+02  0.10197531228E+03  0.00000000000E+00 0. -1.
         22    1    3    3    0    0  0.83060798626E+02 -0.20453223853E+01 -0.72848386566E+02  0.11049962460E+03  0.00000000000E+00 0. -1.
</event>
<event>
 7    1  0.4402832E-005  0.2931327E+03  0.7818608E-02  0.1170220E+00
          2   -1    0    0  502    0  0.00000000000E+00  0.00000000000E+00  0.31996106897E+04  0.31996106897E+04  0.00000000000E+00 0. -1.
          1   -1    0    0  501    0 -0.00000000000E+00 -0.00000000000E+00 -0.15105922728E+03  0.15105922728E+03  0.00000000000E+00 0. -1.
         25    2    1    2    0    0 -0.28756006989E+03  0.25929026435E+03  0.25588265516E+04  0.25909734409E+04  0.12501126020E+03 0.  0.
          2    1    1    2  501    0  0.18884851073E+03 -0.21668912607E+03  0.31646177538E+02  0.28917022308E+03  0.00000000000E+00 0. -1.
          1    1    1    2  502    0  0.98711559161E+02 -0.42601138274E+02  0.45807873333E+03  0.47052625306E+03  0.00000000000E+00 0. -1.
         22    1    3    3    0    0 -0.12596597295E+03  0.61880235643E+02  0.12210448220E+04  0.12290838243E+04  0.00000000000E+00 0.  1.
         22    1    3    3    0    0 -0.16159409694E+03  0.19741002870E+03  0.13377817296E+04  0.13618896166E+04  0.00000000000E+00 0.  1.
</event>
<event>
 7    1  0.4402832E-005  0.2860749E+03  0.7818608E-02  0.1229923E+00
          2   -1    0    0  502    0  0.00000000000E+00  0.00000000000E+00  0.37612188124E+03  0.37612188124E+03  0.00000000000E+00 0. -1.
          1   -1    0    0  501    0 -0.00000000000E+00 -0.00000000000E+00 -0.56800361501E+03  0.56800361501E+03  0.00000000000E+00 0. -1.
         25    2    1    2    0    0 -0.12058908393E+03  0.26066472294E+03 -0.20501896999E+03  0.37436007578E+03  0.12499945333E+03 0.  0.
          2    1    1    2  501    0  0.17046205961E+03 -0.23187461279E+03 -0.19903869153E+03  0.34991363299E+03  0.00000000000E+00 0. -1.
          1    1    1    2  502    0 -0.49872975683E+02 -0.28790110153E+02  0.21217592775E+03  0.21985178749E+03  0.00000000000E+00 0. -1.
         22    1    3    3    0    0 -0.11790478247E+03  0.10607917071E+03 -0.10590077806E+03  0.19070737527E+03  0.00000000000E+00 0. -1.
         22    1    3    3    0    0 -0.26843014544E+01  0.15458555223E+03 -0.99118191928E+02  0.18365270051E+03  0.00000000000E+00 0. -1.
</event>
<event>
 7    1  0.4402832E-005  0.1143649E+04  0.7818608E-02  0.1025084E+00
          2   -1    0    0  502    0  0.00000000000E+00  0.00000000000E+00  0.11838439927E+04  0.11838439927E+04  0.00000000000E+00 0. -1.
          1   -1    0    0  501    0 -0.00000000000E+00 -0.00000000000E+00 -0.20957140852E+04  0.20957140852E+04  0.00000000000E+00 0. -1.
         25    2    1    2    0    0  0.98915308614E+03  0.55582129924E+03 -0.83609839166E+03  0.14149363916E+04  0.12499330870E+03 0.  0.
          2    1    1    2  501    0  0.90998478521E+02 -0.16013535604E+03 -0.58005695568E+03  0.60859685111E+03  0.00000000000E+00 0. -1.
          1    1    1    2  502    0 -0.10801515647E+04 -0.39568594320E+03  0.50428525490E+03  0.12560248352E+04  0.00000000000E+00 0. -1.
         22    1    3    3    0    0  0.82978226573E+03  0.50609486228E+03 -0.74598656587E+03  0.12252210309E+04  0.00000000000E+00 0. -1.
         22    1    3    3    0    0  0.15937082040E+03  0.49726436962E+02 -0.90111825790E+02  0.18971536067E+03  0.00000000000E+00 0. -1.
</event>
<event>
 7    1  0.4402832E-005  0.2833314E+03  0.7818608E-02  0.1238972E+00
          2   -1    0    0  502    0  0.00000000000E+00  0.00000000000E+00  0.35870246267E+03  0.35870246267E+03  0.00000000000E+00 0. -1.
          1   -1    0    0  501    0 -0.00000000000E+00 -0.00000000000E+00 -0.21831010666E+04  0.21831010666E+04  0.00000000000E+00 0. -1.
         25    2    1    2    0    0  0.23462754653E+03  0.12425998452E+03 -0.12747768264E+04  0.13081174590E+04  0.12499880014E+03 0.  0.
          2    1    1    2  501    0 -0.26464151408E+03 -0.16793581087E+03 -0.86180811705E+03  0.91703369522E+03  0.00000000000E+00 0. -1.
          1    1    1    2  502    0  0.30013967551E+02  0.43675826342E+02  0.31218633952E+03  0.31665237507E+03  0.00000000000E+00 0. -1.
         22    1    3    3    0    0  0.14427178958E+03  0.87051975137E+02 -0.50980467581E+03  0.53692942098E+03  0.00000000000E+00 0. -1.
         22    1    3    3    0    0  0.90355756948E+02  0.37208009388E+02 -0.76497215059E+03  0.77118803800E+03  0.00000000000E+00 0. -1.
</event>
<event>
 7    1  0.4402832E-005  0.2180633E+03  0.7818608E-02  0.1214547E+00
          2   -1    0    0  502    0  0.00000000000E+00  0.00000000000E+00  0.14891906048E+04  0.14891906048E+04  0.00000000000E+00 0. -1.
          1   -1    0    0  501    0 -0.00000000000E+00 -0.00000000000E+00 -0.92662613218E+03  0.92662613218E+03  0.00000000000E+00 0. -1.
         25    2    1    2    0    0  0.15081586608E+03 -0.19646474725E+03  0.57009922636E+03  0.63402025452E+03  0.12499893146E+03 0.  0.
          2    1    1    2  501    0 -0.62903706724E+02  0.20847152631E+03 -0.87912987127E+03  0.90569673962E+03  0.00000000000E+00 0. -1.
          1    1    1    2  502    0 -0.87912159357E+02 -0.12006779058E+02  0.87159511755E+03  0.87609974286E+03  0.00000000000E+00 0. -1.
         22    1    3    3    0    0  0.35378463877E+02 -0.13559498400E+03  0.36439366850E+03  0.39041052885E+03  0.00000000000E+00 0. -1.
         22    1    3    3    0    0  0.11543740220E+03 -0.60869763247E+02  0.20570555787E+03  0.24360972567E+03  0.00000000000E+00 0. -1.
</event>
<event>
 7    1  0.4402832E-005  0.2848968E+03  0.7818608E-02  0.1108792E+00
          2   -1    0    0  502    0  0.00000000000E+00  0.00000000000E+00  0.12147950808E+04  0.12147950808E+04  0.00000000000E+00 0. -1.
          1   -1    0    0  501    0 -0.00000000000E+00 -0.00000000000E+00 -0.69117121965E+03  0.69117121965E+03  0.00000000000E+00 0. -1.
         25    2    1    2    0    0  0.20574147794E+03 -0.32277527409E+03 -0.14538475695E+03  0.42810661342E+03  0.12500044635E+03 0.  0.
          2    1    1    2  501    0 -0.25282658817E+03  0.95265890829E+02 -0.34464389504E+03  0.43792269640E+03  0.00000000000E+00 0. -1.
          1    1    1    2  502    0  0.47085110225E+02  0.22750938326E+03  0.10136525132E+04  0.10399369906E+04  0.00000000000E+00 0. -1.
         22    1    3    3    0    0  0.15754865635E+03 -0.20631677486E+03 -0.15389889877E+03  0.30178313695E+03  0.00000000000E+00 0. -1.
         22    1    3    3    0    0  0.48192821595E+02 -0.11645849923E+03  0.85141418164E+01  0.12632347646E+03  0.00000000000E+00 0. -1.
</event>
<event>
 7    1  0.4402832E-005  0.1938298E+03  0.7818608E-02  0.1302181E+00
          2   -1    0    0  502    0  0.00000000000E+00  0.00000000000E+00  0.55004455340E+02  0.55004455340E+02  0.00000000000E+00 0. -1.
          1   -1    0    0  501    0 -0.00000000000E+00 -0.00000000000E+00 -0.34164399931E+04  0.34164399931E+04  0.00000000000E+00 0. -1.
         25    2    1    2    0    0  0.78754279184E+01 -0.21713198389E+03 -0.65945072820E+03  0.70548464852E+03  0.12500002232E+03 0.  0.
          2    1    1    2  501    0 -0.26153536627E+02  0.32923950347E+02 -0.24644698700E+04  0.24648285405E+04  0.00000000000E+00 0. -1.
          1    1    1    2  502    0  0.18278108708E+02  0.18420803354E+03 -0.23751493955E+03  0.30113125940E+03  0.00000000000E+00 0. -1.
         22    1    3    3    0    0  0.35184779908E+02 -0.91771873045E+02 -0.14426557491E+03  0.17456403273E+03  0.00000000000E+00 0. -1.
         22    1    3    3    0    0 -0.27309351990E+02 -0.12536011084E+03 -0.51518515329E+03  0.53092061579E+03  0.00000000000E+00 0. -1.
</event>
<event>
 7    1  0.4402832E-005  0.7426745E+03  0.7818608E-02  0.1178115E+00
          2   -1    0    0  502    0  0.00000000000E+00  0.00000000000E+00  0.11142811733E+04  0.11142811733E+04  0.00000000000E+00 0. -1.
          1   -1    0    0  501    0 -0.00000000000E+00 -0.00000000000E+00 -0.12098702119E+04  0.12098702119E+04  0.00000000000E+00 0. -1.
         25    2    1    2    0    0  0.74725300156E+02  0.76424445253E+03 -0.88448489725E+02  0.78300854710E+03  0.12500318316E+03 0.  0.
          2    1    1    2  501    0 -0.62192921940E+02 -0.72752816855E+03 -0.60118863158E+03  0.94582924797E+03  0.00000000000E+00 0. -1.
          1    1    1    2  502    0 -0.12532378216E+02 -0.36716283977E+02  0.59404808271E+03  0.59531359012E+03  0.00000000000E+00 0. -1.
         22    1    3    3    0    0  0.67187865354E+02  0.25122586747E+03 -0.71282018078E+02  0.26964749552E+03  0.00000000000E+00 0. -1.
         22    1    3    3    0    0  0.75374348021E+01  0.51301858505E+03 -0.17166471647E+02  0.51336105158E+03  0.00000000000E+00 0. -1.
</event>
<event>
 7    1  0.4402832E-005  0.2226322E+03  0.7818608E-02  0.1273877E+00
          2   -1    0    0  502    0  0.00000000000E+00  0.00000000000E+00  0.84553199397E+03  0.84553199397E+03  0.00000000000E+00 0. -1.
          1   -1    0    0  501    0 -0.00000000000E+00 -0.00000000000E+00 -0.15600499562E+04  0.15600499562E+04  0.00000000000E+00 0. -1.
         25    2    1    2    0    0  0.13684655026E+03 -0.17364456084E+03 -0.98447193031E+03  0.10167067120E+04  0.12501257835E+03 0.  0.
          2    1    1    2  501    0 -0.17536912270E+03  0.14541349983E+03 -0.53553222696E+03  0.58197438195E+03  0.00000000000E+00 0. -1.
          1    1    1    2  502    0  0.38522572448E+02  0.28231061010E+02  0.80548619505E+03  0.80690085625E+03  0.00000000000E+00 0. -1.
         22    1    3    3    0    0  0.10361143298E+03 -0.16315790354E+03 -0.94268459315E+03  0.96229417160E+03  0.00000000000E+00 0.  1.
         22    1    3    3    0    0  0.33235117271E+02 -0.10486657293E+02 -0.41787337160E+02  0.54412540358E+02  0.00000000000E+00 0.  1.
</event>
<event>
 7    1  0.4402832E-005  0.4235113E+03  0.7818608E-02  0.1163070E+00
          2   -1    0    0  502    0  0.00000000000E+00  0.00000000000E+00  0.11910982940E+04  0.11910982940E+04  0.00000000000E+00 0. -1.
          1   -1    0    0  501    0 -0.00000000000E+00 -0.00000000000E+00 -0.41427977767E+03  0.41427977767E+03  0.00000000000E+00 0. -1.
         25    2    1    2    0    0  0.36176753824E+03  0.25797470969E+03  0.37066097995E+03  0.59198062249E+03  0.12499917112E+03 0.  0.
          2    1    1    2  501    0  0.12375537893E+02 -0.79840101272E+02 -0.23583136039E+03  0.24928703587E+03  0.00000000000E+00 0. -1.
          1    1    1    2  502    0 -0.37414307613E+03 -0.17813460842E+03  0.64198889674E+03  0.76411041327E+03  0.00000000000E+00 0. -1.
         22    1    3    3    0    0  0.34440980170E+03  0.25513836847E+03  0.37933400052E+03  0.57237049410E+03  0.00000000000E+00 0. -1.
         22    1    3    3    0    0  0.17357736541E+02  0.28363412210E+01 -0.86730205711E+01  0.19610128383E+02  0.00000000000E+00 0. -1.
</event>
<event>
 7    1  0.4402832E-005  0.1674130E+03  0.7818608E-02  0.1280074E+00
          2   -1    0    0  502    0  0.00000000000E+00  0.00000000000E+00  0.24597252960E+04  0.24597252960E+04  0.00000000000E+00 0. -1.
          1   -1    0    0  501    0 -0.00000000000E+00 -0.00000000000E+00 -0.17327750007E+03  0.17327750007E+03  0.00000000000E+00 0. -1.
         25    2    1    2    0    0  0.98536917343E+02  0.14490096682E+03  0.14880167446E+03  0.26167400418E+03  0.12500212750E+03 0.  0.
          2    1    1    2  501    0 -0.41271380724E+02 -0.16232871294E+03 -0.56196928452E+02  0.17666927486E+03  0.00000000000E+00 0. -1.
          1    1    1    2  502    0 -0.57265536619E+02  0.17427746123E+02  0.21938430499E+04  0.21946595170E+04  0.00000000000E+00 0. -1.
         22    1    3    3    0    0  0.86927011849E+02  0.11259934023E+03  0.16974188317E+03  0.22146607801E+03  0.00000000000E+00 0.  1.
         22    1    3    3    0    0  0.11609905493E+02  0.32301626591E+02 -0.20940208712E+02  0.40207926170E+02  0.00000000000E+00 0.  1.
</event>
<event>
 7    1  0.4402832E-005  0.9630134E+02  0.7818608E-02  0.1338566E+00
          2   -1    0    0  502    0  0.00000000000E+00  0.00000000000E+00  0.91521274426E+02  0.91521274426E+02  0.00000000000E+00 0. -1.
          1   -1    0    0  501    0 -0.00000000000E+00 -0.00000000000E+00 -0.12739102475E+04  0.12739102475E+04  0.00000000000E+00 0. -1.
         25    2    1    2    0    0 -0.10693876756E+03  0.79317678197E+02 -0.58657316806E+03  0.61434595525E+03  0.12500270861E+03 0.  0.
          2    1    1    2  501    0  0.61027575858E+02  0.38973449495E+01 -0.64235741925E+03  0.64526165885E+03  0.00000000000E+00 0. -1.
          1    1    1    2  502    0  0.45911191698E+02 -0.83215023147E+02  0.46541614278E+02  0.10582390779E+03  0.00000000000E+00 0. -1.
         22    1    3    3    0    0 -0.12278974366E+03  0.45404282637E+02 -0.32938984347E+03  0.35445244958E+03  0.00000000000E+00 0. -1.
         22    1    3    3    0    0  0.15850976108E+02  0.33913395560E+02 -0.25718332459E+03  0.25989350567E+03  0.00000000000E+00 0. -1.
</event>
<event>
 7    1  0.4402832E-005  0.2476518E+03  0.7818608E-02  0.1180797E+00
          2   -1    0    0  502    0  0.00000000000E+00  0.00000000000E+00  0.42665397414E+03  0.42665397414E+03  0.00000000000E+00 0. -1.
          1   -1    0    0  501    0 -0.00000000000E+00 -0.00000000000E+00 -0.35070557246E+03  0.35070557246E+03  0.00000000000E+00 0. -1.
         25    2    1    2    0    0  0.66607158792E+02 -0.21927330040E+03 -0.87051390770E+02  0.27517467943E+03  0.12500346273E+03 0.  0.
          2    1    1    2  501    0 -0.10687093663E+03 -0.36360928843E+02 -0.86880134925E+02  0.14244884025E+03  0.00000000000E+00 0. -1.
          1    1    1    2  502    0  0.40263777843E+02  0.25563422924E+03  0.24987992737E+03  0.35973602693E+03  0.00000000000E+00 0. -1.
         22    1    3    3    0    0 -0.98962250908E+01 -0.15571739327E+03 -0.80311938937E+02  0.17548746216E+03  0.00000000000E+00 0. -1.
         22    1    3    3    0    0  0.76503383883E+02 -0.63555907122E+02 -0.67394518332E+01  0.99687217268E+02  0.00000000000E+00 0. -1.
</event>
<event>
 7    1  0.4402832E-005  0.1942278E+03  0.7818608E-02  0.1358429E+00
          2   -1    0    0  502    0  0.00000000000E+00  0.00000000000E+00  0.88280923237E+03  0.88280923237E+03  0.00000000000E+00 0. -1.
          1   -1    0    0  501    0 -0.00000000000E+00 -0.00000000000E+00 -0.24613964204E+03  0.24613964204E+03  0.00000000000E+00 0. -1.
         25    2    1    2    0    0  0.15500783608E+03  0.96921900793E+02  0.14584728181E+03  0.26517553379E+03  0.12500140004E+03 0.  0.
          2    1    1    2  501    0  0.22790885464E+02 -0.11623326674E+02 -0.17115036571E+03  0.17305193979E+03  0.00000000000E+00 0. -1.
          1    1    1    2  502    0 -0.17779872154E+03 -0.85298574119E+02  0.66197267422E+03  0.69072140082E+03  0.00000000000E+00 0. -1.
         22    1    3    3    0    0  0.12765495406E+03  0.55136806203E+02  0.34691091365E+02  0.14331547898E+03  0.00000000000E+00 0.  1.
         22    1    3    3    0    0  0.27352882014E+02  0.41785094590E+02  0.11115619045E+03  0.12186005481E+03  0.00000000000E+00 0.  1.
</event>
<event>
 7    1  0.4402832E-005  0.3248635E+03  0.7818608E-02  0.1275377E+00
          2   -1    0    0  502    0  0.00000000000E+00  0.00000000000E+00  0.96853456237E+03  0.96853456237E+03  0.00000000000E+00 0. -1.
          1   -1    0    0  501    0 -0.00000000000E+00 -0.00000000000E+00 -0.23905991690E+03  0.23905991690E+03  0.00000000000E+00 0. -1.
         25    2    1    2    0    0 -0.98260186875E+02  0.32998301585E+03  0.21056119305E+03  0.42249851339E+03  0.12500049089E+03 0.  0.
          2    1    1    2  501    0  0.98301912799E+02 -0.29772056215E+03  0.52892719981E+02  0.31795980723E+03  0.00000000000E+00 0. -1.
          1    1    1    2  502    0 -0.41725924360E-01 -0.32262453698E+02  0.46602073244E+03  0.46713615866E+03  0.00000000000E+00 0. -1.
         22    1    3    3    0    0 -0.17787175134E+02  0.11613560646E+03  0.90367447434E+01  0.11783685944E+03  0.00000000000E+00 0. -1.
         22    1    3    3    0    0 -0.80473011742E+02  0.21384740939E+03  0.20152444830E+03  0.30466165395E+03  0.00000000000E+00 0. -1.
</event>
<event>
 7    1  0.4402832E-005  0.2588057E+03  0.7818608E-02  0.1294834E+00
          2   -1    0    0  502    0  0.00000000000E+00  0.00000000000E+00  0.75737642743E+02  0.75737642743E+02  0.00000000000E+00 0. -1.
          1   -1    0    0  501    0 -0.00000000000E+00 -0.00000000000E+00 -0.14426033295E+04  0.14426033295E+04  0.00000000000E+00 0. -1.
         25    2    1    2    0    0  0.62383520725E+02  0.26685843228E+03 -0.42646022461E+03  0.52210963330E+03  0.12500007790E+03 0.  0.
          2    1    1    2  501    0 -0.15955278612E+02 -0.29686862827E+02 -0.43195611333E+03  0.43326892871E+03  0.00000000000E+00 0. -1.
          1    1    1    2  502    0 -0.46428242113E+02 -0.23717156945E+03 -0.50844934878E+03  0.56296241020E+03  0.00000000000E+00 0. -1.
         22    1    3    3    0    0  0.95845529503E+01  0.20551139998E+03 -0.22438009584E+03  0.30442277607E+03  0.00000000000E+00 0. -1.
         22    1    3    3    0    0  0.52798967775E+02  0.61347032297E+02 -0.20208012877E+03  0.21768685724E+03  0.00000000000E+00 0. -1.
</event>
<event>
 7    1  0.4402832E-005  0.2068412E+03  0.7818608E-02  0.1144979E+00
          2   -1    0    0  502    0  0.00000000000E+00  0.00000000000E+00  0.12856021875E+04  0.12856021875E+04  0.00000000000E+00 0. -1.
          1   -1    0    0  501    0 -0.00000000000E+00 -0.00000000000E+00 -0.34023802860E+03  0.34023802860E+03  0.00000000000E+00 0. -1.
         25    2    1    2    0    0  0.14848174530E+03 -0.32332616715E+02 -0.26547904547E+03  0.33044912285E+03  0.12500108967E+03 0.  0.
          2    1    1    2  501    0 -0.11047943303E+03 -0.17486443033E+03  0.32806450481E+03  0.38782675698E+03  0.00000000000E+00 0. -1.
          1    1    1    2  502    0 -0.38002312271E+02  0.20719704705E+03  0.88277869957E+03  0.90756433627E+03  0.00000000000E+00 0. -1.
         22    1    3    3    0    0  0.41648871732E+02  0.39973580079E+01 -0.19032945609E+03  0.19487408562E+03  0.00000000000E+00 0.  1.
         22    1    3    3    0    0  0.10683287357E+03 -0.36329974723E+02 -0.75149589377E+02  0.13557503724E+03  0.00000000000E+00 0.  1.
</event>
<event>
 7    1  0.4402832E-005  0.4365654E+03  0.7818608E-02  0.1116205E+00
          2   -1    0    0  502    0  0.00000000000E+00  0.00000000000E+00  0.21864027153E+04  0.21864027153E+04  0.00000000000E+00 0. -1.
          1   -1    0    0  501    0 -0.00000000000E+00 -0.00000000000E+00 -0.31961962577E+03  0.31961962577E+03  0.00000000000E+00 0. -1.
         25    2    1    2    0    0 -0.40577578278E+03 -0.27271948984E+03  0.16548044517E+03  0.53107423499E+03  0.12500463716E+03 0.  0.
          2    1    1    2  501    0  0.26922595565E+03  0.29278092757E+03  0.16200442741E+03  0.42947493669E+03  0.00000000000E+00 0. -1.
          1    1    1    2  502    0  0.13654982713E+03 -0.20061437730E+02  0.15392982170E+04  0.15454731694E+04  0.00000000000E+00 0. -1.
         22    1    3    3    0    0 -0.17530753267E+03 -0.18302756916E+03  0.50839499469E+02  0.25848883301E+03  0.00000000000E+00 0.  1.
         22    1    3    3    0    0 -0.23046825011E+03 -0.89691920679E+02  0.11464094570E+03  0.27258540199E+03  0.00000000000E+00 0.  1.
</event>
<event>
 7    1  0.4402832E-005  0.4673555E+02  0.7818608E-02  0.1579734E+00
          2   -1    0    0  502    0  0.00000000000E+00  0.00000000000E+00  0.21102216516E+03  0.21102216516E+03  0.00000000000E+00 0. -1.
          1   -1    0    0  501    0 -0.00000000000E+00 -0.00000000000E+00 -0.44121879148E+03  0.44121879148E+03  0.00000000000E+00 0. -1.
         25    2    1    2    0    0 -0.56574572193E+02 -0.22983047154E+02 -0.21454306482E+03  0.25571418316E+03  0.12502845330E+03 0.  0.
          2    1    1    2  501    0  0.44990097547E+02  0.48233690242E+01 -0.20298195250E+03  0.20796405172E+03  0.00000000000E+00 0. -1.
          1    1    1    2  502    0  0.11584474647E+02  0.18159678130E+02  0.18732839100E+03  0.18856272176E+03  0.00000000000E+00 0. -1.
         22    1    3    3    0    0 -0.95219999660E+02 -0.27506362469E+02 -0.13870677518E+03  0.17047878986E+03  0.00000000000E+00 0. -1.
         22    1    3    3    0    0  0.38645427467E+02  0.45233153146E+01 -0.75836289637E+02  0.85235393303E+02  0.00000000000E+00 0. -1.
</event>
<event>
 7    1  0.4402832E-005  0.4084219E+03  0.7818608E-02  0.1295452E+00
          2   -1    0    0  502    0  0.00000000000E+00  0.00000000000E+00  0.24642113440E+03  0.24642113440E+03  0.00000000000E+00 0. -1.
          1   -1    0    0  501    0 -0.00000000000E+00 -0.00000000000E+00 -0.11072131867E+04  0.11072131867E+04  0.00000000000E+00 0. -1.
         25    2    1    2    0    0 -0.13064534093E+03  0.38772276626E+03 -0.17717061604E+03  0.46304662745E+03  0.12500241368E+03 0.  0.
          2    1    1    2  501    0  0.15028152175E+03 -0.37964107846E+03 -0.73176521287E+03  0.83796909907E+03  0.00000000000E+00 0. -1.
          1    1    1    2  502    0 -0.19636180822E+02 -0.80816878023E+01  0.48143776579E+02  0.52618594606E+02  0.00000000000E+00 0. -1.
         22    1    3    3    0    0 -0.11427411882E+03  0.37602122183E+03 -0.19262872318E+03  0.43767151895E+03  0.00000000000E+00 0. -1.
         22    1    3    3    0    0 -0.16371222112E+02  0.11701544426E+02  0.15458107142E+02  0.25375108508E+02  0.00000000000E+00 0. -1.
</event>
<event>
 7    1  0.4402832E-005  0.2390384E+03  0.7818608E-02  0.1156991E+00
          2   -1    0    0  502    0  0.00000000000E+00  0.00000000000E+00  0.88916565964E+03  0.88916565964E+03  0.00000000000E+00 0. -1.
          1   -1    0    0  501    0 -0.00000000000E+00 -0.00000000000E+00 -0.18682662298E+03  0.18682662298E+03  0.00000000000E+00 0. -1.
         25    2    1    2    0    0  0.10842901539E+03  0.30260463385E+03  0.21865413910E+03  0.40836410100E+03  0.12500076252E+03 0.  0.
          2    1    1    2  501    0 -0.13070614658E+03 -0.80753017031E+02  0.22375610363E+02  0.15526047292E+03  0.00000000000E+00 0. -1.
          1    1    1    2  502    0  0.22277131188E+02 -0.22185161682E+03  0.46130928720E+03  0.51236770870E+03  0.00000000000E+00 0. -1.
         22    1    3    3    0    0 -0.32354790654E+01 -0.11054710071E+02  0.11271223517E+02  0.16115688601E+02  0.00000000000E+00 0. -1.
         22    1    3    3    0    0  0.11166449446E+03  0.31365934392E+03  0.20738291558E+03  0.39224841240E+03  0.00000000000E+00 0. -1.
</event>
<event>
 7    1  0.4402832E-005  0.1038911E+04  0.7818608E-02  0.1073062E+00
          2   -1    0    0  502    0  0.00000000000E+00  0.00000000000E+00  0.21743689378E+04  0.21743689378E+04  0.00000000000E+00 0. -1.
          1   -1    0    0  501    0 -0.00000000000E+00 -0.00000000000E+00 -0.21866244713E+04  0.21866244713E+04  0.00000000000E+00 0. -1.
         25    2    1    2    0    0 -0.10640406289E+04 -0.14933338478E+03  0.11799725539E+04  0.16007632750E+04  0.12499965871E+03 0.  0.
          2    1    1    2  501    0  0.10345298394E+04  0.51592800622E+02 -0.18362032669E+04  0.21082116220E+04  0.00000000000E+00 0. -1.
          1    1    1    2  502    0  0.29510789584E+02  0.97740584154E+02  0.64397517953E+03  0.65201851227E+03  0.00000000000E+00 0. -1.
         22    1    3    3    0    0 -0.87487226337E+03 -0.16034066037E+03  0.92702783666E+03  0.12847144486E+04  0.00000000000E+00 0.  1.
         22    1    3    3    0    0 -0.18916836557E+03  0.11007275589E+02  0.25294471722E+03  0.31604882632E+03  0.00000000000E+00 0.  1.
</event>
<event>
 7    1  0.4402832E-005  0.6568725E+03  0.7818608E-02  0.1146732E+00
          2   -1    0    0  502    0  0.00000000000E+00  0.00000000000E+00  0.67861422273E+03  0.67861422273E+03  0.00000000000E+00 0. -1.
          1   -1    0    0  501    0 -0.00000000000E+00 -0.00000000000E+00 -0.20076774726E+04  0.20076774726E+04  0.00000000000E+00 0. -1.
         25    2    1    2    0    0 -0.53403883996E+03  0.34416382503E+03 -0.86965994594E+03  0.10842411562E+04  0.12499696903E+03 0.  0.
          2    1    1    2  501    0  0.54561512079E+03 -0.40620311257E+03 -0.91609431867E+03  0.11410195570E+04  0.00000000000E+00 0. -1.
          1    1    1    2  502    0 -0.11576280832E+02  0.62039287542E+02  0.45669101477E+03  0.46103098209E+03  0.00000000000E+00 0. -1.
         22    1    3    3    0    0 -0.23474169287E+03  0.18085353637E+03 -0.50108248116E+03  0.58214716087E+03  0.00000000000E+00 0.  1.
         22    1    3    3    0    0 -0.29929714709E+03  0.16331028866E+03 -0.36857746478E+03  0.50209399536E+03  0.00000000000E+00 0.  1.
</event>
<event>
 7    1  0.4402832E-005  0.1090538E+03  0.7818608E-02  0.1264027E+00
          2   -1    0    0  502    0  0.00000000000E+00  0.00000000000E+00  0.12439409281E+03  0.12439409281E+03  0.00000000000E+00 0. -1.
          1   -1    0    0  501    0 -0.00000000000E+00 -0.00000000000E+00 -0.94004735706E+03  0.94004735706E+03  0.00000000000E+00 0. -1.
         25    2    1    2    0    0  0.53646188870E+02  0.74720933933E+02 -0.34251653703E+03  0.37603812137E+03  0.12500383608E+03 0.  0.
          2    1    1    2  501    0 -0.10338785461E+03  0.28566709412E+02 -0.54343872976E+03  0.55392306178E+03  0.00000000000E+00 0. -1.
          1    1    1    2  502    0  0.49741665744E+02 -0.10328764334E+03  0.70302002535E+02  0.13448026673E+03  0.00000000000E+00 0. -1.
         22    1    3    3    0    0  0.16883261256E+02  0.62511377041E+01  0.59884476206E+01  0.18973211066E+02  0.00000000000E+00 0. -1.
         22    1    3    3    0    0  0.36762927614E+02  0.68469796229E+02 -0.34850498465E+03  0.35706491030E+03  0.00000000000E+00 0. -1.
</event>
<event>
 7    1  0.4402832E-005  0.1554246E+03  0.7818608E-02  0.1196593E+00
          2   -1    0    0  502    0  0.00000000000E+00  0.00000000000E+00  0.25424589621E+03  0.25424589621E+03  0.00000000000E+00 0. -1.
          1   -1    0    0  501    0 -0.00000000000E+00 -0.00000000000E+00 -0.10218025136E+04  0.10218025136E+04  0.00000000000E+00 0. -1.
         25    2    1    2    0    0 -0.17635383683E+02 -0.11563527299E+03  0.81358812135E+02  0.18954306362E+03  0.12499917415E+03 0.  0.
          2    1    1    2  501    0 -0.13378012064E+03  0.80561978020E+02 -0.90717669103E+03  0.92051990838E+03  0.00000000000E+00 0. -1.
          1    1    1    2  502    0  0.15141550433E+03  0.35073294973E+02  0.58261261506E+02  0.16598543780E+03  0.00000000000E+00 0. -1.
         22    1    3    3    0    0  0.24704762553E+02 -0.12235503275E+03  0.43017510289E+02  0.13202872992E+03  0.00000000000E+00 0. -1.
         22    1    3    3    0    0 -0.42340146236E+02  0.67197597563E+01  0.38341301846E+02  0.57514333707E+02  0.00000000000E+00 0. -1.
</event>
<event>
 7    1  0.4402832E-005  0.1741324E+03  0.7818608E-02  0.1229299E+00
          2   -1    0    0  502    0  0.00000000000E+00  0.00000000000E+00  0.93373761366E+03  0.93373761366E+03  0.00000000000E+00 0. -1.
          1   -1    0    0  501    0 -0.00000000000E+00 -0.00000000000E+00 -0.10267468127E+03  0.10267468127E+03  0.00000000000E+00 0. -1.
         25    2    1    2    0    0  0.13781296187E+03 -0.35986472076E+02  0.44911616680E+03  0.48746789744E+03  0.12502872117E+03 0.  0.
          2    1    1    2  501    0  0.90194855022E+02  0.30519632710E+02 -0.97178408674E+01  0.95713093589E+02  0.00000000000E+00 0. -1.
          1    1    1    2  502    0 -0.22800781689E+03  0.54668393665E+01  0.39166460646E+03  0.45323130391E+03  0.00000000000E+00 0. -1.
         22    1    3    3    0    0  0.13280446037E+03  0.92268201104E+01  0.25014787027E+03  0.28336569289E+03  0.00000000000E+00 0.  1.
         22    1    3    3    0    0  0.50085014936E+01 -0.45213292187E+02  0.19896829653E+03  0.20410220455E+03  0.00000000000E+00 0.  1.
</event>
<event>
 7    1  0.4402832E-005  0.3593762E+03  0.7818608E-02  0.1144516E+00
          2   -1    0    0  502    0  0.00000000000E+00  0.00000000000E+00  0.54541032323E+03  0.54541032323E+03  0.00000000000E+00 0. -1.
          1   -1    0    0  501    0 -0.00000000000E+00 -0.00000000000E+00 -0.16766247523E+04  0.16766247523E+04  0.00000000000E+00 0. -1.
         25    2    1    2    0    0 -0.37694405445E+03  0.53244451161E+02  0.37799099543E+03  0.55083882512E+03  0.12499770745E+03 0.  0.
          2    1    1    2  501    0  0.81437396292E+02 -0.86009337248E+02 -0.13053290426E+04  0.13106920176E+04  0.00000000000E+00 0. -1.
          1    1    1    2  502    0  0.29550665815E+03  0.32764886087E+02 -0.20387638192E+03  0.36050423281E+03  0.00000000000E+00 0. -1.
         22    1    3    3    0    0 -0.30229509093E+02  0.86568133961E+01 -0.55108899568E+01  0.31923871104E+02  0.00000000000E+00 0.  1.
         22    1    3    3    0    0 -0.34671454535E+03  0.44587637765E+02  0.38350188539E+03  0.51891495401E+03  0.00000000000E+00 0.  1.
</event>
<event>
 7    1  0.4402832E-005  0.1075420E+04  0.7818608E-02  0.1073157E+00
          2   -1    0    0  502    0  0.00000000000E+00  0.00000000000E+00  0.11753382252E+04  0.11753382252E+04  0.00000000000E+00 0. -1.
          1   -1    0    0  501    0 -0.00000000000E+00 -0.00000000000E+00 -0.19597985516E+04  0.19597985516E+04  0.00000000000E+00 0. -1.
         25    2    1    2    0    0  0.27745919371E+03  0.10463812440E+04 -0.57671984572E+02  0.10912598241E+04  0.12499853524E+03 0.  0.
          2    1    1    2  501    0 -0.97954398745E+02  0.10400762126E+02 -0.94487653993E+03  0.94999732410E+03  0.00000000000E+00 0. -1.
          1    1    1    2  502    0 -0.17950479496E+03 -0.10567820061E+04  0.21808819807E+03  0.10938796287E+04  0.00000000000E+00 0. -1.
         22    1    3    3    0    0  0.17234391197E+03  0.80950782633E+03 -0.96959459410E+01  0.82770728899E+03  0.00000000000E+00 0.  1.
         22    1    3    3    0    0  0.10511528173E+03  0.23687341768E+03 -0.47976038631E+02  0.26355253507E+03  0.00000000000E+00 0.  1.
</event>
<event>
 7    1  0.5228640E-005  0.2500362E+03  0.7818608E-02  0.1296438E+00
          2   -1    0    0  502    0  0.00000000000E+00  0.00000000000E+00  0.14383218926E+04  0.14383218926E+04  0.00000000000E+00 0. -1.
          1   -1    0    0  501    0 -0.00000000000E+00 -0.00000000000E+00 -0.14651453745E+04  0.14651453745E+04  0.00000000000E+00 0. -1.
         25    2    1    2    0    0  0.15786463130E+03 -0.18108456624E+03 -0.53868136647E+03  0.60292065234E+03  0.12499134563E+03 0.  0.
          2    1    1    2  501    0 -0.19077454103E+03  0.17117527515E+03 -0.87576294401E+03  0.91250021065E+03  0.00000000000E+00 0. -1.
          1    1    1    2  502    0  0.32909909733E+02  0.99092910930E+01  0.13876208286E+04  0.13880464042E+04  0.00000000000E+00 0. -1.
         22    1    3    3    0    0  0.11686413862E+03 -0.52937999280E+02 -0.33586143897E+03  0.35953103461E+03  0.00000000000E+00 0.  1.
         22    1    3    3    0    0  0.41000492685E+02 -0.12814656696E+03 -0.20281992751E+03  0.24338961773E+03  0.00000000000E+00 0.  1.
</event>
<event>
 7    1  0.4402832E-005  0.3914941E+03  0.7818608E-02  0.1184918E+00
          2   -1    0    0  502    0  0.00000000000E+00  0.00000000000E+00  0.56361220353E+03  0.56361220353E+03  0.00000000000E+00 0. -1.
          1   -1    0    0  501    0 -0.00000000000E+00 -0.00000000000E+00 -0.36691028528E+03  0.36691028528E+03  0.00000000000E+00 0. -1.
         25    2    1    2    0    0 -0.41733025969E+03 -0.93300261167E+02  0.70783303092E+02  0.45111543887E+03  0.12500151517E+03 0.  0.
          2    1    1    2  501    0  0.35959033674E+03  0.57016682402E+02  0.35007294628E+02  0.36576170252E+03  0.00000000000E+00 0. -1.
          1    1    1    2  502    0  0.57739922951E+02  0.36283578766E+02  0.90911320530E+02  0.11364534742E+03  0.00000000000E+00 0. -1.
         22    1    3    3    0    0 -0.41349618229E+03 -0.88925839461E+02  0.88809809663E+02  0.43217366878E+03  0.00000000000E+00 0. -1.
         22    1    3    3    0    0 -0.38340774024E+01 -0.43744217059E+01 -0.18026506571E+02  0.18941770085E+02  0.00000000000E+00 0. -1.
</event>
<event>
 7    1  0.4402832E-005  0.6489406E+03  0.7818608E-02  0.1047331E+00
          2   -1    0    0  502    0  0.00000000000E+00  0.00000000000E+00  0.84776494054E+03  0.84776494054E+03  0.00000000000E+00 0. -1.
          1   -1    0    0  501    0 -0.00000000000E+00 -0.00000000000E+00 -0.15518507800E+04  0.15518507800E+04  0.00000000000E+00 0. -1.
         25    2    1    2    0    0 -0.43874094542E+03 -0.67563240715E+03  0.48340176497E+02  0.81666080332E+03  0.12500131292E+03 0.  0.
          2    1    1    2  501    0  0.22574452848E+03  0.57808093634E+03 -0.10405775990E+04  0.12115856968E+04  0.00000000000E+00 0. -1.
          1    1    1    2  502    0  0.21299641694E+03  0.97551470816E+02  0.28815158304E+03  0.37136922045E+03  0.00000000000E+00 0. -1.
         22    1    3    3    0    0 -0.24205135124E+03 -0.27688785842E+03  0.55807028264E+02  0.37198140703E+03  0.00000000000E+00 0. -1.
         22    1    3    3    0    0 -0.19668959418E+03 -0.39874454874E+03 -0.74668517668E+01  0.44467939629E+03  0.00000000000E+00 0. -1.
</event>
<event>
 7    1  0.4402832E-005  0.2298463E+03  0.7818608E-02  0.1190703E+00
          2   -1    0    0  502    0  0.00000000000E+00  0.00000000000E+00  0.96094190040E+03  0.96094190040E+03  0.00000000000E+00 0. -1.
          1   -1    0    0  501    0 -0.00000000000E+00 -0.00000000000E+00 -0.12288445447E+03  0.12288445447E+03  0.00000000000E+00 0. -1.
         25    2    1    2    0    0 -0.17411717077E+03  0.22980434442E+03  0.24021708598E+03  0.39555096664E+03  0.12501797050E+03 0.  0.
          2    1    1    2  501    0  0.13992719358E+03 -0.12637225802E+03  0.19614457255E+03  0.27207032260E+03  0.00000000000E+00 0. -1.
          1    1    1    2  502    0  0.34189977185E+02 -0.10343208640E+03  0.40169578740E+03  0.41620506563E+03  0.00000000000E+00 0. -1.
         22    1    3    3    0    0 -0.77941864115E+02  0.65175004161E+02  0.18747434192E+02  0.10331593119E+03  0.00000000000E+00 0. -1.
         22    1    3    3    0    0 -0.96175306650E+02  0.16462934026E+03  0.22146965179E+03  0.29223503545E+03  0.00000000000E+00 0. -1.
</event>
<event>
 7    1  0.4402832E-005  0.6448230E+03  0.7818608E-02  0.1217326E+00
          2   -1    0    0  502    0  0.00000000000E+00  0.00000000000E+00  0.46238682179E+04  0.46238682179E+04  0.00000000000E+00 0. -1.
          1   -1    0    0  501    0 -0.00000000000E+00 -0.00000000000E+00 -0.28615193896E+03  0.28615193896E+03  0.00000000000E+00 0. -1.
         25    2    1    2    0    0  0.10358805126E+03 -0.61557502593E+03  0.90836999191E+03  0.11092441620E+04  0.12499388734E+03 0.  0.
          2    1    1    2  501    0 -0.75149800188E+01 -0.28151539027E+02 -0.15505178428E+03  0.15776577538E+03  0.00000000000E+00 0. -1.
          1    1    1    2  502    0 -0.96073071237E+02  0.64372656496E+03  0.35843980713E+04  0.36430102195E+04  0.00000000000E+00 0. -1.
         22    1    3    3    0    0  0.58403459998E+02 -0.46404289301E+03  0.76016000841E+03  0.89251891245E+03  0.00000000000E+00 0.  1.
         22    1    3    3    0    0  0.45184591258E+02 -0.15153213292E+03  0.14820998350E+03  0.21672524958E+03  0.00000000000E+00 0.  1.
</event>
<event>
 7    1  0.4402832E-005  0.1754100E+03  0.7818608E-02  0.1238845E+00
          2   -1    0    0  502    0  0.00000000000E+00  0.00000000000E+00  0.21071268578E+03  0.21071268578E+03  0.00000000000E+00 0. -1.
          1   -1    0    0  501    0 -0.00000000000E+00 -0.00000000000E+00 -0.50427116836E+03  0.50427116836E+03  0.00000000000E+00 0. -1.
         25    2    1    2    0    0 -0.58440290757E+02  0.20337603942E+03  0.82279207527E+02  0.25916857293E+03  0.12498560001E+03 0.  0.
          2    1    1    2  501    0  0.10832104688E+03 -0.13367626339E+03 -0.25782462574E+03  0.30996182060E+03  0.00000000000E+00 0. -1.
          1    1    1    2  502    0 -0.49880756126E+02 -0.69699776035E+02 -0.11801306437E+03  0.14585346061E+03  0.00000000000E+00 0. -1.
         22    1    3    3    0    0 -0.47342541536E+02  0.18785402656E+03  0.20852901304E+02  0.19484685019E+03  0.00000000000E+00 0. -1.
         22    1    3    3    0    0 -0.11097749222E+02  0.15522012860E+02  0.61426306223E+02  0.64321722748E+02  0.00000000000E+00 0. -1.
</event>
<event>
 7    1  0.4402832E-005  0.5485664E+03  0.7818608E-02  0.1115173E+00
          2   -1    0    0  502    0  0.00000000000E+00  0.00000000000E+00  0.10253731009E+04  0.10253731009E+04  0.00000000000E+00 0. -1.
          1   -1    0    0  501    0 -0.00000000000E+00 -0.00000000000E+00 -0.81824116398E+03  0.81824116398E+03  0.00000000000E+00 0. -1.
         25    2    1    2    0    0  0.79168097058E+02  0.60624060955E+03  0.38110434342E+03  0.73120366260E+03  0.12499204522E+03 0.  0.
          2    1    1    2  501    0 -0.14140143074E+02 -0.11037311497E+03 -0.50208695264E+03  0.51426984761E+03  0.00000000000E+00 0. -1.
          1    1    1    2  502    0 -0.65027953984E+02 -0.49586749458E+03  0.32811454609E+03  0.59814075462E+03  0.00000000000E+00 0. -1.
         22    1    3    3    0    0  0.77229711852E+02  0.59461900049E+03  0.39098653833E+03  0.71582585682E+03  0.00000000000E+00 0.  1.
         22    1    3    3    0    0  0.19383852061E+01  0.11621609059E+02 -0.98821949109E+01  0.15377805779E+02  0.00000000000E+00 0.  1.
</event>
<event>
 7    1  0.4402832E-005  0.8878654E+03  0.7818608E-02  0.9747061E-01
          2   -1    0    0  502    0  0.00000000000E+00  0.00000000000E+00  0.21359393235E+04  0.21359393235E+04  0.00000000000E+00 0. -1.
          1   -1    0    0  501    0 -0.00000000000E+00 -0.00000000000E+00 -0.11301089957E+04  0.11301089957E+04  0.00000000000E+00 0. -1.
         25    2    1    2    0    0 -0.10536804397E+04  0.11285033088E+03 -0.31895455488E+03  0.11137028990E+04  0.12499789231E+03 0.  0.
          2    1    1    2  501    0  0.71082988619E+03  0.28492253238E+03  0.42832435660E+02  0.76700364673E+03  0.00000000000E+00 0. -1.
          1    1    1    2  502    0  0.34285055346E+03 -0.39777286326E+03  0.12819524471E+04  0.13853417735E+04  0.00000000000E+00 0. -1.
         22    1    3    3    0    0 -0.56160417567E+02  0.21204353848E+02  0.66376303175E+01  0.60395987115E+02  0.00000000000E+00 0.  1.
         22    1    3    3    0    0 -0.99752002209E+03  0.91645977032E+02 -0.32559218520E+03  0.10533069119E+04  0.00000000000E+00 0.  1.
</event>
<event>
 7    1  0.4402832E-005  0.8812198E+02  0.7818608E-02  0.1331116E+00
          2   -1    0    0  502    0  0.00000000000E+00  0.00000000000E+00  0.11253971656E+03  0.11253971656E+03  0.00000000000E+00 0. -1.
          1   -1    0    0  501    0 -0.00000000000E+00 -0.00000000000E+00 -0.33245092041E+03  0.33245092041E+03  0.00000000000E+00 0. -1.
         25    2    1    2    0    0 -0.28370098681E+02  0.13006652854E+02  0.36540723208E+02  0.13391867227E+03  0.12499980325E+03 0.  0.
          2    1    1    2  501    0  0.76845163028E+02 -0.65319441530E+02 -0.11721571729E+03  0.15463289722E+03  0.00000000000E+00 0. -1.
          1    1    1    2  502    0 -0.48475064346E+02  0.52312788677E+02 -0.13923620976E+03  0.15643906747E+03  0.00000000000E+00 0. -1.
         22    1    3    3    0    0  0.77652381800E+00  0.67231174681E+02  0.20738313130E+02  0.70361292411E+02  0.00000000000E+00 0.  1.
         22    1    3    3    0    0 -0.29146622499E+02 -0.54224521828E+02  0.15802410078E+02  0.63557379861E+02  0.00000000000E+00 0.  1.
</event>
<event>
 7    1  0.4402832E-005  0.2283856E+03  0.7818608E-02  0.1166178E+00
          2   -1    0    0  502    0  0.00000000000E+00  0.00000000000E+00  0.67225892379E+03  0.67225892379E+03  0.00000000000E+00 0. -1.
          1   -1    0    0  501    0 -0.00000000000E+00 -0.00000000000E+00 -0.25954129172E+04  0.25954129172E+04  0.00000000000E+00 0. -1.
         25    2    1    2    0    0  0.26016038021E+02  0.86842370458E+02 -0.88349667468E+03  0.89688899923E+03  0.12500028493E+03 0.  0.
          2    1    1    2  501    0  0.15862040665E+03 -0.22126464790E+03 -0.16743036957E+04  0.16962934131E+04  0.00000000000E+00 0. -1.
          1    1    1    2  502    0 -0.18463644467E+03  0.13442227744E+03  0.63464637705E+03  0.67448942859E+03  0.00000000000E+00 0. -1.
         22    1    3    3    0    0 -0.79802862053E+01 -0.20011684633E+02 -0.39918443294E+03  0.39976538619E+03  0.00000000000E+00 0.  1.
         22    1    3    3    0    0  0.33996324226E+02  0.10685405509E+03 -0.48431224174E+03  0.49712361305E+03  0.00000000000E+00 0.  1.
</event>
<event>
 7    1  0.4402832E-005  0.2748536E+03  0.7818608E-02  0.1134117E+00
          2   -1    0    0  502    0  0.00000000000E+00  0.00000000000E+00  0.54126376691E+03  0.54126376691E+03  0.00000000000E+00 0. -1.
          1   -1    0    0  501    0 -0.00000000000E+00 -0.00000000000E+00 -0.52529225300E+03  0.52529225300E+03  0.00000000000E+00 0. -1.
         25    2    1    2    0    0  0.25669090521E+03 -0.27613857082E+03 -0.16652325497E+02  0.39754858680E+03  0.12499939125E+03 0.  0.
          2    1    1    2  501    0 -0.85554054913E+02  0.23683232291E+03 -0.23794874055E+03  0.34645150976E+03  0.00000000000E+00 0. -1.
          1    1    1    2  502    0 -0.17113685030E+03  0.39306247909E+02  0.27057257997E+03  0.32255592334E+03  0.00000000000E+00 0. -1.
         22    1    3    3    0    0  0.13986481500E+03 -0.17781049483E+03  0.48772090652E+02  0.23142483741E+03  0.00000000000E+00 0.  1.
         22    1    3    3    0    0  0.11682609021E+03 -0.98328075990E+02 -0.65424416149E+02  0.16612374939E+03  0.00000000000E+00 0.  1.
</event>
<event>
 7    1  0.4402832E-005  0.9784821E+02  0.7818608E-02  0.1312314E+00
          2   -1    0    0  502    0  0.00000000000E+00  0.00000000000E+00  0.19193510651E+04  0.19193510651E+04  0.00000000000E+00 0. -1.
          1   -1    0    0  501    0 -0.00000000000E+00 -0.00000000000E+00 -0.16945461593E+03  0.16945461593E+03  0.00000000000E+00 0. -1.
         25    2    1    2    0    0  0.24610145219E+02 -0.16731293604E+03  0.23348708226E+03  0.31422855298E+03  0.12499635240E+03 0.  0.
          2    1    1    2  501    0  0.28190122393E+01  0.75892960711E+02 -0.11639789365E+03  0.13898258150E+03  0.00000000000E+00 0. -1.
          1    1    1    2  502    0 -0.27429157458E+02  0.91419975327E+02  0.16328072606E+04  0.16355945466E+04  0.00000000000E+00 0. -1.
         22    1    3    3    0    0  0.49800188006E+02 -0.16885774335E+03  0.22858329142E+03  0.28851918018E+03  0.00000000000E+00 0. -1.
         22    1    3    3    0    0 -0.25190042788E+02  0.15448073119E+01  0.49037908393E+01  0.25709372802E+02  0.00000000000E+00 0. -1.
</event>
<event>
 7    1  0.4402832E-005  0.2942094E+03  0.7818608E-02  0.1128777E+00
          2   -1    0    0  502    0  0.00000000000E+00  0.00000000000E+00  0.14088837026E+04  0.14088837026E+04  0.00000000000E+00 0. -1.
          1   -1    0    0  501    0 -0.00000000000E+00 -0.00000000000E+00 -0.12764884504E+03  0.12764884504E+03  0.00000000000E+00 0. -1.
         25    2    1    2    0    0 -0.19656543649E+03  0.22139445748E+03  0.33080607595E+03  0.46120354043E+03  0.12499027642E+03 0.  0.
          2    1    1    2  501    0  0.15293506132E+03  0.85324586456E+02  0.21492662727E+03  0.27724154296E+03  0.00000000000E+00 0. -1.
          1    1    1    2  502    0  0.43630375171E+02 -0.30671904393E+03  0.73550215435E+03  0.79808746426E+03  0.00000000000E+00 0. -1.
         22    1    3    3    0    0 -0.57491639211E+02  0.11413910116E+03  0.21727878290E+03  0.25207755253E+03  0.00000000000E+00 0.  1.
         22    1    3    3    0    0 -0.13907379728E+03  0.10725535631E+03  0.11352729305E+03  0.20912598790E+03  0.00000000000E+00 0.  1.
</event>
<event>
 7    1  0.4402832E-005  0.1180797E+03  0.7818608E-02  0.1266617E+00
          2   -1    0    0  502    0  0.00000000000E+00  0.00000000000E+00  0.45496490697E+03  0.45496490697E+03  0.00000000000E+00 0. -1.
          1   -1    0    0  501    0 -0.00000000000E+00 -0.00000000000E+00 -0.84518780556E+03  0.84518780556E+03  0.00000000000E+00 0. -1.
         25    2    1    2    0    0 -0.86280118103E+02 -0.39674135663E+02  0.41166922696E+03  0.44058493586E+03  0.12500094985E+03 0.  0.
          2    1    1    2  501    0 -0.10003261989E+03  0.62739779843E+02 -0.24689647398E+03  0.27367987481E+03  0.00000000000E+00 0. -1.
          1    1    1    2  502    0  0.18631273799E+03 -0.23065644181E+02 -0.55499565157E+03  0.58588790186E+03  0.00000000000E+00 0. -1.
         22    1    3    3    0    0 -0.11437201462E+03 -0.41869681306E+02  0.27085114579E+03  0.29697537123E+03  0.00000000000E+00 0. -1.
         22    1    3    3    0    0  0.28091896515E+02  0.21955456433E+01  0.14081808117E+03  0.14360956463E+03  0.00000000000E+00 0. -1.
</event>
<event>
 7    1  0.4402832E-005  0.4821816E+03  0.7818608E-02  0.1086033E+00
          2   -1    0    0  502    0  0.00000000000E+00  0.00000000000E+00  0.38699501525E+03  0.38699501525E+03  0.00000000000E+00 0. -1.
          1   -1    0    0  501    0 -0.00000000000E+00 -0.00000000000E+00 -0.15696620364E+04  0.15696620364E+04  0.00000000000E+00 0. -1.
         25    2    1    2    0    0  0.82618596875E+02  0.37536250191E+03 -0.57723537493E+03  0.70466250424E+03  0.12500290565E+03 0.  0.
          2    1    1    2  501    0 -0.11701629699E+03  0.14289224554E+03 -0.70009194910E+03  0.72404402131E+03  0.00000000000E+00 0. -1.
          1    1    1    2  502    0  0.34397700112E+02 -0.51825474745E+03  0.94660302920E+02  0.52795052606E+03  0.00000000000E+00 0. -1.
         22    1    3    3    0    0 -0.31500957464E+02  0.88582257815E+02 -0.16156732161E+03  0.18693080574E+03  0.00000000000E+00 0. -1.
         22    1    3    3    0    0  0.11411955434E+03  0.28678024409E+03 -0.41566805332E+03  0.51773169851E+03  0.00000000000E+00 0. -1.
</event>
<event>
 7    1  0.4402832E-005  0.4509867E+02  0.7818608E-02  0.1591135E+00
          2   -1    0    0  502    0  0.00000000000E+00  0.00000000000E+00  0.20032006879E+04  0.20032006879E+04  0.00000000000E+00 0. -1.
          1   -1    0    0  501    0 -0.00000000000E+00 -0.00000000000E+00 -0.10628492153E+03  0.10628492153E+03  0.00000000000E+00 0. -1.
         25    2    1    2    0    0  0.55729957722E+02 -0.20119180718E+02  0.87048872950E+03  0.88141074762E+03  0.12499467274E+03 0.  0.
          2    1    1    2  501    0 -0.11680470671E+02  0.17228614436E+02 -0.99312391510E+02  0.10147024026E+03  0.00000000000E+00 0. -1.
          1    1    1    2  502    0 -0.44049487050E+02  0.28905662820E+01  0.11257394284E+04  0.11266046216E+04  0.00000000000E+00 0. -1.
         22    1    3    3    0    0  0.15676227476E+02 -0.42035897102E+02  0.76684055206E+03  0.76815180338E+03  0.00000000000E+00 0. -1.
         22    1    3    3    0    0  0.40053730246E+02  0.21916716384E+02  0.10364817744E+03  0.11325894424E+03  0.00000000000E+00 0. -1.
</event>
<event>
 7    1  0.4402832E-005  0.4160596E+03  0.7818608E-02  0.1276596E+00
          2   -1    0    0  502    0  0.00000000000E+00  0.00000000000E+00  0.13946631244E+04  0.13946631244E+04  0.00000000000E+00 0. -1.
          1   -1    0    0  501    0 -0.00000000000E+00 -0.00000000000E+00 -0.38637769000E+03  0.38637769000E+03  0.00000000000E+00 0. -1.
         25    2    1    2    0    0 -0.40449529250E+03 -0.15960106931E+03  0.42487468825E+02  0.45444336880E+03  0.12499858983E+03 0.  0.
          2    1    1    2  501    0  0.16678448905E+02  0.18486894612E+02 -0.14213462241E+03  0.14429894946E+03  0.00000000000E+00 0. -1.
          1    1    1    2  502    0  0.38781684359E+03  0.14111417469E+03  0.11079325879E+04  0.11822984961E+04  0.00000000000E+00 0. -1.
         22    1    3    3    0    0 -0.19244696526E+02 -0.10686261607E+02 -0.27816668589E+02  0.35472828797E+02  0.00000000000E+00 0.  1.
         22    1    3    3    0    0 -0.38525059597E+03 -0.14891480770E+03  0.70304137414E+02  0.41897054000E+03  0.00000000000E+00 0.  1.
</event>
<event>
 7    1  0.4402832E-005  0.4302299E+03  0.7818608E-02  0.1054220E+00
          2   -1    0    0  502    0  0.00000000000E+00  0.00000000000E+00  0.24905336071E+04  0.24905336071E+04  0.00000000000E+00 0. -1.
          1   -1    0    0  501    0 -0.00000000000E+00 -0.00000000000E+00 -0.65506397949E+03  0.65506397949E+03  0.00000000000E+00 0. -1.
         25    2    1    2    0    0  0.60616348995E+03 -0.56918263738E+02 -0.15802316853E+03  0.64130358407E+03  0.12500039945E+03 0.  0.
          2    1    1    2  501    0 -0.33309229925E+03 -0.11056032420E+03 -0.11675350808E+03  0.36987220328E+03  0.00000000000E+00 0. -1.
          1    1    1    2  502    0 -0.27307119069E+03  0.16747858794E+03  0.21102463043E+04  0.21344217993E+04  0.00000000000E+00 0. -1.
         22    1    3    3    0    0  0.56040520888E+03 -0.34094784699E+02 -0.17390770199E+03  0.58775874412E+03  0.00000000000E+00 0. -1.
         22    1    3    3    0    0  0.45758281068E+02 -0.22823479039E+02  0.15884533465E+02  0.53544839948E+02  0.00000000000E+00 0. -1.
</event>
<event>
 7    1  0.4402832E-005  0.2916266E+03  0.7818608E-02  0.1148696E+00
          2   -1    0    0  502    0  0.00000000000E+00  0.00000000000E+00  0.21020390224E+04  0.21020390224E+04  0.00000000000E+00 0. -1.
          1   -1    0    0  501    0 -0.00000000000E+00 -0.00000000000E+00 -0.19319587865E+03  0.19319587865E+03  0.00000000000E+00 0. -1.
         25    2    1    2    0    0 -0.18045014040E+02  0.25873201553E+03  0.10643554966E+04  0.11026102918E+04  0.12501581581E+03 0.  0.
          2    1    1    2  501    0  0.15684653573E+03 -0.25439784925E+03 -0.36207352654E+02  0.30104829157E+03  0.00000000000E+00 0. -1.
          1    1    1    2  502    0 -0.13880152169E+03 -0.43341662801E+01  0.88069499981E+03  0.89157631760E+03  0.00000000000E+00 0. -1.
         22    1    3    3    0    0 -0.29818892285E+02  0.47293120003E+01  0.17639003713E+03  0.17895524001E+03  0.00000000000E+00 0.  1.
         22    1    3    3    0    0  0.11773878245E+02  0.25400270353E+03  0.88796545943E+03  0.92365505182E+03  0.00000000000E+00 0.  1.
</event>
<event>
 7    1  0.4402832E-005  0.8661237E+03  0.7818608E-02  0.1020494E+00
          2   -1    0    0  502    0  0.00000000000E+00  0.00000000000E+00  0.13837105647E+04  0.13837105647E+04  0.00000000000E+00 0. -1.
          1   -1    0    0  501    0 -0.00000000000E+00 -0.00000000000E+00 -0.81012559577E+03  0.81012559577E+03  0.00000000000E+00 0. -1.
         25    2    1    2    0    0 -0.36396620649E+03 -0.71150777065E+03 -0.72895042681E+02  0.81218923790E+03  0.12499185470E+03 0.  0.
          2    1    1    2  501    0  0.18509742908E+03 -0.18343549404E+03 -0.44838440744E+01  0.26063335087E+03  0.00000000000E+00 0. -1.
          1    1    1    2  502    0  0.17886877741E+03  0.89494326469E+03  0.65096385569E+03  0.11210135717E+04  0.00000000000E+00 0. -1.
         22    1    3    3    0    0 -0.24279343801E+03 -0.33806076538E+03 -0.43365969229E+02  0.41846665568E+03  0.00000000000E+00 0. -1.
         22    1    3    3    0    0 -0.12117276849E+03 -0.37344700527E+03 -0.29529073452E+02  0.39372258222E+03  0.00000000000E+00 0. -1.
</event>
<event>
 7    1  0.4402832E-005  0.1372510E+03  0.7818608E-02  0.1261047E+00
          2   -1    0    0  502    0  0.00000000000E+00  0.00000000000E+00  0.82407649950E+03  0.82407649950E+03  0.00000000000E+00 0. -1.
          1   -1    0    0  501    0 -0.00000000000E+00 -0.00000000000E+00 -0.53533364294E+03  0.53533364294E+03  0.00000000000E+00 0. -1.
         25    2    1    2    0    0 -0.10055842429E+03  0.86281277056E+02  0.46878723983E+03  0.50293411501E+03  0.12499916941E+03 0.  0.
          2    1    1    2  501    0  0.27623222148E+02 -0.13506836078E+03 -0.50313520837E+03  0.52168145681E+03  0.00000000000E+00 0. -1.
          1    1    1    2  502    0  0.72935202140E+02  0.48787083725E+02  0.32309082510E+03  0.33479457062E+03  0.00000000000E+00 0. -1.
         22    1    3    3    0    0 -0.10909023327E+03  0.14858039608E+02  0.29271438234E+03  0.31273495162E+03  0.00000000000E+00 0.  1.
         22    1    3    3    0    0  0.85318089779E+01  0.71423237448E+02  0.17607285748E+03  0.19019916339E+03  0.00000000000E+00 0.  1.
</event>
<event>
 7    1  0.4402832E-005  0.4252025E+03  0.7818608E-02  0.1216717E+00
          2   -1    0    0  502    0  0.00000000000E+00  0.00000000000E+00  0.33780987673E+03  0.33780987673E+03  0.00000000000E+00 0. -1.
          1   -1    0    0  501    0 -0.00000000000E+00 -0.00000000000E+00 -0.23777394599E+04  0.23777394599E+04  0.00000000000E+00 0. -1.
         25    2    1    2    0    0 -0.26773676880E+03 -0.31623034211E+03 -0.65730706939E+03  0.78699574887E+03  0.12500047450E+03 0.  0.
          2    1    1    2  501    0  0.24464151172E+03  0.35423454831E+03 -0.16255496045E+04  0.16815894567E+04  0.00000000000E+00 0. -1.
          1    1    1    2  502    0  0.23095257087E+02 -0.38004206202E+02  0.24292709071E+03  0.24696413098E+03  0.00000000000E+00 0. -1.
         22    1    3    3    0    0 -0.13479330319E+03 -0.18233146658E+03 -0.46629545052E+03  0.51850308144E+03  0.00000000000E+00 0. -1.
         22    1    3    3    0    0 -0.13294346562E+03 -0.13389887552E+03 -0.19101161888E+03  0.26849266743E+03  0.00000000000E+00 0. -1.
</event>
<event>
 7    1  0.4402832E-005  0.1507638E+04  0.7818608E-02  0.1075327E+00
          2   -1    0    0  502    0  0.00000000000E+00  0.00000000000E+00  0.28963295968E+04  0.28963295968E+04  0.00000000000E+00 0. -1.
          1   -1    0    0  501    0 -0.00000000000E+00 -0.00000000000E+00 -0.25265812414E+04  0.25265812414E+04  0.00000000000E+00 0. -1.
         25    2    1    2    0    0 -0.62888831808E+03  0.13605773022E+04  0.18072990737E+04  0.23513031270E+04  0.12500136452E+03 0.  0.
          2    1    1    2  501    0  0.41691579354E+02  0.53996722268E+02 -0.15353657510E+04  0.15368805494E+04  0.00000000000E+00 0. -1.
          1    1    1    2  502    0  0.58719673872E+03 -0.14145740245E+04  0.97815032717E+02  0.15347271618E+04  0.00000000000E+00 0. -1.
         22    1    3    3    0    0 -0.43368249026E+03  0.79724523584E+03  0.10665904512E+04  0.14004626589E+04  0.00000000000E+00 0.  1.
         22    1    3    3    0    0 -0.19520582781E+03  0.56333206634E+03  0.74070862255E+03  0.95084046807E+03  0.00000000000E+00 0.  1.
</event>
<event>
 7    1  0.4402832E-005  0.5160903E+02  0.7818608E-02  0.1484444E+00
          2   -1    0    0  502    0  0.00000000000E+00  0.00000000000E+00  0.15655528005E+04  0.15655528005E+04  0.00000000000E+00 0. -1.
          1   -1    0    0  501    0 -0.00000000000E+00 -0.00000000000E+00 -0.22023383259E+04  0.22023383259E+04  0.00000000000E+00 0. -1.
         25    2    1    2    0    0  0.74821343690E+02 -0.16065442593E+02  0.69948448545E+03  0.71467499498E+03  0.12500188461E+03 0.  0.
          2    1    1    2  501    0 -0.41395323560E+02  0.30807823774E+02 -0.21940509104E+04  0.21946576253E+04  0.00000000000E+00 0. -1.
          1    1    1    2  502    0 -0.33426020130E+02 -0.14742381181E+02  0.85778089964E+03  0.85855850611E+03  0.00000000000E+00 0. -1.
         22    1    3    3    0    0  0.45447521211E+02  0.81500642570E+01  0.65282622377E+03  0.65445701094E+03  0.00000000000E+00 0. -1.
         22    1    3    3    0    0  0.29373822479E+02 -0.24215506850E+02  0.46658261678E+02  0.60217984040E+02  0.00000000000E+00 0. -1.
</event>
<event>
 7    1  0.4402832E-005  0.4798532E+03  0.7818608E-02  0.1067460E+00
          2   -1    0    0  502    0  0.00000000000E+00  0.00000000000E+00  0.81149642009E+03  0.81149642009E+03  0.00000000000E+00 0. -1.
          1   -1    0    0  501    0 -0.00000000000E+00 -0.00000000000E+00 -0.59927137702E+03  0.59927137702E+03  0.00000000000E+00 0. -1.
         25    2    1    2    0    0 -0.32780732789E+03 -0.16927118583E+02 -0.31429032302E+03  0.47132646520E+03  0.12500423230E+03 0.  0.
          2    1    1    2  501    0 -0.19163175624E+03  0.14233673093E+03  0.11488949673E+03  0.26491899031E+03  0.00000000000E+00 0. -1.
          1    1    1    2  502    0  0.51943908413E+03 -0.12540961234E+03  0.41162586936E+03  0.67452234160E+03  0.00000000000E+00 0. -1.
         22    1    3    3    0    0 -0.47863991465E+02  0.31461561100E+02 -0.10087162180E+03  0.11599946375E+03  0.00000000000E+00 0. -1.
         22    1    3    3    0    0 -0.27994333642E+03 -0.48388679683E+02 -0.21341870122E+03  0.35532700145E+03  0.00000000000E+00 0. -1.
</event>
<event>
 7    1  0.4402832E-005  0.3349566E+03  0.7818608E-02  0.1170494E+00
          2   -1    0    0  502    0  0.00000000000E+00  0.00000000000E+00  0.10965573417E+04  0.10965573417E+04  0.00000000000E+00 0. -1.
          1   -1    0    0  501    0 -0.00000000000E+00 -0.00000000000E+00 -0.12599964649E+04  0.12599964649E+04  0.00000000000E+00 0. -1.
         25    2    1    2    0    0  0.39869182773E+03 -0.52324842361E+02  0.35148944652E+03  0.54850988565E+03  0.12500080406E+03 0.  0.
          2    1    1    2  501    0 -0.93773768397E+02 -0.19065363792E+01 -0.11223303295E+04  0.11262426573E+04  0.00000000000E+00 0. -1.
          1    1    1    2  502    0 -0.30491805933E+03  0.54231378740E+02  0.60740175985E+03  0.68180126372E+03  0.00000000000E+00 0. -1.
         22    1    3    3    0    0  0.29510371543E+03 -0.34319331301E+01  0.30637686301E+03  0.42539953363E+03  0.00000000000E+00 0. -1.
         22    1    3    3    0    0  0.10358811230E+03 -0.48892909231E+02  0.45112583503E+02  0.12311035201E+03  0.00000000000E+00 0. -1.
</event>
<event>
 7    1  0.4402832E-005  0.2206874E+03  0.7818608E-02  0.1242480E+00
          2   -1    0    0  502    0  0.00000000000E+00  0.00000000000E+00  0.11387727185E+04  0.11387727185E+04  0.00000000000E+00 0. -1.
          1   -1    0    0  501    0 -0.00000000000E+00 -0.00000000000E+00 -0.13444790303E+03  0.13444790303E+03  0.00000000000E+00 0. -1.
         25    2    1    2    0    0  0.22328117218E+03  0.13554851473E+02  0.16834895816E+03  0.30659873736E+03  0.12499279254E+03 0.  0.
          2    1    1    2  501    0 -0.76671611269E+01 -0.65209982557E+02 -0.30379054087E+02  0.72346486522E+02  0.00000000000E+00 0. -1.
          1    1    1    2  502    0 -0.21561401105E+03  0.51655131083E+02  0.86635491142E+03  0.89427539767E+03  0.00000000000E+00 0. -1.
         22    1    3    3    0    0  0.16449163624E+03  0.29383027126E+02  0.51520076526E+02  0.17485759623E+03  0.00000000000E+00 0. -1.
         22    1    3    3    0    0  0.58789535940E+02 -0.15828175653E+02  0.11682888163E+03  0.13174114112E+03  0.00000000000E+00 0. -1.
</event>
<event>
 7    1  0.4402832E-005  0.1165780E+04  0.7818608E-02  0.1092692E+00
          2   -1    0    0  502    0  0.00000000000E+00  0.00000000000E+00  0.26528151536E+04  0.26528151536E+04  0.00000000000E+00 0. -1.
          1   -1    0    0  501    0 -0.00000000000E+00 -0.00000000000E+00 -0.10987565464E+04  0.10987565464E+04  0.00000000000E+00 0. -1.
         25    2    1    2    0    0  0.10953243944E+04 -0.49319246167E+03  0.14682257524E+04  0.19011276857E+04  0.12500113717E+03 0.  0.
          2    1    1    2  501    0 -0.10769118065E+04  0.42571225198E+03 -0.49936189859E+03  0.12610837666E+04  0.00000000000E+00 0. -1.
          1    1    1    2  502    0 -0.18412587815E+02  0.67480209689E+02  0.58519475345E+03  0.58936024769E+03  0.00000000000E+00 0. -1.
         22    1    3    3    0    0  0.20825992409E+03 -0.14799509995E+03  0.29167892287E+03  0.38775164686E+03  0.00000000000E+00 0.  1.
         22    1    3    3    0    0  0.88706447027E+03 -0.34519736171E+03  0.11765468295E+04  0.15133760388E+04  0.00000000000E+00 0.  1.
</event>
<event>
 7    1  0.4402832E-005  0.3703175E+03  0.7818608E-02  0.1149293E+00
          2   -1    0    0  502    0  0.00000000000E+00  0.00000000000E+00  0.20754880310E+04  0.20754880310E+04  0.00000000000E+00 0. -1.
          1   -1    0    0  501    0 -0.00000000000E+00 -0.00000000000E+00 -0.15266815499E+04  0.15266815499E+04  0.00000000000E+00 0. -1.
         25    2    1    2    0    0 -0.34165110368E+03 -0.15914759973E+03  0.15526871737E+04  0.16026590113E+04  0.12500004688E+03 0.  0.
          2    1    1    2  501    0 -0.18678121846E+02  0.10696981617E+03 -0.14327945291E+04  0.14369034680E+04  0.00000000000E+00 0. -1.
          1    1    1    2  502    0  0.36032922553E+03  0.52177783557E+02  0.42891383633E+03  0.56260710168E+03  0.00000000000E+00 0. -1.
         22    1    3    3    0    0 -0.10368718529E+03 -0.71181544835E+02  0.31387336291E+03  0.33813360180E+03  0.00000000000E+00 0.  1.
         22    1    3    3    0    0 -0.23796391839E+03 -0.87966054893E+02  0.12388138108E+04  0.12645254095E+04  0.00000000000E+00 0.  1.
</event>
<event>
 7    1  0.4402832E-005  0.1055461E+04  0.7818608E-02  0.9834964E-01
          2   -1    0    0  502    0  0.00000000000E+00  0.00000000000E+00  0.13105335746E+04  0.13105335746E+04  0.00000000000E+00 0. -1.
          1   -1    0    0  501    0 -0.00000000000E+00 -0.00000000000E+00 -0.25752751721E+04  0.25752751721E+04  0.00000000000E+00 0. -1.
         25    2    1    2    0    0 -0.21332048108E+03 -0.96628827712E+03  0.33986408438E+03  0.10537317963E+04  0.12499776212E+03 0.  0.
          2    1    1    2  501    0 -0.37428518512E+03 -0.77727943874E+02 -0.15886044529E+04  0.16339507767E+04  0.00000000000E+00 0. -1.
          1    1    1    2  502    0  0.58760566621E+03  0.10440162210E+04 -0.16001228965E+02  0.11981261736E+04  0.00000000000E+00 0. -1.
         22    1    3    3    0    0 -0.17112732370E+03 -0.61360514885E+03  0.16616095864E+03  0.65833525181E+03  0.00000000000E+00 0. -1.
         22    1    3    3    0    0 -0.42193157385E+02 -0.35268312827E+03  0.17370312574E+03  0.39539654448E+03  0.00000000000E+00 0. -1.
</event>
<event>
 7    1  0.4402832E-005  0.3755697E+03  0.7818608E-02  0.1116046E+00
          2   -1    0    0  502    0  0.00000000000E+00  0.00000000000E+00  0.84984741121E+03  0.84984741121E+03  0.00000000000E+00 0. -1.
          1   -1    0    0  501    0 -0.00000000000E+00 -0.00000000000E+00 -0.16555102193E+04  0.16555102193E+04  0.00000000000E+00 0. -1.
         25    2    1    2    0    0  0.28761280150E+03  0.25641132054E+03 -0.93789850273E+02  0.41579970150E+03  0.12499986745E+03 0.  0.
          2    1    1    2  501    0  0.74298670799E+02 -0.14255178147E+03 -0.13433160960E+04  0.13529003795E+04  0.00000000000E+00 0. -1.
          1    1    1    2  502    0 -0.36191147230E+03 -0.11385953907E+03  0.63144313824E+03  0.73665754951E+03  0.00000000000E+00 0. -1.
         22    1    3    3    0    0  0.71584008741E+02  0.13390738415E+03 -0.45548121273E+01  0.15190853877E+03  0.00000000000E+00 0. -1.
         22    1    3    3    0    0  0.21602879276E+03  0.12250393639E+03 -0.89235038146E+02  0.26389116273E+03  0.00000000000E+00 0. -1.
</event>
<event>
 7    1  0.5067654E-005  0.2384646E+03  0.7818608E-02  0.1219237E+00
          2   -1    0    0  502    0  0.00000000000E+00  0.00000000000E+00  0.20305919902E+04  0.20305919902E+04  0.00000000000E+00 0. -1.
          1   -1    0    0  501    0 -0.00000000000E+00 -0.00000000000E+00 -0.69278158147E+03  0.69278158147E+03  0.00000000000E+00 0. -1.
         25    2    1    2    0    0 -0.29187982382E+03 -0.92471941104E+02 -0.50578711064E+03  0.60430965304E+03  0.12499865611E+03 0.  0.
          2    1    1    2  501    0  0.57882912626E+02  0.51111657458E+02 -0.11915007855E+03  0.14198441577E+03  0.00000000000E+00 0. -1.
          1    1    1    2  502    0  0.23399691119E+03  0.41360283646E+02  0.19627475979E+04  0.19770795029E+04  0.00000000000E+00 0. -1.
         22    1    3    3    0    0 -0.23089308093E+02  0.25705940362E+02 -0.79510221230E+02  0.86693637588E+02  0.00000000000E+00 0. -1.
         22    1    3    3    0    0 -0.26879051572E+03 -0.11817788147E+03 -0.42627688941E+03  0.51761601545E+03  0.00000000000E+00 0. -1.
</event>
<event>
 7    1  0.4402832E-005  0.1898713E+03  0.7818608E-02  0.1171528E+00
          2   -1    0    0  502    0  0.00000000000E+00  0.00000000000E+00  0.27143105295E+04  0.27143105295E+04  0.00000000000E+00 0. -1.
          1   -1    0    0  501    0 -0.00000000000E+00 -0.00000000000E+00 -0.19491611302E+04  0.19491611302E+04  0.00000000000E+00 0. -1.
         25    2    1    2    0    0  0.69973975487E+02  0.11407817554E+03  0.67816759133E+03  0.70245762851E+03  0.12500100214E+03 0.  0.
          2    1    1    2  501    0 -0.11198973064E+03  0.11915217226E+03 -0.19266037697E+04  0.19335307149E+04  0.00000000000E+00 0. -1.
          1    1    1    2  502    0  0.42015755154E+02 -0.23323034781E+03  0.20135855777E+04  0.20274833163E+04  0.00000000000E+00 0. -1.
         22    1    3    3    0    0  0.42496039699E+02  0.52699610676E+02  0.57712612996E+03  0.58108324037E+03  0.00000000000E+00 0. -1.
         22    1    3    3    0    0  0.27477935788E+02  0.61378564865E+02  0.10104146137E+03  0.12137438814E+03  0.00000000000E+00 0. -1.
</event>
<event>
 7    1  0.4402832E-005  0.3964030E+03  0.7818608E-02  0.1153035E+00
          2   -1    0    0  502    0  0.00000000000E+00  0.00000000000E+00  0.12158996707E+04  0.12158996707E+04  0.00000000000E+00 0. -1.
          1   -1    0    0  501    0 -0.00000000000E+00 -0.00000000000E+00 -0.52120127513E+03  0.52120127513E+03  0.00000000000E+00 0. -1.
         25    2    1    2    0    0 -0.19953527862E+03  0.40896344016E+03 -0.21898656226E+02  0.47240896738E+03  0.12500103405E+03 0.  0.
          2    1    1    2  501    0  0.13025658272E+03 -0.34099613808E+03 -0.14856573072E+03  0.39410267682E+03  0.00000000000E+00 0. -1.
          1    1    1    2  502    0  0.69278695897E+02 -0.67967302078E+02  0.86516278249E+03  0.87058930161E+03  0.00000000000E+00 0. -1.
         22    1    3    3    0    0 -0.16566887316E+03  0.20477617524E+03  0.65811803043E+01  0.26348200966E+03  0.00000000000E+00 0.  1.
         22    1    3    3    0    0 -0.33866405464E+02  0.20418726492E+03 -0.28479836530E+02  0.20892695772E+03  0.00000000000E+00 0.  1.
</event>
<event>
 7    1  0.4402832E-005  0.1613799E+03  0.7818608E-02  0.1201708E+00
          2   -1    0    0  502    0  0.00000000000E+00  0.00000000000E+00  0.21011369099E+03  0.21011369099E+03  0.00000000000E+00 0. -1.
          1   -1    0    0  501    0 -0.00000000000E+00 -0.00000000000E+00 -0.15338153820E+04  0.15338153820E+04  0.00000000000E+00 0. -1.
         25    2    1    2    0    0 -0.11839727701E+03  0.27018604297E+03  0.14335080789E+02  0.32069839588E+03  0.12499421411E+03 0.  0.
          2    1    1    2  501    0  0.61539025446E+02 -0.14491702371E+03 -0.12500609807E+04  0.12599366853E+04  0.00000000000E+00 0. -1.
          1    1    1    2  502    0  0.56858251560E+02 -0.12526901926E+03 -0.87975791137E+02  0.16329399188E+03  0.00000000000E+00 0. -1.
         22    1    3    3    0    0 -0.23623060878E+02  0.81258206959E+01 -0.29438954614E+02  0.38609973012E+02  0.00000000000E+00 0. -1.
         22    1    3    3    0    0 -0.94774216128E+02  0.26206022227E+03  0.43774035403E+02  0.28208842287E+03  0.00000000000E+00 0. -1.
</event>
<event>
 7    1  0.4402832E-005  0.9071092E+03  0.7818608E-02  0.1151516E+00
          2   -1    0    0  502    0  0.00000000000E+00  0.00000000000E+00  0.18104815302E+04  0.18104815302E+04  0.00000000000E+00 0. -1.
          1   -1    0    0  501    0 -0.00000000000E+00 -0.00000000000E+00 -0.21877561219E+04  0.21877561219E+04  0.00000000000E+00 0. -1.
         25    2    1    2    0    0  0.48783111474E+03  0.74294646948E+03  0.38201268167E+03  0.97545259290E+03  0.12500167607E+03 0.  0.
          2    1    1    2  501    0 -0.10166661854E+02  0.41964657755E+02 -0.17042255665E+04  0.17047724701E+04  0.00000000000E+00 0. -1.
          1    1    1    2  502    0 -0.47766445289E+03 -0.78491112723E+03  0.94493829310E+03  0.13180125891E+04  0.00000000000E+00 0. -1.
         22    1    3    3    0    0  0.88287928740E+02  0.75664340648E+02  0.79910599091E+02  0.14108704637E+03  0.00000000000E+00 0. -1.
         22    1    3    3    0    0  0.39954318600E+03  0.66728212883E+03  0.30210208258E+03  0.83436554653E+03  0.00000000000E+00 0. -1.
</event>
<event>
 7    1  0.4402832E-005  0.1687561E+04  0.7818608E-02  0.1114651E+00
          2   -1    0    0  502    0  0.00000000000E+00  0.00000000000E+00  0.23252511421E+04  0.23252511421E+04  0.00000000000E+00 0. -1.
          1   -1    0    0  501    0 -0.00000000000E+00 -0.00000000000E+00 -0.25503352595E+04  0.25503352595E+04  0.00000000000E+00 0. -1.
         25    2    1    2    0    0  0.97370157557E+03 -0.14086422471E+04 -0.79976945563E+03  0.18941023542E+04  0.12499922959E+03 0.  0.
          2    1    1    2  501    0 -0.44278762273E+01  0.36140410665E+02 -0.80594515167E+03  0.80676720488E+03  0.00000000000E+00 0. -1.
          1    1    1    2  502    0 -0.96927369934E+03  0.13725018365E+04  0.13806304899E+04  0.21747168425E+04  0.00000000000E+00 0. -1.
         22    1    3    3    0    0  0.91920253407E+02 -0.20499586977E+03 -0.11521377652E+03  0.25248139319E+03  0.00000000000E+00 0.  1.
         22    1    3    3    0    0  0.88178132216E+03 -0.12036463774E+04 -0.68455567910E+03  0.16416209610E+04  0.00000000000E+00 0.  1.
</event>
<event>
 7    1  0.4402832E-005  0.2952764E+03  0.7818608E-02  0.1119373E+00
          2   -1    0    0  502    0  0.00000000000E+00  0.00000000000E+00  0.23969233026E+04  0.23969233026E+04  0.00000000000E+00 0. -1.
          1   -1    0    0  501    0 -0.00000000000E+00 -0.00000000000E+00 -0.21648654818E+03  0.21648654818E+03  0.00000000000E+00 0. -1.
         25    2    1    2    0    0  0.32087246986E+03 -0.17427576185E+03  0.53584742720E+03  0.66036935904E+03  0.12499616811E+03 0.  0.
          2    1    1    2  501    0 -0.28858864053E+03 -0.19147798105E+02 -0.75325872841E+01  0.28932124272E+03  0.00000000000E+00 0. -1.
          1    1    1    2  502    0 -0.32283829329E+02  0.19342355995E+03  0.16521219145E+04  0.16637192490E+04  0.00000000000E+00 0. -1.
         22    1    3    3    0    0  0.25709684363E+03 -0.83892075464E+02  0.42515653993E+03  0.50387969871E+03  0.00000000000E+00 0.  1.
         22    1    3    3    0    0  0.63775626235E+02 -0.90383686383E+02  0.11069088727E+03  0.15648966033E+03  0.00000000000E+00 0.  1.
</event>
<event>
 7    1  0.4402832E-005  0.4196662E+03  0.7818608E-02  0.1197271E+00
          2   -1    0    0  502    0  0.00000000000E+00  0.00000000000E+00  0.22202234213E+04  0.22202234213E+04  0.00000000000E+00 0. -1.
          1   -1    0    0  501    0 -0.00000000000E+00 -0.00000000000E+00 -0.13207238395E+04  0.13207238395E+04  0.00000000000E+00 0. -1.
         25    2    1    2    0    0  0.15729936883E+03  0.43537926336E+03  0.11445202856E+03  0.49297266499E+03  0.12499834874E+03 0.  0.
          2    1    1    2  501    0  0.76795160542E+01 -0.54981108265E+02 -0.11083343890E+04  0.11097238463E+04  0.00000000000E+00 0. -1.
          1    1    1    2  502    0 -0.16497888488E+03 -0.38039815509E+03  0.18933819422E+04  0.19382507495E+04  0.00000000000E+00 0. -1.
         22    1    3    3    0    0  0.14419085975E+03  0.26386262097E+03  0.32530295938E+02  0.30244455184E+03  0.00000000000E+00 0.  1.
         22    1    3    3    0    0  0.13108509080E+02  0.17151664238E+03  0.81921732618E+02  0.19052811315E+03  0.00000000000E+00 0.  1.
</event>
<event>
 7    1  0.4402832E-005  0.4244877E+03  0.7818608E-02  0.1165726E+00
          2   -1    0    0  502    0  0.00000000000E+00  0.00000000000E+00  0.11192701944E+04  0.11192701944E+04  0.00000000000E+00 0. -1.
          1   -1    0    0  501    0 -0.00000000000E+00 -0.00000000000E+00 -0.10553997446E+04  0.10553997446E+04  0.00000000000E+00 0. -1.
         25    2    1    2    0    0 -0.10972915669E+03  0.47017463638E+03  0.73069267531E+03  0.88467048263E+03  0.12500160225E+03 0.  0.
          2    1    1    2  501    0  0.13908296992E+03 -0.39772249143E+03 -0.92703757567E+03  0.10182955953E+04  0.00000000000E+00 0. -1.
          1    1    1    2  502    0 -0.29353813232E+02 -0.72452144948E+02  0.26021535012E+03  0.27170386103E+03  0.00000000000E+00 0. -1.
         22    1    3    3    0    0 -0.12163549926E+02  0.14264681477E+03  0.31873524124E+03  0.34941124727E+03  0.00000000000E+00 0. -1.
         22    1    3    3    0    0 -0.97565606767E+02  0.32752782161E+03  0.41195743406E+03  0.53525923535E+03  0.00000000000E+00 0. -1.
</event>
<event>
 7    1  0.4402832E-005  0.8488817E+03  0.7818608E-02  0.1130681E+00
          2   -1    0    0  502    0  0.00000000000E+00  0.00000000000E+00  0.24674746579E+04  0.24674746579E+04  0.00000000000E+00 0. -1.
          1   -1    0    0  501    0 -0.00000000000E+00 -0.00000000000E+00 -0.18994997196E+04  0.18994997196E+04  0.00000000000E+00 0. -1.
         25    2    1    2    0    0 -0.41126162224E+03  0.75239222062E+03 -0.16500092242E+04  0.18637021650E+04  0.12500057740E+03 0.  0.
          2    1    1    2  501    0  0.56359287869E+02  0.18420884000E+02 -0.52621234672E+02  0.79276053351E+02  0.00000000000E+00 0. -1.
          1    1    1    2  502    0  0.35490233437E+03 -0.77081310462E+03  0.22706053972E+04  0.24239961590E+04  0.00000000000E+00 0. -1.
         22    1    3    3    0    0 -0.78173325271E+02  0.12005461814E+03 -0.38450329777E+03  0.41032543927E+03  0.00000000000E+00 0. -1.
         22    1    3    3    0    0 -0.33308829697E+03  0.63233760248E+03 -0.12655059265E+04  0.14533767258E+04  0.00000000000E+00 0. -1.
</event>
<event>
 7    1  0.4402832E-005  0.8812145E+02  0.7818608E-02  0.1370113E+00
          2   -1    0    0  502    0  0.00000000000E+00  0.00000000000E+00  0.26619504850E+04  0.26619504850E+04  0.00000000000E+00 0. -1.
          1   -1    0    0  501    0 -0.00000000000E+00 -0.00000000000E+00 -0.35331323497E+02  0.35331323497E+02  0.00000000000E+00 0. -1.
         25    2    1    2    0    0 -0.22088229504E+02  0.11859935202E+03  0.24711275119E+04  0.24772261459E+04  0.12499800734E+03 0.  0.
          2    1    1    2  501    0  0.46817591061E+02 -0.73827253033E+02  0.45050871695E+02  0.98345976855E+02  0.00000000000E+00 0. -1.
          1    1    1    2  502    0 -0.24729361558E+02 -0.44772098983E+02  0.11044077789E+03  0.12170968569E+03  0.00000000000E+00 0. -1.
         22    1    3    3    0    0 -0.17296890209E+02 -0.12719760603E+02  0.91986942075E+02  0.94459368159E+02  0.00000000000E+00 0.  1.
         22    1    3    3    0    0 -0.47913392951E+01  0.13131911262E+03  0.23791405698E+04  0.23827667778E+04  0.00000000000E+00 0.  1.
</event>
<event>
 7    1  0.4402832E-005  0.1739096E+03  0.7818608E-02  0.1284469E+00
          2   -1    0    0  502    0  0.00000000000E+00  0.00000000000E+00  0.89091388923E+02  0.89091388923E+02  0.00000000000E+00 0. -1.
          1   -1    0    0  501    0 -0.00000000000E+00 -0.00000000000E+00 -0.89323872690E+03  0.89323872690E+03  0.00000000000E+00 0. -1.
         25    2    1    2    0    0  0.19859687229E+03  0.50004587546E+02 -0.20992615826E+03  0.31880512752E+03  0.12500616366E+03 0.  0.
          2    1    1    2  501    0 -0.46382913031E+02 -0.30057925225E+02 -0.44839553793E+03  0.45178912329E+03  0.00000000000E+00 0. -1.
          1    1    1    2  502    0 -0.15221395926E+03 -0.19946662321E+02 -0.14582564180E+03  0.21173586502E+03  0.00000000000E+00 0. -1.
         22    1    3    3    0    0  0.94926967515E+02  0.89660949957E+01 -0.17946469265E+03  0.20322178999E+03  0.00000000000E+00 0. -1.
         22    1    3    3    0    0  0.10366990477E+03  0.41038492550E+02 -0.30461465608E+02  0.11558333752E+03  0.00000000000E+00 0. -1.
</event>
<event>
 7    1  0.4402832E-005  0.3188434E+03  0.7818608E-02  0.1209849E+00
          2   -1    0    0  502    0  0.00000000000E+00  0.00000000000E+00  0.35592333907E+04  0.35592333907E+04  0.00000000000E+00 0. -1.
          1   -1    0    0  501    0 -0.00000000000E+00 -0.00000000000E+00 -0.24717114902E+03  0.24717114902E+03  0.00000000000E+00 0. -1.
         25    2    1    2    0    0  0.24472905815E+03  0.17820291751E+03  0.23684685291E+04  0.23910074006E+04  0.12499849840E+03 0.  0.
          2    1    1    2  501    0  0.63514680209E+02  0.59467581846E+01 -0.20358144311E+03  0.21334217237E+03  0.00000000000E+00 0. -1.
          1    1    1    2  502    0 -0.30824373836E+03 -0.18414967569E+03  0.11471751557E+04  0.12020549668E+04  0.00000000000E+00 0. -1.
         22    1    3    3    0    0  0.64492219319E+02  0.38776309137E+02  0.10741770855E+04  0.10768097602E+04  0.00000000000E+00 0. -1.
         22    1    3    3    0    0  0.18023683883E+03  0.13942660837E+03  0.12942914436E+04  0.13141976405E+04  0.00000000000E+00 0. -1.
</event>
<event>
 7    1  0.4402832E-005  0.2669398E+03  0.7818608E-02  0.1276143E+00
          2   -1    0    0  502    0  0.00000000000E+00  0.00000000000E+00  0.13353852766E+04  0.13353852766E+04  0.00000000000E+00 0. -1.
          1   -1    0    0  501    0 -0.00000000000E+00 -0.00000000000E+00 -0.27833310437E+03  0.27833310437E+03  0.00000000000E+00 0. -1.
         25    2    1    2    0    0 -0.15385697537E+03 -0.24412285474E+03  0.23262484111E+03  0.39116154410E+03  0.12500039921E+03 0.  0.
          2    1    1    2  501    0 -0.88222131766E+01  0.37964493368E+02 -0.18010005819E+03  0.18426927352E+03  0.00000000000E+00 0. -1.
          1    1    1    2  502    0  0.16267918855E+03  0.20615836137E+03  0.10045273893E+04  0.10382875634E+04  0.00000000000E+00 0. -1.
         22    1    3    3    0    0  0.10231086437E+02 -0.79472739999E+02  0.41576940011E+02  0.90273104928E+02  0.00000000000E+00 0. -1.
         22    1    3    3    0    0 -0.16408806181E+03 -0.16465011474E+03  0.19104790110E+03  0.30088843918E+03  0.00000000000E+00 0. -1.
</event>
<event>
 7    1  0.4402832E-005  0.4223222E+03  0.7818608E-02  0.1160268E+00
          2   -1    0    0  502    0  0.00000000000E+00  0.00000000000E+00  0.74670666894E+03  0.74670666894E+03  0.00000000000E+00 0. -1.
          1   -1    0    0  501    0 -0.00000000000E+00 -0.00000000000E+00 -0.51658077366E+03  0.51658077366E+03  0.00000000000E+00 0. -1.
         25    2    1    2    0    0  0.20183939445E+03  0.44849317865E+03 -0.24900674602E+03  0.56525616490E+03  0.12499959978E+03 0.  0.
          2    1    1    2  501    0 -0.24417372064E+02 -0.80058294452E+02  0.25963026637E+02  0.87633425822E+02  0.00000000000E+00 0. -1.
          1    1    1    2  502    0 -0.17742202239E+03 -0.36843488420E+03  0.45316961467E+03  0.61039785188E+03  0.00000000000E+00 0. -1.
         22    1    3    3    0    0 -0.10931869497E+02  0.86454656944E+02 -0.51157408510E+02  0.10104946276E+03  0.00000000000E+00 0. -1.
         22    1    3    3    0    0  0.21277126395E+03  0.36203852171E+03 -0.19784933751E+03  0.46420670214E+03  0.00000000000E+00 0. -1.
</event>
<event>
 7    1  0.5161785E-005  0.7799404E+02  0.7818608E-02  0.1394058E+00
          2   -1    0    0  502    0  0.00000000000E+00  0.00000000000E+00  0.15914566811E+04  0.15914566811E+04  0.00000000000E+00 0. -1.
          1   -1    0    0  501    0 -0.00000000000E+00 -0.00000000000E+00 -0.82160224883E+03  0.82160224883E+03  0.00000000000E+00 0. -1.
         25    2    1    2    0    0  0.29278787119E+02 -0.61993062138E+02  0.13746539591E+03  0.19804580738E+03  0.12500007848E+03 0.  0.
          2    1    1    2  501    0  0.15984997477E+02  0.76611483179E+02 -0.78897820870E+03  0.79285020862E+03  0.00000000000E+00 0. -1.
          1    1    1    2  502    0 -0.45263784596E+02 -0.14618421041E+02  0.14213672450E+04  0.14221629139E+04  0.00000000000E+00 0. -1.
         22    1    3    3    0    0 -0.44412299490E+02  0.25497121656E+01  0.46768656357E+02  0.64546576947E+02  0.00000000000E+00 0. -1.
         22    1    3    3    0    0  0.73691086610E+02 -0.64542774304E+02  0.90696739557E+02  0.13349923044E+03  0.00000000000E+00 0. -1.
</event>
<event>
 7    1  0.4402832E-005  0.1829452E+03  0.7818608E-02  0.1206272E+00
          2   -1    0    0  502    0  0.00000000000E+00  0.00000000000E+00  0.10359144179E+03  0.10359144179E+03  0.00000000000E+00 0. -1.
          1   -1    0    0  501    0 -0.00000000000E+00 -0.00000000000E+00 -0.85771062104E+03  0.85771062104E+03  0.00000000000E+00 0. -1.
         25    2    1    2    0    0  0.22989194364E+02 -0.18331885656E+03 -0.28509916359E+03  0.36199543024E+03  0.12499940880E+03 0.  0.
          2    1    1    2  501    0  0.10827044587E+03  0.40286770801E+02 -0.35688335096E+03  0.37511496843E+03  0.00000000000E+00 0. -1.
          1    1    1    2  502    0 -0.13125964024E+03  0.14303208576E+03 -0.11213666470E+03  0.22419166417E+03  0.00000000000E+00 0. -1.
         22    1    3    3    0    0  0.17687660736E+02  0.41862992110E+01 -0.88177583677E+02  0.90031465092E+02  0.00000000000E+00 0.  1.
         22    1    3    3    0    0  0.53015336286E+01 -0.18750515577E+03 -0.19692157992E+03  0.27196396515E+03  0.00000000000E+00 0.  1.
</event>
<event>
 7    1  0.4402832E-005  0.5724825E+03  0.7818608E-02  0.1161147E+00
          2   -1    0    0  502    0  0.00000000000E+00  0.00000000000E+00  0.82231879009E+03  0.82231879009E+03  0.00000000000E+00 0. -1.
          1   -1    0    0  501    0 -0.00000000000E+00 -0.00000000000E+00 -0.14967704740E+04  0.14967704740E+04  0.00000000000E+00 0. -1.
         25    2    1    2    0    0  0.54168646817E+03  0.21950896614E+03 -0.61591316431E+03  0.85824365307E+03  0.12499890415E+03 0.  0.
          2    1    1    2  501    0 -0.49845976523E+03 -0.26271518963E+03 -0.65343368164E+03  0.86281920743E+03  0.00000000000E+00 0. -1.
          1    1    1    2  502    0 -0.43226702937E+02  0.43206223487E+02  0.59489516203E+03  0.59802640360E+03  0.00000000000E+00 0. -1.
         22    1    3    3    0    0  0.41083928933E+03  0.15820383169E+03 -0.53423313163E+03  0.69225892045E+03  0.00000000000E+00 0. -1.
         22    1    3    3    0    0  0.13084717885E+03  0.61305134453E+02 -0.81680032686E+02  0.16598473262E+03  0.00000000000E+00 0. -1.
</event>
<event>
 7    1  0.4402832E-005  0.2675836E+03  0.7818608E-02  0.1137966E+00
          2   -1    0    0  502    0  0.00000000000E+00  0.00000000000E+00  0.11604221352E+04  0.11604221352E+04  0.00000000000E+00 0. -1.
          1   -1    0    0  501    0 -0.00000000000E+00 -0.00000000000E+00 -0.11429021839E+04  0.11429021839E+04  0.00000000000E+00 0. -1.
         25    2    1    2    0    0 -0.31792497227E+03 -0.90762704012E+02  0.71724973435E+03  0.79961668111E+03  0.12500199533E+03 0.  0.
          2    1    1    2  501    0  0.92410157501E+02  0.14521561415E+03 -0.10607211354E+04  0.10745959886E+04  0.00000000000E+00 0. -1.
          1    1    1    2  502    0  0.22551481477E+03 -0.54452910138E+02  0.36099135230E+03  0.42911164927E+03  0.00000000000E+00 0. -1.
         22    1    3    3    0    0 -0.13218792689E+03 -0.37276407282E+02  0.16593026355E+03  0.21539737908E+03  0.00000000000E+00 0.  1.
         22    1    3    3    0    0 -0.18573704539E+03 -0.53486296730E+02  0.55131947081E+03  0.58421930202E+03  0.00000000000E+00 0.  1.
</event>
<event>
 7    1  0.4402832E-005  0.4940884E+03  0.7818608E-02  0.1202324E+00
          2   -1    0    0  502    0  0.00000000000E+00  0.00000000000E+00  0.94863392925E+03  0.94863392925E+03  0.00000000000E+00 0. -1.
          1   -1    0    0  501    0 -0.00000000000E+00 -0.00000000000E+00 -0.17837921926E+04  0.17837921926E+04  0.00000000000E+00 0. -1.
         25    2    1    2    0    0 -0.46652690592E+03 -0.23468051339E+03 -0.16047928292E+03  0.56044817155E+03  0.12500502162E+03 0.  0.
          2    1    1    2  501    0  0.18803021624E+02  0.40480476288E+02 -0.13433851008E+04  0.13441263898E+04  0.00000000000E+00 0. -1.
          1    1    1    2  502    0  0.44772388430E+03  0.19420003711E+03  0.66870612033E+03  0.82785156058E+03  0.00000000000E+00 0. -1.
         22    1    3    3    0    0 -0.31975680153E+03 -0.93333486070E+02 -0.93923687977E+02  0.34608844377E+03  0.00000000000E+00 0.  1.
         22    1    3    3    0    0 -0.14677010439E+03 -0.14134702732E+03 -0.66555594940E+02  0.21435972778E+03  0.00000000000E+00 0.  1.
</event>
<event>
 7    1  0.4402832E-005  0.4641477E+02  0.7818608E-02  0.1528530E+00
          2   -1    0    0  502    0  0.00000000000E+00  0.00000000000E+00  0.90414360157E+03  0.90414360157E+03  0.00000000000E+00 0. -1.
          1   -1    0    0  501    0 -0.00000000000E+00 -0.00000000000E+00 -0.70550903003E+02  0.70550903003E+02  0.00000000000E+00 0. -1.
         25    2    1    2    0    0 -0.71435957614E+02  0.14094200583E+02  0.20891194912E+03  0.25410617095E+03  0.12499600433E+03 0.  0.
          2    1    1    2  501    0  0.45252327114E+02  0.71918350684E+00 -0.36856829228E+02  0.58367081432E+02  0.00000000000E+00 0. -1.
          1    1    1    2  502    0  0.26183630500E+02 -0.14813384090E+02  0.66153757868E+03  0.66222125219E+03  0.00000000000E+00 0. -1.
         22    1    3    3    0    0 -0.57445256345E+01  0.34338108642E+02  0.68037225017E+00  0.34821949777E+02  0.00000000000E+00 0.  1.
         22    1    3    3    0    0 -0.65691431979E+02 -0.20243908059E+02  0.20823157687E+03  0.21928422118E+03  0.00000000000E+00 0.  1.
</event>
<event>
 7    1  0.4402832E-005  0.6067078E+03  0.7818608E-02  0.1149190E+00
          2   -1    0    0  502    0  0.00000000000E+00  0.00000000000E+00  0.83878469549E+03  0.83878469549E+03  0.00000000000E+00 0. -1.
          1   -1    0    0  501    0 -0.00000000000E+00 -0.00000000000E+00 -0.90148816806E+03  0.90148816806E+03  0.00000000000E+00 0. -1.
         25    2    1    2    0    0  0.37794353897E+03  0.50020297644E+03  0.64649792231E+02  0.64253350310E+03  0.12500148271E+03 0.  0.
          2    1    1    2  501    0  0.24239808369E+02 -0.61774256743E+02 -0.42662510306E+03  0.43175526131E+03  0.00000000000E+00 0. -1.
          1    1    1    2  502    0 -0.40218334734E+03 -0.43842871970E+03  0.29927183827E+03  0.66598409914E+03  0.00000000000E+00 0. -1.
         22    1    3    3    0    0  0.67898212490E+02  0.18362995360E+03  0.30064072059E+02  0.19807568136E+03  0.00000000000E+00 0.  1.
         22    1    3    3    0    0  0.31004532648E+03  0.31657302284E+03  0.34585720172E+02  0.44445782174E+03  0.00000000000E+00 0.  1.
</event>
<event>
 7    1  0.4402832E-005  0.1302936E+03  0.7818608E-02  0.1420126E+00
          2   -1    0    0  502    0  0.00000000000E+00  0.00000000000E+00  0.40447278512E+02  0.40447278512E+02  0.00000000000E+00 0. -1.
          1   -1    0    0  501    0 -0.00000000000E+00 -0.00000000000E+00 -0.89569885182E+03  0.89569885182E+03  0.00000000000E+00 0. -1.
         25    2    1    2    0    0 -0.13219921697E+03  0.55344291309E+02 -0.31497522170E+03  0.36793083203E+03  0.12499633324E+03 0.  0.
          2    1    1    2  501    0  0.21485639531E+02 -0.87844463597E+01 -0.28664767956E+03  0.28758597219E+03  0.00000000000E+00 0. -1.
          1    1    1    2  502    0  0.11071357743E+03 -0.46559844949E+02 -0.25362867204E+03  0.28062932611E+03  0.00000000000E+00 0. -1.
         22    1    3    3    0    0  0.22114766610E+02 -0.50545178032E+01 -0.56641340995E+02  0.61015183046E+02  0.00000000000E+00 0. -1.
         22    1    3    3    0    0 -0.15431398358E+03  0.60398809112E+02 -0.25833388071E+03  0.30691564898E+03  0.00000000000E+00 0. -1.
</event>
<event>
 7    1  0.4402832E-005  0.8694441E+03  0.7818608E-02  0.1176180E+00
          2   -1    0    0  502    0  0.00000000000E+00  0.00000000000E+00  0.31046748675E+04  0.31046748675E+04  0.00000000000E+00 0. -1.
          1   -1    0    0  501    0 -0.00000000000E+00 -0.00000000000E+00 -0.14155879892E+04  0.14155879892E+04  0.00000000000E+00 0. -1.
         25    2    1    2    0    0  0.58669304529E+02 -0.86240995058E+03  0.16101166157E+04  0.18317461551E+04  0.12500180140E+03 0.  0.
          2    1    1    2  501    0 -0.31179122668E+02 -0.13234754291E+02 -0.11658371965E+04  0.11663291410E+04  0.00000000000E+00 0. -1.
          1    1    1    2  502    0 -0.27490181861E+02  0.87564470488E+03  0.12448074591E+04  0.15221875606E+04  0.00000000000E+00 0. -1.
         22    1    3    3    0    0  0.88983948294E+02 -0.48895289221E+03  0.86059128597E+03  0.99378591022E+03  0.00000000000E+00 0.  1.
         22    1    3    3    0    0 -0.30314643765E+02 -0.37345705837E+03  0.74952532969E+03  0.83796024483E+03  0.00000000000E+00 0.  1.
</event>
<event>
 7    1  0.4402832E-005  0.3389070E+03  0.7818608E-02  0.1088732E+00
          2   -1    0    0  502    0  0.00000000000E+00  0.00000000000E+00  0.18743130811E+04  0.18743130811E+04  0.00000000000E+00 0. -1.
          1   -1    0    0  501    0 -0.00000000000E+00 -0.00000000000E+00 -0.57447673846E+03  0.57447673846E+03  0.00000000000E+00 0. -1.
         25    2    1    2    0    0 -0.20822236085E+03 -0.24599761283E+03 -0.14098371072E+03  0.37331251365E+03  0.12495778920E+03 0.  0.
          2    1    1    2  501    0 -0.13627393646E+03  0.21377388511E+03 -0.24617105693E+03  0.35336956431E+03  0.00000000000E+00 0. -1.
          1    1    1    2  502    0  0.34449629731E+03  0.32223727719E+02  0.16869911103E+04  0.17221077416E+04  0.00000000000E+00 0. -1.
         22    1    3    3    0    0 -0.21573184684E+03 -0.23986624977E+03 -0.15367649380E+03  0.35734089084E+03  0.00000000000E+00 0. -1.
         22    1    3    3    0    0  0.75094859848E+01 -0.61313630594E+01  0.12692783083E+02  0.15971622808E+02  0.00000000000E+00 0. -1.
</event>
<event>
 7    1  0.4402832E-005  0.1563845E+03  0.7818608E-02  0.1254414E+00
          2   -1    0    0  502    0  0.00000000000E+00  0.00000000000E+00  0.43465490521E+03  0.43465490521E+03  0.00000000000E+00 0. -1.
          1   -1    0    0  501    0 -0.00000000000E+00 -0.00000000000E+00 -0.41288457534E+03  0.41288457534E+03  0.00000000000E+00 0. -1.
         25    2    1    2    0    0 -0.26041313172E+02 -0.15696649664E+03  0.37454708437E+03  0.42570975078E+03  0.12500656957E+03 0.  0.
          2    1    1    2  501    0 -0.70060827493E+02  0.43028946165E+02 -0.12633083655E+03  0.15072985776E+03  0.00000000000E+00 0. -1.
          1    1    1    2  502    0  0.96102140664E+02  0.11393755047E+03 -0.22644591795E+03  0.27109987201E+03  0.00000000000E+00 0. -1.
         22    1    3    3    0    0  0.19647205583E+02 -0.12806856490E+03  0.16773944173E+03  0.21195303799E+03  0.00000000000E+00 0. -1.
         22    1    3    3    0    0 -0.45688518755E+02 -0.28897931743E+02  0.20680764264E+03  0.21375671278E+03  0.00000000000E+00 0. -1.
</event>
<event>
 7    1  0.4402832E-005  0.3569496E+03  0.7818608E-02  0.1102515E+00
          2   -1    0    0  502    0  0.00000000000E+00  0.00000000000E+00  0.20984558545E+03  0.20984558545E+03  0.00000000000E+00 0. -1.
          1   -1    0    0  501    0 -0.00000000000E+00 -0.00000000000E+00 -0.14751233691E+04  0.14751233691E+04  0.00000000000E+00 0. -1.
         25    2    1    2    0    0 -0.43706900906E+02  0.19545810509E+03 -0.73531834473E+03  0.77229011941E+03  0.12499918565E+03 0.  0.
          2    1    1    2  501    0 -0.31186588119E+03 -0.22677925392E+03 -0.29191041873E+03  0.48363297078E+03  0.00000000000E+00 0. -1.
          1    1    1    2  502    0  0.35557278209E+03  0.31321148833E+02 -0.23804902021E+03  0.42904586439E+03  0.00000000000E+00 0. -1.
         22    1    3    3    0    0  0.31555346235E+02  0.13456693827E+03 -0.46790218591E+03  0.48788979938E+03  0.00000000000E+00 0.  1.
         22    1    3    3    0    0 -0.75262247141E+02  0.60891166811E+02 -0.26741615882E+03  0.28440032004E+03  0.00000000000E+00 0.  1.
</event>
<event>
 7    1  0.4402832E-005  0.6918443E+03  0.7818608E-02  0.1162865E+00
          2   -1    0    0  502    0  0.00000000000E+00  0.00000000000E+00  0.27544624849E+04  0.27544624849E+04  0.00000000000E+00 0. -1.
          1   -1    0    0  501    0 -0.00000000000E+00 -0.00000000000E+00 -0.11608165905E+04  0.11608165905E+04  0.00000000000E+00 0. -1.
         25    2    1    2    0    0  0.39580214303E+03  0.58781891536E+03  0.17230507919E+04  0.18672760740E+04  0.12500196448E+03 0.  0.
          2    1    1    2  501    0 -0.43668514236E+02 -0.23467837313E+02 -0.97268071925E+03  0.97394325303E+03  0.00000000000E+00 0. -1.
          1    1    1    2  502    0 -0.35213362879E+03 -0.56435107805E+03  0.84327582169E+03  0.10740597485E+04  0.00000000000E+00 0. -1.
         22    1    3    3    0    0  0.26050485857E+03  0.32235021782E+03  0.11294489669E+04  0.12030907751E+04  0.00000000000E+00 0.  1.
         22    1    3    3    0    0  0.13529728446E+03  0.26546869754E+03  0.59360182500E+03  0.66418529884E+03  0.00000000000E+00 0.  1.
</event>
<event>
 7    1  0.4402832E-005  0.6444458E+03  0.7818608E-02  0.1241511E+00
          2   -1    0    0  502    0  0.00000000000E+00  0.00000000000E+00  0.11385742477E+04  0.11385742477E+04  0.00000000000E+00 0. -1.
          1   -1    0    0  501    0 -0.00000000000E+00 -0.00000000000E+00 -0.70199278480E+03  0.70199278480E+03  0.00000000000E+00 0. -1.
         25    2    1    2    0    0 -0.35633178367E+03 -0.53692801650E+03  0.73785591730E+03  0.98758242814E+03  0.12499465079E+03 0.  0.
          2    1    1    2  501    0  0.33725538597E+03  0.54924313371E+03 -0.39541155377E+03  0.75614781104E+03  0.00000000000E+00 0. -1.
          1    1    1    2  502    0  0.19076397699E+02 -0.12315117211E+02  0.94137099343E+02  0.96836793286E+02  0.00000000000E+00 0. -1.
         22    1    3    3    0    0 -0.55532499578E+02 -0.12584083898E+03  0.23189677948E+03  0.26962175654E+03  0.00000000000E+00 0.  1.
         22    1    3    3    0    0 -0.30079928409E+03 -0.41108717752E+03  0.50595913782E+03  0.71796067160E+03  0.00000000000E+00 0.  1.
</event>
<event>
 7    1  0.4402832E-005  0.3109279E+03  0.7818608E-02  0.1206079E+00
          2   -1    0    0  502    0  0.00000000000E+00  0.00000000000E+00  0.93669522583E+03  0.93669522583E+03  0.00000000000E+00 0. -1.
          1   -1    0    0  501    0 -0.00000000000E+00 -0.00000000000E+00 -0.10669305829E+04  0.10669305829E+04  0.00000000000E+00 0. -1.
         25    2    1    2    0    0 -0.15903510328E+03 -0.29210046518E+03  0.59198931639E+03  0.69042884539E+03  0.12500317596E+03 0.  0.
          2    1    1    2  501    0 -0.12460611464E+02  0.66963564247E+02 -0.94844074994E+03  0.95088340081E+03  0.00000000000E+00 0. -1.
          1    1    1    2  502    0  0.17149571474E+03  0.22513690093E+03  0.22621607649E+03  0.36231356253E+03  0.00000000000E+00 0. -1.
         22    1    3    3    0    0  0.11179948022E+02 -0.59373472768E+02  0.58990637665E+02  0.84439894827E+02  0.00000000000E+00 0.  1.
         22    1    3    3    0    0 -0.17021505130E+03 -0.23272699241E+03  0.53299867873E+03  0.60598895057E+03  0.00000000000E+00 0.  1.
</event>
<event>
 7    1  0.4402832E-005  0.8280385E+02  0.7818608E-02  0.1370285E+00
          2   -1    0    0  502    0  0.00000000000E+00  0.00000000000E+00  0.95337314354E+03  0.95337314354E+03  0.00000000000E+00 0. -1.
          1   -1    0    0  501    0 -0.00000000000E+00 -0.00000000000E+00 -0.99024986343E+02  0.99024986343E+02  0.00000000000E+00 0. -1.
         25    2    1    2    0    0 -0.25850886419E+02 -0.31367255080E+02  0.29993032367E+03  0.32746727070E+03  0.12499776521E+03 0.  0.
          2    1    1    2  501    0 -0.18353598653E+02 -0.51162793093E+02 -0.72750172137E+02  0.90813399488E+02  0.00000000000E+00 0. -1.
          1    1    1    2  502    0  0.44204485072E+02  0.82530048173E+02  0.62716800567E+03  0.63411745969E+03  0.00000000000E+00 0. -1.
         22    1    3    3    0    0 -0.31869288671E+02  0.24923667944E+02  0.26794128599E+02  0.48525932361E+02  0.00000000000E+00 0.  1.
         22    1    3    3    0    0  0.60184022517E+01 -0.56290923024E+02  0.27313619507E+03  0.27894133834E+03  0.00000000000E+00 0.  1.
</event>
<event>
 7    1  0.4402832E-005  0.2310415E+03  0.7818608E-02  0.1314222E+00
          2   -1    0    0  502    0  0.00000000000E+00  0.00000000000E+00  0.69960209207E+03  0.69960209207E+03  0.00000000000E+00 0. -1.
          1   -1    0    0  501    0 -0.00000000000E+00 -0.00000000000E+00 -0.12951391862E+03  0.12951391862E+03  0.00000000000E+00 0. -1.
         25    2    1    2    0    0  0.23285583646E+03  0.99362052490E+02  0.47858169473E+03  0.55566169686E+03  0.12499929908E+03 0.  0.
          2    1    1    2  501    0 -0.20124367722E+03 -0.99724256468E+02  0.70131247033E+02  0.23529202443E+03  0.00000000000E+00 0. -1.
          1    1    1    2  502    0 -0.31612159239E+02  0.36220397831E+00  0.21375231682E+02  0.38162289409E+02  0.00000000000E+00 0. -1.
         22    1    3    3    0    0  0.20258347517E+03  0.82971219316E+02  0.28673541004E+03  0.36075127584E+03  0.00000000000E+00 0. -1.
         22    1    3    3    0    0  0.30272361282E+02  0.16390833174E+02  0.19184628470E+03  0.19491042102E+03  0.00000000000E+00 0. -1.
</event>
<event>
 7    1  0.4402832E-005  0.6793231E+03  0.7818608E-02  0.1042071E+00
          2   -1    0    0  502    0  0.00000000000E+00  0.00000000000E+00  0.72589802897E+03  0.72589802897E+03  0.00000000000E+00 0. -1.
          1   -1    0    0  501    0 -0.00000000000E+00 -0.00000000000E+00 -0.18570406428E+04  0.18570406428E+04  0.00000000000E+00 0. -1.
         25    2    1    2    0    0 -0.74295385366E+03  0.24853407352E+03 -0.73361827527E+03  0.10805419083E+04  0.12500170925E+03 0.  0.
          2    1    1    2  501    0  0.62351053460E+03 -0.38730561450E+02 -0.81093230169E+03  0.10236584592E+04  0.00000000000E+00 0. -1.
          1    1    1    2  502    0  0.11944331906E+03 -0.20980351207E+03  0.41340796307E+03  0.47873830438E+03  0.00000000000E+00 0. -1.
         22    1    3    3    0    0 -0.71190286934E+03  0.23088109045E+03 -0.72856041857E+03  0.10444673555E+04  0.00000000000E+00 0.  1.
         22    1    3    3    0    0 -0.31050984313E+02  0.17652983074E+02 -0.50578567022E+01  0.36074552702E+02  0.00000000000E+00 0.  1.
</event>
<event>
 7    1  0.4402832E-005  0.3460233E+03  0.7818608E-02  0.1265380E+00
          2   -1    0    0  502    0  0.00000000000E+00  0.00000000000E+00  0.66293772277E+03  0.66293772277E+03  0.00000000000E+00 0. -1.
          1   -1    0    0  501    0 -0.00000000000E+00 -0.00000000000E+00 -0.53557934869E+03  0.53557934869E+03  0.00000000000E+00 0. -1.
         25    2    1    2    0    0  0.33373130259E+03  0.10300667890E+03 -0.40718541338E+03  0.55082878890E+03  0.12500174234E+03 0.  0.
          2    1    1    2  501    0 -0.30307248259E+03 -0.11616098766E+03  0.43528334991E+03  0.54297136156E+03  0.00000000000E+00 0. -1.
          1    1    1    2  502    0 -0.30658820002E+02  0.13154308761E+02  0.99260437546E+02  0.10471692101E+03  0.00000000000E+00 0. -1.
         22    1    3    3    0    0  0.29537513724E+03  0.13127467015E+03 -0.35095181582E+03  0.47712334647E+03  0.00000000000E+00 0. -1.
         22    1    3    3    0    0  0.38356165353E+02 -0.28267991244E+02 -0.56233597554E+02  0.73705442428E+02  0.00000000000E+00 0. -1.
</event>
<event>
 7    1  0.4402832E-005  0.2178045E+03  0.7818608E-02  0.1192175E+00
          2   -1    0    0  502    0  0.00000000000E+00  0.00000000000E+00  0.87686284871E+03  0.87686284871E+03  0.00000000000E+00 0. -1.
          1   -1    0    0  501    0 -0.00000000000E+00 -0.00000000000E+00 -0.11548350095E+03  0.11548350095E+03  0.00000000000E+00 0. -1.
         25    2    1    2    0    0  0.17812234833E+03  0.95152404267E+02  0.19615433261E+03  0.30803115547E+03  0.12500047811E+03 0.  0.
          2    1    1    2  501    0 -0.14686632301E+03 -0.20385724257E+03  0.27329078798E+03  0.37123489461E+03  0.00000000000E+00 0. -1.
          1    1    1    2  502    0 -0.31256025319E+02  0.10870483830E+03  0.29193422717E+03  0.31308029957E+03  0.00000000000E+00 0. -1.
         22    1    3    3    0    0  0.11582777804E+03  0.12245209226E+03  0.12707944621E+03  0.21109186321E+03  0.00000000000E+00 0. -1.
         22    1    3    3    0    0  0.62294570286E+02 -0.27299687998E+02  0.69074886407E+02  0.96939292261E+02  0.00000000000E+00 0. -1.
</event>
<event>
 7    1  0.4402832E-005  0.1336737E+03  0.7818608E-02  0.1285775E+00
          2   -1    0    0  502    0  0.00000000000E+00  0.00000000000E+00  0.11044904720E+03  0.11044904720E+03  0.00000000000E+00 0. -1.
          1   -1    0    0  501    0 -0.00000000000E+00 -0.00000000000E+00 -0.61348295271E+03  0.61348295271E+03  0.00000000000E+00 0. -1.
         25    2    1    2    0    0 -0.21454527201E+02  0.11993138002E+03 -0.43052408083E+03  0.46456414308E+03  0.12500010485E+03 0.  0.
          2    1    1    2  501    0  0.70549931233E+02  0.82180469527E+01 -0.96738717177E+02  0.12001336798E+03  0.00000000000E+00 0. -1.
          1    1    1    2  502    0 -0.49095404032E+02 -0.12814942697E+03  0.24228892499E+02  0.13935448885E+03  0.00000000000E+00 0. -1.
         22    1    3    3    0    0 -0.53664936727E+02  0.18332229307E+02 -0.79068378074E+02  0.97302643729E+02  0.00000000000E+00 0.  1.
         22    1    3    3    0    0  0.32210409527E+02  0.10159915071E+03 -0.35145570276E+03  0.36726149935E+03  0.00000000000E+00 0.  1.
</event>
<event>
 7    1  0.4402832E-005  0.1223293E+04  0.7818608E-02  0.1002234E+00
          2   -1    0    0  502    0  0.00000000000E+00  0.00000000000E+00  0.57869551747E+04  0.57869551747E+04  0.00000000000E+00 0. -1.
          1   -1    0    0  501    0 -0.00000000000E+00 -0.00000000000E+00 -0.45812397429E+03  0.45812397429E+03  0.00000000000E+00 0. -1.
         25    2    1    2    0    0  0.13095585581E+04  0.87227399341E+02  0.10309318590E+04  0.16736180572E+04  0.12499866902E+03 0.  0.
          2    1    1    2  501    0 -0.10691944749E+04 -0.13160582330E+03  0.21017084629E+04  0.23617102660E+04  0.00000000000E+00 0. -1.
          1    1    1    2  502    0 -0.24036408318E+03  0.44378423963E+02  0.21961908785E+04  0.22097508258E+04  0.00000000000E+00 0. -1.
         22    1    3    3    0    0 -0.96945552219E+00 -0.42922097365E+01  0.56765666313E+01  0.71823615302E+01  0.00000000000E+00 0. -1.
         22    1    3    3    0    0  0.13105280136E+04  0.91519609078E+02  0.10252552923E+04  0.16664356956E+04  0.00000000000E+00 0. -1.
</event>
<event>
 7    1  0.4402832E-005  0.5905463E+03  0.7818608E-02  0.1105012E+00
          2   -1    0    0  502    0  0.00000000000E+00  0.00000000000E+00  0.20410416850E+04  0.20410416850E+04  0.00000000000E+00 0. -1.
          1   -1    0    0  501    0 -0.00000000000E+00 -0.00000000000E+00 -0.25984516890E+03  0.25984516890E+03  0.00000000000E+00 0. -1.
         25    2    1    2    0    0  0.43854925251E+03 -0.37387119533E+03  0.45280759912E+03  0.74347996450E+03  0.12499047251E+03 0.  0.
          2    1    1    2  501    0 -0.53565994365E+03  0.30746728983E+03  0.77172126829E+03  0.98844394149E+03  0.00000000000E+00 0. -1.
          1    1    1    2  502    0  0.97110691144E+02  0.66403905506E+02  0.55666764872E+03  0.56896294794E+03  0.00000000000E+00 0. -1.
         22    1    3    3    0    0  0.29246440969E+03 -0.16828055482E+03  0.25407905633E+03  0.42238601176E+03  0.00000000000E+00 0. -1.
         22    1    3    3    0    0  0.14608484282E+03 -0.20559064051E+03  0.19872854279E+03  0.32109395274E+03  0.00000000000E+00 0. -1.
</event>
<event>
 7    1  0.4402832E-005  0.2945573E+03  0.7818608E-02  0.1097866E+00
          2   -1    0    0  502    0  0.00000000000E+00  0.00000000000E+00  0.14923322729E+03  0.14923322729E+03  0.00000000000E+00 0. -1.
          1   -1    0    0  501    0 -0.00000000000E+00 -0.00000000000E+00 -0.20636230268E+04  0.20636230268E+04  0.00000000000E+00 0. -1.
         25    2    1    2    0    0 -0.24360767208E+03  0.16862889721E+03 -0.67449704597E+03  0.74722941878E+03  0.12500054560E+03 0.  0.
          2    1    1    2  501    0  0.32718082307E+03  0.76205029943E+02 -0.11397310294E+04  0.11882092900E+04  0.00000000000E+00 0. -1.
          1    1    1    2  502    0 -0.83573150990E+02 -0.24483392715E+03 -0.10016172417E+03  0.27741754530E+03  0.00000000000E+00 0. -1.
         22    1    3    3    0    0 -0.12147266517E+03  0.13406007084E+03 -0.49790044730E+03  0.52974764407E+03  0.00000000000E+00 0.  1.
         22    1    3    3    0    0 -0.12213500691E+03  0.34568826366E+02 -0.17659659867E+03  0.21748177471E+03  0.00000000000E+00 0.  1.
</event>
<event>
 7    1  0.4402832E-005  0.1328944E+03  0.7818608E-02  0.1276669E+00
          2   -1    0    0  502    0  0.00000000000E+00  0.00000000000E+00  0.46719757831E+03  0.46719757831E+03  0.00000000000E+00 0. -1.
          1   -1    0    0  501    0 -0.00000000000E+00 -0.00000000000E+00 -0.56351355621E+03  0.56351355621E+03  0.00000000000E+00 0. -1.
         25    2    1    2    0    0 -0.62091200997E+02  0.14952806667E+03 -0.54777762120E+02  0.21172715873E+03  0.12495529823E+03 0.  0.
          2    1    1    2  501    0  0.10206359082E+03 -0.82669073782E+02 -0.41613646126E+03  0.43637221121E+03  0.00000000000E+00 0. -1.
          1    1    1    2  502    0 -0.39972389818E+02 -0.66858992890E+02  0.37459824548E+03  0.38261176458E+03  0.00000000000E+00 0. -1.
         22    1    3    3    0    0 -0.43081996580E+02  0.56529500665E+02  0.36621613949E+02  0.79954896554E+02  0.00000000000E+00 0. -1.
         22    1    3    3    0    0 -0.19009204418E+02  0.92998566007E+02 -0.91399376069E+02  0.13177226217E+03  0.00000000000E+00 0. -1.
</event>
<event>
 7    1  0.4402832E-005  0.6213853E+03  0.7818608E-02  0.1127675E+00
          2   -1    0    0  502    0  0.00000000000E+00  0.00000000000E+00  0.12897195815E+04  0.12897195815E+04  0.00000000000E+00 0. -1.
          1   -1    0    0  501    0 -0.00000000000E+00 -0.00000000000E+00 -0.62743105099E+03  0.62743105099E+03  0.00000000000E+00 0. -1.
         25    2    1    2    0    0 -0.67118031731E+03  0.61796830538E+02  0.29460934648E+03  0.74613802416E+03  0.12500166981E+03 0.  0.
          2    1    1    2  501    0  0.59211541900E+03 -0.90315894512E+02 -0.17330965099E+03  0.62353337148E+03  0.00000000000E+00 0. -1.
          1    1    1    2  502    0  0.79064898317E+02  0.28519063974E+02  0.54098883501E+03  0.54747923683E+03  0.00000000000E+00 0. -1.
         22    1    3    3    0    0 -0.12305018827E+03 -0.27337831613E+02  0.87502693871E+02  0.15344519317E+03  0.00000000000E+00 0. -1.
         22    1    3    3    0    0 -0.54813012904E+03  0.89134662151E+02  0.20710665261E+03  0.59269283100E+03  0.00000000000E+00 0. -1.
</event>
<event>
 7    1  0.4402832E-005  0.2596886E+03  0.7818608E-02  0.1204221E+00
          2   -1    0    0  502    0  0.00000000000E+00  0.00000000000E+00  0.40469727759E+03  0.40469727759E+03  0.00000000000E+00 0. -1.
          1   -1    0    0  501    0 -0.00000000000E+00 -0.00000000000E+00 -0.12440422611E+04  0.12440422611E+04  0.00000000000E+00 0. -1.
         25    2    1    2    0    0 -0.31189902466E+03  0.80538819418E+02 -0.33954357242E+03  0.48443033677E+03  0.12496163652E+03 0.  0.
          2    1    1    2  501    0  0.80469960735E+02  0.21139383373E+02 -0.78144617711E+03  0.78586284797E+03  0.00000000000E+00 0. -1.
          1    1    1    2  502    0  0.23142906392E+03 -0.10167820279E+03  0.28164476604E+03  0.37844635391E+03  0.00000000000E+00 0. -1.
         22    1    3    3    0    0 -0.21196469488E+03  0.81979471086E+02 -0.15669281615E+03  0.27604764840E+03  0.00000000000E+00 0.  1.
         22    1    3    3    0    0 -0.99934329775E+02 -0.14406516678E+01 -0.18285075627E+03  0.20838268837E+03  0.00000000000E+00 0.  1.
</event>
<event>
 7    1  0.4402832E-005  0.3880165E+03  0.7818608E-02  0.1102703E+00
          2   -1    0    0  502    0  0.00000000000E+00  0.00000000000E+00  0.11432571386E+04  0.11432571386E+04  0.00000000000E+00 0. -1.
          1   -1    0    0  501    0 -0.00000000000E+00 -0.00000000000E+00 -0.24362211879E+04  0.24362211879E+04  0.00000000000E+00 0. -1.
         25    2    1    2    0    0 -0.49212289137E+03 -0.93703017524E+02 -0.11970929232E+04  0.13036958499E+04  0.12500482674E+03 0.  0.
          2    1    1    2  501    0  0.31202608872E+03  0.13355114021E+03 -0.11533933847E+04  0.12022946756E+04  0.00000000000E+00 0. -1.
          1    1    1    2  502    0  0.18009680266E+03 -0.39848122687E+02  0.10575222586E+04  0.10734878009E+04  0.00000000000E+00 0. -1.
         22    1    3    3    0    0 -0.33381148905E+03 -0.68555271950E+02 -0.65425414791E+03  0.73768450275E+03  0.00000000000E+00 0.  1.
         22    1    3    3    0    0 -0.15831140232E+03 -0.25147745573E+02 -0.54283877527E+03  0.56601134719E+03  0.00000000000E+00 0.  1.
</event>
<event>
 7    1  0.4402832E-005  0.5653889E+02  0.7818608E-02  0.1450551E+00
          2   -1    0    0  502    0  0.00000000000E+00  0.00000000000E+00  0.60689751265E+03  0.60689751265E+03  0.00000000000E+00 0. -1.
          1   -1    0    0  501    0 -0.00000000000E+00 -0.00000000000E+00 -0.13488882456E+03  0.13488882456E+03  0.00000000000E+00 0. -1.
         25    2    1    2    0    0  0.73275567943E+02 -0.10509941813E+01 -0.26249854448E+01  0.14492894886E+03  0.12500838461E+03 0.  0.
          2    1    1    2  501    0 -0.44851966306E+02  0.32711668056E+02 -0.47458334967E+02  0.73034551182E+02  0.00000000000E+00 0. -1.
          1    1    1    2  502    0 -0.28423601638E+02 -0.31660673875E+02  0.52209200850E+03  0.52382283717E+03  0.00000000000E+00 0. -1.
         22    1    3    3    0    0  0.41291732801E+02 -0.62622041892E+02 -0.74466485371E+01  0.75378908873E+02  0.00000000000E+00 0. -1.
         22    1    3    3    0    0  0.31983835142E+02  0.61571047711E+02  0.48216630923E+01  0.69550039983E+02  0.00000000000E+00 0. -1.
</event>
<event>
 7    1  0.4402832E-005  0.7417745E+02  0.7818608E-02  0.1404061E+00
          2   -1    0    0  502    0  0.00000000000E+00  0.00000000000E+00  0.74426521541E+02  0.74426521541E+02  0.00000000000E+00 0. -1.
          1   -1    0    0  501    0 -0.00000000000E+00 -0.00000000000E+00 -0.78045432330E+03  0.78045432330E+03  0.00000000000E+00 0. -1.
         25    2    1    2    0    0  0.71215495581E+02  0.36410921072E+02 -0.66200585959E+03  0.67843499535E+03  0.12499953120E+03 0.  0.
          2    1    1    2  501    0 -0.72596213516E+02  0.97680772424E+01 -0.86734206067E+02  0.11352730091E+03  0.00000000000E+00 0. -1.
          1    1    1    2  502    0  0.13807179346E+01 -0.46178998314E+02  0.42712263902E+02  0.62918548576E+02  0.00000000000E+00 0. -1.
         22    1    3    3    0    0  0.68547384587E+02  0.75817965471E+02 -0.55585178592E+03  0.56517104998E+03  0.00000000000E+00 0. -1.
         22    1    3    3    0    0  0.26681109946E+01 -0.39407044399E+02 -0.10615407367E+03  0.11326394537E+03  0.00000000000E+00 0. -1.
</event>
<event>
 7    1  0.4402832E-005  0.5304652E+03  0.7818608E-02  0.1189531E+00
          2   -1    0    0  502    0  0.00000000000E+00  0.00000000000E+00  0.12634280412E+04  0.12634280412E+04  0.00000000000E+00 0. -1.
          1   -1    0    0  501    0 -0.00000000000E+00 -0.00000000000E+00 -0.57949262465E+03  0.57949262465E+03  0.00000000000E+00 0. -1.
         25    2    1    2    0    0  0.44812805541E+03 -0.26222461486E+03  0.84871917573E+03  0.10027599218E+04  0.12499087477E+03 0.  0.
          2    1    1    2  501    0  0.33149901718E+02 -0.34459589965E+02 -0.26213866223E+03  0.26646398924E+03  0.00000000000E+00 0. -1.
          1    1    1    2  502    0 -0.48127795712E+03  0.29668420482E+03  0.97354903093E+02  0.57369675488E+03  0.00000000000E+00 0. -1.
         22    1    3    3    0    0  0.32210818790E+03 -0.12063651172E+03  0.52536920205E+03  0.62794876474E+03  0.00000000000E+00 0. -1.
         22    1    3    3    0    0  0.12601986750E+03 -0.14158810314E+03  0.32334997368E+03  0.37481115703E+03  0.00000000000E+00 0. -1.
</event>
<event>
 7    1  0.4402832E-005  0.8319833E+03  0.7818608E-02  0.1119628E+00
          2   -1    0    0  502    0  0.00000000000E+00  0.00000000000E+00  0.12383839982E+04  0.12383839982E+04  0.00000000000E+00 0. -1.
          1   -1    0    0  501    0 -0.00000000000E+00 -0.00000000000E+00 -0.17311243527E+04  0.17311243527E+04  0.00000000000E+00 0. -1.
         25    2    1    2    0    0 -0.24551747974E+02  0.81686831399E+03  0.73652595003E+03  0.11072361387E+04  0.12499904448E+03 0.  0.
          2    1    1    2  501    0  0.25673351262E+02  0.64449986039E+02 -0.92843641183E+03  0.93102475396E+03  0.00000000000E+00 0. -1.
          1    1    1    2  502    0 -0.11216032888E+01 -0.88131830003E+03 -0.30082989271E+03  0.93124745815E+03  0.00000000000E+00 0. -1.
         22    1    3    3    0    0  0.19022168756E+02  0.51123575029E+03  0.39112516226E+03  0.64397416706E+03  0.00000000000E+00 0. -1.
         22    1    3    3    0    0 -0.43573916729E+02  0.30563256370E+03  0.34540078777E+03  0.46326197168E+03  0.00000000000E+00 0. -1.
</event>
<event>
 7    1  0.4402832E-005  0.1882401E+03  0.7818608E-02  0.1186868E+00
          2   -1    0    0  502    0  0.00000000000E+00  0.00000000000E+00  0.22288106842E+03  0.22288106842E+03  0.00000000000E+00 0. -1.
          1   -1    0    0  501    0 -0.00000000000E+00 -0.00000000000E+00 -0.19414533133E+04  0.19414533133E+04  0.00000000000E+00 0. -1.
         25    2    1    2    0    0 -0.11109320023E+03  0.20576125131E+03 -0.36837737197E+02  0.26769678168E+03  0.12500062545E+03 0.  0.
          2    1    1    2  501    0  0.13590737599E+03 -0.28099847020E+02 -0.17094926001E+04  0.17151167208E+04  0.00000000000E+00 0. -1.
          1    1    1    2  502    0 -0.24814175762E+02 -0.17766140429E+03  0.27758092416E+02  0.18152087921E+03  0.00000000000E+00 0. -1.
         22    1    3    3    0    0 -0.14875806426E+01  0.13004751192E+03 -0.34110893761E+02  0.13445490443E+03  0.00000000000E+00 0. -1.
         22    1    3    3    0    0 -0.10960561959E+03  0.75713739395E+02 -0.27268434356E+01  0.13324187725E+03  0.00000000000E+00 0. -1.
</event>
<event>
 7    1  0.4402832E-005  0.2840090E+03  0.7818608E-02  0.1119553E+00
          2   -1    0    0  502    0  0.00000000000E+00  0.00000000000E+00  0.73942856039E+03  0.73942856039E+03  0.00000000000E+00 0. -1.
          1   -1    0    0  501    0 -0.00000000000E+00 -0.00000000000E+00 -0.41584431928E+04  0.41584431928E+04  0.00000000000E+00 0. -1.
         25    2    1    2    0    0  0.23836968369E+03  0.10989914268E+03 -0.22799357476E+03  0.36946492299E+03  0.12500132607E+03 0.  0.
          2    1    1    2  501    0  0.40876839254E+02 -0.19927176031E+03 -0.38247410511E+04  0.38301467672E+04  0.00000000000E+00 0. -1.
          1    1    1    2  502    0 -0.27924652295E+03  0.89372617627E+02  0.63371999349E+03  0.69826006295E+03  0.00000000000E+00 0. -1.
         22    1    3    3    0    0  0.25306083191E+03  0.96868949362E+02 -0.21521760085E+03  0.34603756113E+03  0.00000000000E+00 0.  1.
         22    1    3    3    0    0 -0.14691148222E+02  0.13030193321E+02 -0.12775973915E+02  0.23427361856E+02  0.00000000000E+00 0.  1.
</event>
<event>
 7    1  0.4402832E-005  0.1667164E+03  0.7818608E-02  0.1191713E+00
          2   -1    0    0  502    0  0.00000000000E+00  0.00000000000E+00  0.31440155445E+04  0.31440155445E+04  0.00000000000E+00 0. -1.
          1   -1    0    0  501    0 -0.00000000000E+00 -0.00000000000E+00 -0.47572387419E+02  0.47572387419E+02  0.00000000000E+00 0. -1.
         25    2    1    2    0    0 -0.22907228679E+03 -0.28995248335E+02  0.84393214534E+03  0.88383424096E+03  0.12500665001E+03 0.  0.
          2    1    1    2  501    0  0.10875681818E+03  0.11607889223E+03  0.22914619265E+03  0.27894503459E+03  0.00000000000E+00 0. -1.
          1    1    1    2  502    0  0.12031546861E+03 -0.87083643890E+02  0.20233648191E+04  0.20288086564E+04  0.00000000000E+00 0. -1.
         22    1    3    3    0    0 -0.12235685154E+03  0.46854101200E+02  0.45250325499E+03  0.47108990829E+03  0.00000000000E+00 0. -1.
         22    1    3    3    0    0 -0.10671543525E+03 -0.75849349535E+02  0.39142889035E+03  0.41274433266E+03  0.00000000000E+00 0. -1.
</event>
<event>
 7    1  0.4402832E-005  0.6452927E+03  0.7818608E-02  0.1120247E+00
          2   -1    0    0  502    0  0.00000000000E+00  0.00000000000E+00  0.79304858366E+03  0.79304858366E+03  0.00000000000E+00 0. -1.
          1   -1    0    0  501    0 -0.00000000000E+00 -0.00000000000E+00 -0.14538924894E+04  0.14538924894E+04  0.00000000000E+00 0. -1.
         25    2    1    2    0    0  0.22839510890E+03  0.63688092392E+03 -0.11390459123E+04  0.13307261706E+04  0.12499965432E+03 0.  0.
          2    1    1    2  501    0  0.61418440195E+02 -0.64073216631E+02 -0.33918148754E+02  0.95016012863E+02  0.00000000000E+00 0. -1.
          1    1    1    2  502    0 -0.28981354909E+03 -0.57280770729E+03  0.51212015537E+03  0.82119888961E+03  0.00000000000E+00 0. -1.
         22    1    3    3    0    0  0.17356794596E+03  0.47831068906E+03 -0.95204800323E+03  0.10794917080E+04  0.00000000000E+00 0.  1.
         22    1    3    3    0    0  0.54827162933E+02  0.15857023486E+03 -0.18699790911E+03  0.25123446258E+03  0.00000000000E+00 0.  1.
</event>
<event>
 7    1  0.4402832E-005  0.8636324E+02  0.7818608E-02  0.1416726E+00
          2   -1    0    0  502    0  0.00000000000E+00  0.00000000000E+00  0.29788845925E+03  0.29788845925E+03  0.00000000000E+00 0. -1.
          1   -1    0    0  501    0 -0.00000000000E+00 -0.00000000000E+00 -0.77289024165E+02  0.77289024165E+02  0.00000000000E+00 0. -1.
         25    2    1    2    0    0  0.69134365463E+02 -0.91885873005E+02  0.98934799385E+02  0.19656046463E+03  0.12500139031E+03 0.  0.
          2    1    1    2  501    0 -0.24448237265E+02  0.26355583043E+02  0.32535653822E+01  0.36095965849E+02  0.00000000000E+00 0. -1.
          1    1    1    2  502    0 -0.44686128198E+02  0.65530289962E+02  0.11841107031E+03  0.14252105293E+03  0.00000000000E+00 0. -1.
         22    1    3    3    0    0  0.14666048108E+02  0.65201867725E+01  0.81109250052E+02  0.82682018884E+02  0.00000000000E+00 0. -1.
         22    1    3    3    0    0  0.54468317355E+02 -0.98406059778E+02  0.17825549332E+02  0.11387844575E+03  0.00000000000E+00 0. -1.
</event>
<event>
 7    1  0.4402832E-005  0.2779381E+03  0.7818608E-02  0.1233996E+00
          2   -1    0    0  502    0  0.00000000000E+00  0.00000000000E+00  0.14643535792E+04  0.14643535792E+04  0.00000000000E+00 0. -1.
          1   -1    0    0  501    0 -0.00000000000E+00 -0.00000000000E+00 -0.18961112288E+03  0.18961112288E+03  0.00000000000E+00 0. -1.
         25    2    1    2    0    0  0.21554994696E+03 -0.22244841585E+03  0.16624737404E+03  0.37310654639E+03  0.12500091295E+03 0.  0.
          2    1    1    2  501    0 -0.16627589032E+03  0.19411572908E+03  0.10591878737E+03  0.27667196732E+03  0.00000000000E+00 0. -1.
          1    1    1    2  502    0 -0.49274056636E+02  0.28332686768E+02  0.10025762949E+04  0.10041861884E+04  0.00000000000E+00 0. -1.
         22    1    3    3    0    0  0.16053584203E+03 -0.95247194272E+02  0.13679546802E+03  0.23142338832E+03  0.00000000000E+00 0.  1.
         22    1    3    3    0    0  0.55014104930E+02 -0.12720122158E+03  0.29451906021E+02  0.14168315807E+03  0.00000000000E+00 0.  1.
</event>
<event>
 7    1  0.4402832E-005  0.2206577E+03  0.7818608E-02  0.1147751E+00
          2   -1    0    0  502    0  0.00000000000E+00  0.00000000000E+00  0.84231714742E+03  0.84231714742E+03  0.00000000000E+00 0. -1.
          1   -1    0    0  501    0 -0.00000000000E+00 -0.00000000000E+00 -0.80547231804E+03  0.80547231804E+03  0.00000000000E+00 0. -1.
         25    2    1    2    0    0  0.14725720511E+03  0.37176140618E+03  0.55195915529E+03  0.69294672200E+03  0.12500009134E+03 0.  0.
          2    1    1    2  501    0 -0.62657912499E+02 -0.20655633554E+03 -0.67574373447E+03  0.70938080635E+03  0.00000000000E+00 0. -1.
          1    1    1    2  502    0 -0.84599292612E+02 -0.16520507065E+03  0.16062940855E+03  0.24546193711E+03  0.00000000000E+00 0. -1.
         22    1    3    3    0    0 -0.13335497950E+02  0.42734180797E+01  0.41437116156E+02  0.43739366742E+02  0.00000000000E+00 0.  1.
         22    1    3    3    0    0  0.16059270306E+03  0.36748798810E+03  0.51052203913E+03  0.64920735525E+03  0.00000000000E+00 0.  1.
</event>
<event>
 7    1  0.4402832E-005  0.3040072E+03  0.7818608E-02  0.1319413E+00
          2   -1    0    0  502    0  0.00000000000E+00  0.00000000000E+00  0.29005259192E+03  0.29005259192E+03  0.00000000000E+00 0. -1.
          1   -1    0    0  501    0 -0.00000000000E+00 -0.00000000000E+00 -0.51063140872E+03  0.51063140872E+03  0.00000000000E+00 0. -1.
         25    2    1    2    0    0 -0.88120555016E+02 -0.29799824025E+03 -0.29805033823E+03  0.44835533464E+03  0.12498127285E+03 0.  0.
          2    1    1    2  501    0  0.72912003249E+02  0.28083458885E+03  0.20445812213E+02  0.29086467257E+03  0.00000000000E+00 0. -1.
          1    1    1    2  502    0  0.15208551767E+02  0.17163651406E+02  0.57025709219E+02  0.61463993430E+02  0.00000000000E+00 0. -1.
         22    1    3    3    0    0 -0.11566712239E+03 -0.18516547218E+03 -0.20579210607E+03  0.30002587590E+03  0.00000000000E+00 0. -1.
         22    1    3    3    0    0  0.27546567379E+02 -0.11283276808E+03 -0.92258232161E+02  0.14832945873E+03  0.00000000000E+00 0. -1.
</event>
<event>
 7    1  0.4402832E-005  0.6040125E+03  0.7818608E-02  0.1220903E+00
          2   -1    0    0  502    0  0.00000000000E+00  0.00000000000E+00  0.63365168105E+03  0.63365168105E+03  0.00000000000E+00 0. -1.
          1   -1    0    0  501    0 -0.00000000000E+00 -0.00000000000E+00 -0.20149210017E+04  0.20149210017E+04  0.00000000000E+00 0. -1.
         25    2    1    2    0    0 -0.28714565605E+03 -0.52203570590E+03 -0.93784740335E+03  0.11181043470E+04  0.12500269106E+03 0.  0.
          2    1    1    2  501    0  0.27334363313E+03  0.54862474279E+03 -0.89122748176E+03  0.10816618115E+04  0.00000000000E+00 0. -1.
          1    1    1    2  502    0  0.13802022916E+02 -0.26589036883E+02  0.44780556444E+03  0.44880652431E+03  0.00000000000E+00 0. -1.
         22    1    3    3    0    0 -0.11204351052E+03 -0.25614616387E+03 -0.33484719399E+03  0.43621926693E+03  0.00000000000E+00 0. -1.
         22    1    3    3    0    0 -0.17510214553E+03 -0.26588954203E+03 -0.60300020936E+03  0.68188508007E+03  0.00000000000E+00 0. -1.
</event>
<event>
 7    1  0.4402832E-005  0.2090251E+03  0.7818608E-02  0.1154230E+00
          2   -1    0    0  502    0  0.00000000000E+00  0.00000000000E+00  0.19928381664E+04  0.19928381664E+04  0.00000000000E+00 0. -1.
          1   -1    0    0  501    0 -0.00000000000E+00 -0.00000000000E+00 -0.80885143990E+02  0.80885143990E+02  0.00000000000E+00 0. -1.
         25    2    1    2    0    0  0.15267026208E+03 -0.11902649649E+03  0.45712232153E+03  0.51191906893E+03  0.12499920200E+03 0.  0.
          2    1    1    2  501    0 -0.23358104876E+02  0.24636354436E+03  0.28272348007E+03  0.37573017344E+03  0.00000000000E+00 0. -1.
          1    1    1    2  502    0 -0.12931215720E+03 -0.12733704787E+03  0.11721072208E+04  0.11860740680E+04  0.00000000000E+00 0. -1.
         22    1    3    3    0    0  0.98204895302E+02 -0.81595610137E+02  0.14643820747E+03  0.19428379671E+03  0.00000000000E+00 0.  1.
         22    1    3    3    0    0  0.54465366774E+02 -0.37430886352E+02  0.31068411406E+03  0.31763527222E+03  0.00000000000E+00 0.  1.
</event>
<event>
 7    1  0.4402832E-005  0.1096227E+03  0.7818608E-02  0.1267361E+00
          2   -1    0    0  502    0  0.00000000000E+00  0.00000000000E+00  0.20977842869E+03  0.20977842869E+03  0.00000000000E+00 0. -1.
          1   -1    0    0  501    0 -0.00000000000E+00 -0.00000000000E+00 -0.10453881183E+04  0.10453881183E+04  0.00000000000E+00 0. -1.
         25    2    1    2    0    0  0.70570907000E+02 -0.98211968795E+02 -0.54088745153E+03  0.56816394979E+03  0.12500077957E+03 0.  0.
          2    1    1    2  501    0 -0.11257833080E+03 -0.30427277624E+01 -0.46833048404E+03  0.48168099510E+03  0.00000000000E+00 0. -1.
          1    1    1    2  502    0  0.42007423798E+02  0.10125469656E+03  0.17360824596E+03  0.20532160211E+03  0.00000000000E+00 0. -1.
         22    1    3    3    0    0  0.31324225316E+02 -0.88732149723E+02 -0.50638795592E+03  0.51505666037E+03  0.00000000000E+00 0.  1.
         22    1    3    3    0    0  0.39246681684E+02 -0.94798190715E+01 -0.34499495604E+02  0.53107289422E+02  0.00000000000E+00 0.  1.
</event>
<event>
 7    1  0.4402832E-005  0.4167760E+03  0.7818608E-02  0.1208091E+00
          2   -1    0    0  502    0  0.00000000000E+00  0.00000000000E+00  0.92438328456E+03  0.92438328456E+03  0.00000000000E+00 0. -1.
          1   -1    0    0  501    0 -0.00000000000E+00 -0.00000000000E+00 -0.14711430726E+04  0.14711430726E+04  0.00000000000E+00 0. -1.
         25    2    1    2    0    0 -0.17023747519E+03  0.40315738054E+03  0.12981742044E+03  0.47328046908E+03  0.12500067326E+03 0.  0.
          2    1    1    2  501    0 -0.24479473927E+02 -0.43286870863E+02 -0.12316541577E+04  0.12326576824E+04  0.00000000000E+00 0. -1.
          1    1    1    2  502    0  0.19471694911E+03 -0.35987050968E+03  0.55507694915E+03  0.68958820573E+03  0.00000000000E+00 0. -1.
         22    1    3    3    0    0 -0.15843384598E+03  0.22477165503E+03  0.96425734636E+02  0.29141294198E+03  0.00000000000E+00 0. -1.
         22    1    3    3    0    0 -0.11803629207E+02  0.17838572552E+03  0.33391685804E+02  0.18186752709E+03  0.00000000000E+00 0. -1.
</event>
<event>
 7    1  0.4402832E-005  0.3826128E+03  0.7818608E-02  0.1127038E+00
          2   -1    0    0  502    0  0.00000000000E+00  0.00000000000E+00  0.55381565863E+03  0.55381565863E+03  0.00000000000E+00 0. -1.
          1   -1    0    0  501    0 -0.00000000000E+00 -0.00000000000E+00 -0.10056871790E+04  0.10056871790E+04  0.00000000000E+00 0. -1.
         25    2    1    2    0    0  0.24568147272E+03  0.11053858694E+03  0.25009358506E+03  0.38826563324E+03  0.12500094169E+03 0.  0.
          2    1    1    2  501    0 -0.33565780278E+03 -0.21462021877E+03 -0.86832199233E+03  0.95535913731E+03  0.00000000000E+00 0. -1.
          1    1    1    2  502    0  0.89976330053E+02  0.10408163183E+03  0.16635688687E+03  0.21587806712E+03  0.00000000000E+00 0. -1.
         22    1    3    3    0    0  0.79104596611E+02  0.98505312610E+02  0.13816059561E+03  0.18721427295E+03  0.00000000000E+00 0.  1.
         22    1    3    3    0    0  0.16657687611E+03  0.12033274328E+02  0.11193298946E+03  0.20105136029E+03  0.00000000000E+00 0.  1.
</event>
<event>
 7    1  0.4402832E-005  0.3223833E+03  0.7818608E-02  0.1236531E+00
          2   -1    0    0  502    0  0.00000000000E+00  0.00000000000E+00  0.60547579285E+03  0.60547579285E+03  0.00000000000E+00 0. -1.
          1   -1    0    0  501    0 -0.00000000000E+00 -0.00000000000E+00 -0.64532055424E+03  0.64532055424E+03  0.00000000000E+00 0. -1.
         25    2    1    2    0    0 -0.28658061218E+03  0.45346795564E+01  0.45510631611E+03  0.55217339769E+03  0.12499876622E+03 0.  0.
          2    1    1    2  501    0  0.32387231100E+03 -0.34354434265E+02 -0.54152630592E+03  0.63192107181E+03  0.00000000000E+00 0. -1.
          1    1    1    2  502    0 -0.37291698817E+02  0.29819754709E+02  0.46575228426E+02  0.66701877593E+02  0.00000000000E+00 0. -1.
         22    1    3    3    0    0 -0.15477804293E+02 -0.33529257313E+02  0.76642019159E+02  0.85075099897E+02  0.00000000000E+00 0. -1.
         22    1    3    3    0    0 -0.27110280789E+03  0.38063936869E+02  0.37846429695E+03  0.46709829779E+03  0.00000000000E+00 0. -1.
</event>
<event>
 7    1  0.4402832E-005  0.1804887E+03  0.7818608E-02  0.1195701E+00
          2   -1    0    0  502    0  0.00000000000E+00  0.00000000000E+00  0.77333823205E+03  0.77333823205E+03  0.00000000000E+00 0. -1.
          1   -1    0    0  501    0 -0.00000000000E+00 -0.00000000000E+00 -0.67135459549E+03  0.67135459549E+03  0.00000000000E+00 0. -1.
         25    2    1    2    0    0  0.23258075111E+02 -0.14191644198E+02  0.10714082241E+03  0.16687282336E+03  0.12500017011E+03 0.  0.
          2    1    1    2  501    0  0.12875908664E+03  0.12648030182E+03 -0.61417798155E+03  0.64014901559E+03  0.00000000000E+00 0. -1.
          1    1    1    2  502    0 -0.15201716175E+03 -0.11228865762E+03  0.60902079570E+03  0.63767098859E+03  0.00000000000E+00 0. -1.
         22    1    3    3    0    0  0.69983109058E+02  0.15278355617E+02  0.49739375147E+02  0.87207047558E+02  0.00000000000E+00 0. -1.
         22    1    3    3    0    0 -0.46725033946E+02 -0.29469999814E+02  0.57401447264E+02  0.79665775803E+02  0.00000000000E+00 0. -1.
</event>
<event>
 7    1  0.4402832E-005  0.2204692E+03  0.7818608E-02  0.1179428E+00
          2   -1    0    0  502    0  0.00000000000E+00  0.00000000000E+00  0.82855128154E+03  0.82855128154E+03  0.00000000000E+00 0. -1.
          1   -1    0    0  501    0 -0.00000000000E+00 -0.00000000000E+00 -0.18765796867E+04  0.18765796867E+04  0.00000000000E+00 0. -1.
         25    2    1    2    0    0 -0.17317452232E+03 -0.17964456095E+03 -0.42209931740E+03  0.50601731166E+03  0.12499640991E+03 0.  0.
          2    1    1    2  501    0  0.21297204512E+03  0.57177848002E+02 -0.13985537644E+04  0.14158315684E+04  0.00000000000E+00 0. -1.
          1    1    1    2  502    0 -0.39797522796E+02  0.12246671295E+03  0.77262467665E+03  0.78328208812E+03  0.00000000000E+00 0. -1.
         22    1    3    3    0    0  0.12761993805E+02 -0.49072571244E+02 -0.96075830928E+02  0.10863494384E+03  0.00000000000E+00 0.  1.
         22    1    3    3    0    0 -0.18593651612E+03 -0.13057198971E+03 -0.32602348647E+03  0.39738236782E+03  0.00000000000E+00 0.  1.
</event>
<event>
 7    1  0.4402832E-005  0.5159001E+03  0.7818608E-02  0.1256120E+00
          2   -1    0    0  502    0  0.00000000000E+00  0.00000000000E+00  0.80870417306E+03  0.80870417306E+03  0.00000000000E+00 0. -1.
          1   -1    0    0  501    0 -0.00000000000E+00 -0.00000000000E+00 -0.17701241946E+04  0.17701241946E+04  0.00000000000E+00 0. -1.
         25    2    1    2    0    0  0.48576405531E+03 -0.11858130173E+03 -0.15476868809E+04  0.16312540545E+04  0.12500746506E+03 0.  0.
          2    1    1    2  501    0  0.20280207199E+02  0.13755963204E+02 -0.91804807323E+02  0.95019134785E+02  0.00000000000E+00 0. -1.
          1    1    1    2  502    0 -0.50604426251E+03  0.10482533853E+03  0.67807166664E+03  0.85255517846E+03  0.00000000000E+00 0. -1.
         22    1    3    3    0    0  0.36986367322E+03 -0.33068932474E+02 -0.11052886631E+04  0.11659998799E+04  0.00000000000E+00 0. -1.
         22    1    3    3    0    0  0.11590038209E+03 -0.85512369257E+02 -0.44239821776E+03  0.46525417456E+03  0.00000000000E+00 0. -1.
</event>
<event>
 7    1  0.4402832E-005  0.2061100E+03  0.7818608E-02  0.1205359E+00
          2   -1    0    0  502    0  0.00000000000E+00  0.00000000000E+00  0.43728567779E+03  0.43728567779E+03  0.00000000000E+00 0. -1.
          1   -1    0    0  501    0 -0.00000000000E+00 -0.00000000000E+00 -0.53729416840E+03  0.53729416840E+03  0.00000000000E+00 0. -1.
         25    2    1    2    0    0  0.21853819674E+03  0.16615330284E+03 -0.23163790455E+03  0.38032567325E+03  0.12500254171E+03 0.  0.
          2    1    1    2  501    0 -0.12418490083E+03 -0.12348979076E+03 -0.18879251756E+03  0.25751549992E+03  0.00000000000E+00 0. -1.
          1    1    1    2  502    0 -0.94353295911E+02 -0.42663512084E+02  0.32042193150E+03  0.33673867301E+03  0.00000000000E+00 0. -1.
         22    1    3    3    0    0  0.19305144740E+03  0.12633356786E+03 -0.23932886602E+03  0.33242643971E+03  0.00000000000E+00 0. -1.
         22    1    3    3    0    0  0.25486749336E+02  0.39819734978E+02  0.76909614651E+01  0.47899233540E+02  0.00000000000E+00 0. -1.
</event>
<event>
 7    1  0.4402832E-005  0.7355041E+02  0.7818608E-02  0.1427643E+00
          2   -1    0    0  502    0  0.00000000000E+00  0.00000000000E+00  0.16321402625E+03  0.16321402625E+03  0.00000000000E+00 0. -1.
          1   -1    0    0  501    0 -0.00000000000E+00 -0.00000000000E+00 -0.55883938867E+03  0.55883938867E+03  0.00000000000E+00 0. -1.
         25    2    1    2    0    0 -0.74168678653E+02  0.29613974943E+02 -0.12311654361E+03  0.19277195193E+03  0.12500144693E+03 0.  0.
          2    1    1    2  501    0  0.99037876754E+00 -0.38809937950E+02 -0.38925696744E+03  0.39118816295E+03  0.00000000000E+00 0. -1.
          1    1    1    2  502    0  0.73178299885E+02  0.91959630075E+01  0.11674814863E+03  0.13809330005E+03  0.00000000000E+00 0. -1.
         22    1    3    3    0    0  0.40900153232E+00  0.65304435946E+02 -0.60952732756E+02  0.89331250226E+02  0.00000000000E+00 0. -1.
         22    1    3    3    0    0 -0.74577680185E+02 -0.35690461003E+02 -0.62163810853E+02  0.10344070170E+03  0.00000000000E+00 0. -1.
</event>
<event>
 7    1  0.4402832E-005  0.1071098E+04  0.7818608E-02  0.1192939E+00
          2   -1    0    0  502    0  0.00000000000E+00  0.00000000000E+00  0.24878456965E+04  0.24878456965E+04  0.00000000000E+00 0. -1.
          1   -1    0    0  501    0 -0.00000000000E+00 -0.00000000000E+00 -0.50285475058E+03  0.50285475058E+03  0.00000000000E+00 0. -1.
         25    2    1    2    0    0  0.10610820987E+04 -0.19252291705E+03  0.13607354539E+04  0.17407431553E+04  0.12500185366E+03 0.  0.
          2    1    1    2  501    0 -0.20981985698E+02 -0.89417328888E+01  0.71592755414E+01  0.23905094377E+02  0.00000000000E+00 0. -1.
          1    1    1    2  502    0 -0.10401001130E+04  0.20146464994E+03  0.61709621647E+03  0.12260521974E+04  0.00000000000E+00 0. -1.
         22    1    3    3    0    0  0.27056298918E+03  0.37854735126E+01  0.36268852489E+03  0.45250594141E+03  0.00000000000E+00 0. -1.
         22    1    3    3    0    0  0.79051910956E+03 -0.19630839056E+03  0.99804692902E+03  0.12882372139E+04  0.00000000000E+00 0. -1.
</event>
<event>
 7    1  0.4402832E-005  0.1345887E+03  0.7818608E-02  0.1302630E+00
          2   -1    0    0  502    0  0.00000000000E+00  0.00000000000E+00  0.10414002184E+04  0.10414002184E+04  0.00000000000E+00 0. -1.
          1   -1    0    0  501    0 -0.00000000000E+00 -0.00000000000E+00 -0.13145801811E+04  0.13145801811E+04  0.00000000000E+00 0. -1.
         25    2    1    2    0    0  0.60173632327E+01 -0.14054560815E+03 -0.40667319690E+02  0.19253325432E+03  0.12500378593E+03 0.  0.
          2    1    1    2  501    0  0.56510841616E+02  0.21055290756E+02 -0.11925046700E+04  0.11940285543E+04  0.00000000000E+00 0. -1.
          1    1    1    2  502    0 -0.62528204849E+02  0.11949031740E+03  0.95999202706E+03  0.96941859090E+03  0.00000000000E+00 0. -1.
         22    1    3    3    0    0 -0.31086133453E+02 -0.21522222299E+01 -0.38112702208E+02  0.49229643744E+02  0.00000000000E+00 0. -1.
         22    1    3    3    0    0  0.37103496685E+02 -0.13839338592E+03 -0.25546174821E+01  0.14330361057E+03  0.00000000000E+00 0. -1.
</event>
<event>
 7    1  0.4402832E-005  0.6959794E+02  0.7818608E-02  0.1526509E+00
          2   -1    0    0  502    0  0.00000000000E+00  0.00000000000E+00  0.43511954759E+03  0.43511954759E+03  0.00000000000E+00 0. -1.
          1   -1    0    0  501    0 -0.00000000000E+00 -0.00000000000E+00 -0.82894735762E+03  0.82894735762E+03  0.00000000000E+00 0. -1.
         25    2    1    2    0    0  0.90053159461E+01  0.50463633123E+02 -0.20148837679E+03  0.24258994049E+03  0.12499855704E+03 0.  0.
          2    1    1    2  501    0 -0.10051691731E+02 -0.70769476111E+02 -0.60455208281E+03  0.60876315270E+03  0.00000000000E+00 0. -1.
          1    1    1    2  502    0  0.10463757847E+01  0.20305842988E+02  0.41221264957E+03  0.41271381202E+03  0.00000000000E+00 0. -1.
         22    1    3    3    0    0  0.22465957275E+01 -0.38465317004E+02 -0.10170385149E+03  0.10875799379E+03  0.00000000000E+00 0.  1.
         22    1    3    3    0    0  0.67587202187E+01  0.88928950127E+02 -0.99784525303E+02  0.13383194671E+03  0.00000000000E+00 0.  1.
</event>
<event>
 7    1  0.4402832E-005  0.5570853E+02  0.7818608E-02  0.1517066E+00
          2   -1    0    0  502    0  0.00000000000E+00  0.00000000000E+00  0.14674571979E+03  0.14674571979E+03  0.00000000000E+00 0. -1.
          1   -1    0    0  501    0 -0.00000000000E+00 -0.00000000000E+00 -0.10087409460E+04  0.10087409460E+04  0.00000000000E+00 0. -1.
         25    2    1    2    0    0 -0.15586886724E+02 -0.39483904956E+02 -0.35084950034E+02  0.13659342887E+03  0.12499952521E+03 0.  0.
          2    1    1    2  501    0  0.42476870003E+02  0.36511277270E+02 -0.92012687762E+03  0.92183015180E+03  0.00000000000E+00 0. -1.
          1    1    1    2  502    0 -0.26889983279E+02  0.29726276861E+01  0.93216601425E+02  0.97063085143E+02  0.00000000000E+00 0. -1.
         22    1    3    3    0    0 -0.36708305937E+02 -0.73890940313E+02 -0.46407930112E+02  0.94662911229E+02  0.00000000000E+00 0.  1.
         22    1    3    3    0    0  0.21121419213E+02  0.34407035357E+02  0.11322980078E+02  0.41930517639E+02  0.00000000000E+00 0.  1.
</event>
<event>
 7    1  0.4402832E-005  0.7155442E+03  0.7818608E-02  0.1161411E+00
          2   -1    0    0  502    0  0.00000000000E+00  0.00000000000E+00  0.21485908758E+04  0.21485908758E+04  0.00000000000E+00 0. -1.
          1   -1    0    0  501    0 -0.00000000000E+00 -0.00000000000E+00 -0.69237703662E+03  0.69237703662E+03  0.00000000000E+00 0. -1.
         25    2    1    2    0    0 -0.57188188200E+03 -0.38880330999E+03  0.76667960809E+03  0.10400191934E+04  0.12500160138E+03 0.  0.
          2    1    1    2  501    0 -0.48501142564E+02 -0.49017204671E+01 -0.44587465069E+03  0.44853159512E+03  0.00000000000E+00 0. -1.
          1    1    1    2  502    0  0.62038302457E+03  0.39370503046E+03  0.11354088817E+04  0.13524171239E+04  0.00000000000E+00 0. -1.
         22    1    3    3    0    0 -0.97823767241E+02 -0.26474006901E+02  0.15767536762E+03  0.18743501282E+03  0.00000000000E+00 0. -1.
         22    1    3    3    0    0 -0.47405811476E+03 -0.36232930309E+03  0.60900424047E+03  0.85258418057E+03  0.00000000000E+00 0. -1.
</event>
<event>
 7    1  0.9029119E-005  0.1527826E+03  0.7818608E-02  0.1240615E+00
          2   -1    0    0  502    0  0.00000000000E+00  0.00000000000E+00  0.18626720568E+04  0.18626720568E+04  0.00000000000E+00 0. -1.
          1   -1    0    0  501    0 -0.00000000000E+00 -0.00000000000E+00 -0.12284885850E+04  0.12284885850E+04  0.00000000000E+00 0. -1.
         25    2    1    2    0    0  0.21540251424E+03 -0.61743088755E+02 -0.19454341648E+03  0.32199698087E+03  0.12499785058E+03 0.  0.
          2    1    1    2  501    0 -0.92546366379E+02 -0.27862101687E+02 -0.96458572044E+03  0.96941566870E+03  0.00000000000E+00 0. -1.
          1    1    1    2  502    0 -0.12285614786E+03  0.89605190442E+02  0.17933126087E+04  0.17997479923E+04  0.00000000000E+00 0. -1.
         22    1    3    3    0    0  0.21616084400E+03 -0.80087412864E+02 -0.15326791437E+03  0.27682224939E+03  0.00000000000E+00 0.  1.
         22    1    3    3    0    0 -0.75832976584E+00  0.18344324109E+02 -0.41275502101E+02  0.45174731485E+02  0.00000000000E+00 0.  1.
</event>
<event>
 7    1  0.4402832E-005  0.3929118E+03  0.7818608E-02  0.1232250E+00
          2   -1    0    0  502    0  0.00000000000E+00  0.00000000000E+00  0.84396966017E+03  0.84396966017E+03  0.00000000000E+00 0. -1.
          1   -1    0    0  501    0 -0.00000000000E+00 -0.00000000000E+00 -0.35214165352E+03  0.35214165352E+03  0.00000000000E+00 0. -1.
         25    2    1    2    0    0  0.41284779471E+03  0.94462657701E+02  0.60927313932E+03  0.75246604119E+03  0.12499955816E+03 0.  0.
          2    1    1    2  501    0 -0.37266915739E+03 -0.10229202258E+03 -0.11196458954E+03  0.40234565745E+03  0.00000000000E+00 0. -1.
          1    1    1    2  502    0 -0.40178637319E+02  0.78293648801E+01 -0.54805431378E+01  0.41299615063E+02  0.00000000000E+00 0. -1.
         22    1    3    3    0    0  0.38642776825E+03  0.90127160102E+02  0.60753493427E+03  0.72563628728E+03  0.00000000000E+00 0. -1.
         22    1    3    3    0    0  0.26420026461E+02  0.43354975991E+01  0.17382050505E+01  0.26829753902E+02  0.00000000000E+00 0. -1.
</event>
<event>
 7    1  0.4402832E-005  0.3134846E+03  0.7818608E-02  0.1124042E+00
          2   -1    0    0  502    0  0.00000000000E+00  0.00000000000E+00  0.17839995707E+04  0.17839995707E+04  0.00000000000E+00 0. -1.
          1   -1    0    0  501    0 -0.00000000000E+00 -0.00000000000E+00 -0.27485814131E+04  0.27485814131E+04  0.00000000000E+00 0. -1.
         25    2    1    2    0    0  0.25854303550E+03  0.11056083520E+03 -0.43460654472E+02  0.31077606191E+03  0.12499893071E+03 0.  0.
          2    1    1    2  501    0  0.56850191756E+02 -0.16473184541E+03 -0.25529516185E+04  0.25588924346E+04  0.00000000000E+00 0. -1.
          1    1    1    2  502    0 -0.31539322726E+03  0.54171010211E+02  0.16318304306E+04  0.16629124873E+04  0.00000000000E+00 0. -1.
         22    1    3    3    0    0  0.19661682243E+03  0.40917297426E+02 -0.71943774364E+02  0.21332676053E+03  0.00000000000E+00 0.  1.
         22    1    3    3    0    0  0.61926213079E+02  0.69643537773E+02  0.28483119891E+02  0.97449301375E+02  0.00000000000E+00 0.  1.
</event>
<event>
 7    1  0.4402832E-005  0.9733517E+03  0.7818608E-02  0.1103548E+00
          2   -1    0    0  502    0  0.00000000000E+00  0.00000000000E+00  0.19486009242E+04  0.19486009242E+04  0.00000000000E+00 0. -1.
          1   -1    0    0  501    0 -0.00000000000E+00 -0.00000000000E+00 -0.86234078206E+03  0.86234078206E+03  0.00000000000E+00 0. -1.
         25    2    1    2    0    0  0.96549041318E+03 -0.30258280325E+03  0.62948609798E+03  0.11981684367E+04  0.12500705714E+03 0.  0.
          2    1    1    2  501    0 -0.56945922340E+02  0.45247171214E+02 -0.35815308734E+03  0.36546378555E+03  0.00000000000E+00 0. -1.
          1    1    1    2  502    0 -0.90854449084E+03  0.25733563203E+03  0.81492713155E+03  0.12473094841E+04  0.00000000000E+00 0. -1.
         22    1    3    3    0    0  0.58861484691E+02 -0.31019529224E+02  0.79019459494E+02  0.10330034149E+03  0.00000000000E+00 0. -1.
         22    1    3    3    0    0  0.90662892849E+03 -0.27156327402E+03  0.55046663848E+03  0.10948680952E+04  0.00000000000E+00 0. -1.
</event>
<event>
 7    1  0.4402832E-005  0.8493944E+03  0.7818608E-02  0.1084463E+00
          2   -1    0    0  502    0  0.00000000000E+00  0.00000000000E+00  0.31067639848E+04  0.31067639848E+04  0.00000000000E+00 0. -1.
          1   -1    0    0  501    0 -0.00000000000E+00 -0.00000000000E+00 -0.10782166790E+04  0.10782166790E+04  0.00000000000E+00 0. -1.
         25    2    1    2    0    0 -0.39024926443E+03 -0.71315762135E+03  0.66071549954E+03  0.10550155540E+04  0.12499826667E+03 0.  0.
          2    1    1    2  501    0  0.32292894019E+03  0.79640677145E+03 -0.66976601154E+03  0.10895564952E+04  0.00000000000E+00 0. -1.
          1    1    1    2  502    0  0.67320324233E+02 -0.83249150099E+02  0.20375978178E+04  0.20404086145E+04  0.00000000000E+00 0. -1.
         22    1    3    3    0    0 -0.54952514997E+02 -0.50460066090E+02  0.98284322300E+02  0.12339288952E+03  0.00000000000E+00 0. -1.
         22    1    3    3    0    0 -0.33529674943E+03 -0.66269755526E+03  0.56243117724E+03  0.93162266452E+03  0.00000000000E+00 0. -1.
</event>
<event>
 7    1  0.4402832E-005  0.1093548E+03  0.7818608E-02  0.1300712E+00
          2   -1    0    0  502    0  0.00000000000E+00  0.00000000000E+00  0.52538289639E+03  0.52538289639E+03  0.00000000000E+00 0. -1.
          1   -1    0    0  501    0 -0.00000000000E+00 -0.00000000000E+00 -0.10739797032E+03  0.10739797032E+03  0.00000000000E+00 0. -1.
         25    2    1    2    0    0  0.25158134563E+02  0.54927443038E+02  0.16880717629E+03  0.21856639352E+03  0.12500179950E+03 0.  0.
          2    1    1    2  501    0 -0.98002142528E+02 -0.74935178864E+02 -0.28354785268E+02  0.12658473375E+03  0.00000000000E+00 0. -1.
          1    1    1    2  502    0  0.72844007965E+02  0.20007735826E+02  0.27753253505E+03  0.28762973943E+03  0.00000000000E+00 0. -1.
         22    1    3    3    0    0  0.12512297514E+02  0.16916553457E+02 -0.17890856696E+02  0.27619017420E+02  0.00000000000E+00 0. -1.
         22    1    3    3    0    0  0.12645837049E+02  0.38010889581E+02  0.18669803298E+03  0.19094737610E+03  0.00000000000E+00 0. -1.
</event>
<event>
 7    1  0.4402832E-005  0.1443311E+03  0.7818608E-02  0.1217208E+00
          2   -1    0    0  502    0  0.00000000000E+00  0.00000000000E+00  0.38557060162E+02  0.38557060162E+02  0.00000000000E+00 0. -1.
          1   -1    0    0  501    0 -0.00000000000E+00 -0.00000000000E+00 -0.24291021710E+04  0.24291021710E+04  0.00000000000E+00 0. -1.
         25    2    1    2    0    0  0.42187614441E+02 -0.56682601428E+02 -0.48384019276E+03  0.50469672735E+03  0.12499896939E+03 0.  0.
          2    1    1    2  501    0 -0.17247368957E+03  0.60340487977E+02 -0.17483255746E+04  0.17578482480E+04  0.00000000000E+00 0. -1.
          1    1    1    2  502    0  0.13028607513E+03 -0.36578865483E+01 -0.15837934342E+03  0.20511425579E+03  0.00000000000E+00 0. -1.
         22    1    3    3    0    0  0.45412021601E+02 -0.17392296825E+01 -0.50751306184E+02  0.68124677652E+02  0.00000000000E+00 0. -1.
         22    1    3    3    0    0 -0.32244071603E+01 -0.54943371746E+02 -0.43308888657E+03  0.43657204969E+03  0.00000000000E+00 0. -1.
</event>
<event>
 7    1  0.4402832E-005  0.2962902E+03  0.7818608E-02  0.1148614E+00
          2   -1    0    0  502    0  0.00000000000E+00  0.00000000000E+00  0.20830385034E+04  0.20830385034E+04  0.00000000000E+00 0. -1.
          1   -1    0    0  501    0 -0.00000000000E+00 -0.00000000000E+00 -0.11895651746E+03  0.11895651746E+03  0.00000000000E+00 0. -1.
         25    2    1    2    0    0  0.14758226626E+02 -0.22891518884E+03  0.24681278254E+03  0.35939358948E+03  0.12500893407E+03 0.  0.
          2    1    1    2  501    0  0.12453041585E+02 -0.13624970022E+03  0.12059546288E+04  0.12136909103E+04  0.00000000000E+00 0. -1.
          1    1    1    2  502    0 -0.27211268211E+02  0.36516488906E+03  0.51131457456E+03  0.62891052104E+03  0.00000000000E+00 0. -1.
         22    1    3    3    0    0  0.97167463743E+01 -0.22145211741E+03  0.16311483319E+03  0.27521247114E+03  0.00000000000E+00 0.  1.
         22    1    3    3    0    0  0.50414802521E+01 -0.74630714274E+01  0.83697949354E+02  0.84181118336E+02  0.00000000000E+00 0.  1.
</event>
<event>
 7    1  0.4402832E-005  0.4992335E+03  0.7818608E-02  0.1106201E+00
          2   -1    0    0  502    0  0.00000000000E+00  0.00000000000E+00  0.25440189047E+04  0.25440189047E+04  0.00000000000E+00 0. -1.
          1   -1    0    0  501    0 -0.00000000000E+00 -0.00000000000E+00 -0.12234334381E+04  0.12234334381E+04  0.00000000000E+00 0. -1.
         25    2    1    2    0    0 -0.48886947869E+03 -0.88628881955E+02 -0.81123971560E+03  0.95947011565E+03  0.12499832295E+03 0.  0.
          2    1    1    2  501    0  0.51703847545E+03 -0.45497465867E+02 -0.13556943764E+03  0.53644932371E+03  0.00000000000E+00 0. -1.
          1    1    1    2  502    0 -0.28168996755E+02  0.13412634782E+03  0.22673946198E+04  0.22715329035E+04  0.00000000000E+00 0. -1.
         22    1    3    3    0    0 -0.58435951765E+02 -0.55474677839E+02 -0.12335303559E+03  0.14733693267E+03  0.00000000000E+00 0.  1.
         22    1    3    3    0    0 -0.43043352693E+03 -0.33154204116E+02 -0.68788668001E+03  0.81213318297E+03  0.00000000000E+00 0.  1.
</event>
<event>
 7    1  0.4402832E-005  0.2741312E+03  0.7818608E-02  0.1138131E+00
          2   -1    0    0  502    0  0.00000000000E+00  0.00000000000E+00  0.99076073407E+03  0.99076073407E+03  0.00000000000E+00 0. -1.
          1   -1    0    0  501    0 -0.00000000000E+00 -0.00000000000E+00 -0.21936484285E+04  0.21936484285E+04  0.00000000000E+00 0. -1.
         25    2    1    2    0    0 -0.33987648552E+02  0.37235920042E+03  0.36603489169E+03  0.53797132220E+03  0.12500026874E+03 0.  0.
          2    1    1    2  501    0  0.99774769939E+02 -0.13476319717E+03 -0.20759179603E+04  0.20826789243E+04  0.00000000000E+00 0. -1.
          1    1    1    2  502    0 -0.65787121387E+02 -0.23759600325E+03  0.50699537411E+03  0.56375891609E+03  0.00000000000E+00 0. -1.
         22    1    3    3    0    0 -0.14197283232E+02  0.27899515239E+03  0.19036821240E+03  0.33805312334E+03  0.00000000000E+00 0.  1.
         22    1    3    3    0    0 -0.19790365319E+02  0.93364048037E+02  0.17566667929E+03  0.19991819887E+03  0.00000000000E+00 0.  1.
</event>
<event>
 7    1  0.4402832E-005  0.2609514E+03  0.7818608E-02  0.1232839E+00
          2   -1    0    0  502    0  0.00000000000E+00  0.00000000000E+00  0.50681299679E+03  0.50681299679E+03  0.00000000000E+00 0. -1.
          1   -1    0    0  501    0 -0.00000000000E+00 -0.00000000000E+00 -0.46155926548E+04  0.46155926548E+04  0.00000000000E+00 0. -1.
         25    2    1    2    0    0 -0.10921400691E+03  0.29988748483E+03 -0.36175624172E+04  0.36337641262E+04  0.12499472017E+03 0.  0.
          2    1    1    2  501    0  0.35008907193E+02 -0.50273844388E+02 -0.95488650912E+03  0.95684968950E+03  0.00000000000E+00 0. -1.
          1    1    1    2  502    0  0.74205099718E+02 -0.24961364044E+03  0.46366926829E+03  0.53179183585E+03  0.00000000000E+00 0. -1.
         22    1    3    3    0    0  0.22070224264E+02  0.10182607266E+02 -0.30497349498E+03  0.30594053822E+03  0.00000000000E+00 0.  1.
         22    1    3    3    0    0 -0.13128423118E+03  0.28970487756E+03 -0.33125889222E+04  0.33278235880E+04  0.00000000000E+00 0.  1.
</event>
<event>
 7    1  0.4402832E-005  0.7407615E+03  0.7818608E-02  0.1187033E+00
          2   -1    0    0  502    0  0.00000000000E+00  0.00000000000E+00  0.12926703558E+04  0.12926703558E+04  0.00000000000E+00 0. -1.
          1   -1    0    0  501    0 -0.00000000000E+00 -0.00000000000E+00 -0.26913689087E+04  0.26913689087E+04  0.00000000000E+00 0. -1.
         25    2    1    2    0    0  0.45654859236E+03 -0.55871953684E+03 -0.75669833441E+03  0.10530058601E+04  0.12499933634E+03 0.  0.
          2    1    1    2  501    0 -0.46000621935E+03  0.59375169613E+03 -0.17072681477E+04  0.18651839927E+04  0.00000000000E+00 0. -1.
          1    1    1    2  502    0  0.34576269980E+01 -0.35032159297E+02  0.10652679292E+04  0.10658494116E+04  0.00000000000E+00 0. -1.
         22    1    3    3    0    0  0.21341550605E+03 -0.27613932666E+03 -0.45502573120E+03  0.57345228398E+03  0.00000000000E+00 0.  1.
         22    1    3    3    0    0  0.24313308631E+03 -0.28258021018E+03 -0.30167260321E+03  0.47955357612E+03  0.00000000000E+00 0.  1.
</event>
<event>
 7    1  0.4402832E-005  0.3887419E+03  0.7818608E-02  0.1220082E+00
          2   -1    0    0  502    0  0.00000000000E+00  0.00000000000E+00  0.31105252554E+04  0.31105252554E+04  0.00000000000E+00 0. -1.
          1   -1    0    0  501    0 -0.00000000000E+00 -0.00000000000E+00 -0.90505428991E+03  0.90505428991E+03  0.00000000000E+00 0. -1.
         25    2    1    2    0    0 -0.24636084361E+03  0.35190301482E+03  0.63328003424E+03  0.77537062366E+03  0.12500642048E+03 0.  0.
          2    1    1    2  501    0  0.23517732212E+03 -0.30630454206E+03 -0.78906011627E+03  0.87849115671E+03  0.00000000000E+00 0. -1.
          1    1    1    2  502    0  0.11183521488E+02 -0.45598472755E+02  0.23612510475E+04  0.23617177650E+04  0.00000000000E+00 0. -1.
         22    1    3    3    0    0 -0.49330647519E+02  0.34034542616E+02  0.33808698589E+02  0.68810544076E+02  0.00000000000E+00 0.  1.
         22    1    3    3    0    0 -0.19703019609E+03  0.31786847220E+03  0.59947133565E+03  0.70656007958E+03  0.00000000000E+00 0.  1.
</event>
<event>
 7    1  0.4402832E-005  0.8652599E+03  0.7818608E-02  0.1109697E+00
          2   -1    0    0  502    0  0.00000000000E+00  0.00000000000E+00  0.10839969551E+04  0.10839969551E+04  0.00000000000E+00 0. -1.
          1   -1    0    0  501    0 -0.00000000000E+00 -0.00000000000E+00 -0.13840445423E+04  0.13840445423E+04  0.00000000000E+00 0. -1.
         25    2    1    2    0    0 -0.57787484540E+03  0.71084731152E+03 -0.17251609097E+03  0.94054777711E+03  0.12500032852E+03 0.  0.
          2    1    1    2  501    0  0.58286898486E+02 -0.48175518990E+02 -0.57085510164E+03  0.57584181008E+03  0.00000000000E+00 0. -1.
          1    1    1    2  502    0  0.51958794692E+03 -0.66267179253E+03  0.44332360537E+03  0.95165191025E+03  0.00000000000E+00 0. -1.
         22    1    3    3    0    0 -0.20062020917E+03  0.20842427135E+03 -0.11013995309E+01  0.28929285905E+03  0.00000000000E+00 0.  1.
         22    1    3    3    0    0 -0.37725463623E+03  0.50242304017E+03 -0.17141469144E+03  0.65125491806E+03  0.00000000000E+00 0.  1.
</event>
<event>
 7    1  0.4402832E-005  0.2914261E+03  0.7818608E-02  0.1092784E+00
          2   -1    0    0  502    0  0.00000000000E+00  0.00000000000E+00  0.18942932931E+04  0.18942932931E+04  0.00000000000E+00 0. -1.
          1   -1    0    0  501    0 -0.00000000000E+00 -0.00000000000E+00 -0.41469765796E+03  0.41469765796E+03  0.00000000000E+00 0. -1.
         25    2    1    2    0    0  0.14102465203E+03  0.61006697083E+02  0.28400983435E+03  0.34625954905E+03  0.12499727888E+03 0.  0.
          2    1    1    2  501    0 -0.72996971320E+02 -0.33206837773E+03 -0.29257847271E+03  0.44855337253E+03  0.00000000000E+00 0. -1.
          1    1    1    2  502    0 -0.68027680715E+02  0.27106168065E+03  0.14881642735E+04  0.15141780295E+04  0.00000000000E+00 0. -1.
         22    1    3    3    0    0  0.55499555756E+02  0.11925884611E+02  0.22343280717E+03  0.23053122724E+03  0.00000000000E+00 0.  1.
         22    1    3    3    0    0  0.85525096278E+02  0.49080812472E+02  0.60577027181E+02  0.11572832181E+03  0.00000000000E+00 0.  1.
</event>
<event>
 7    1  0.4402832E-005  0.2998128E+03  0.7818608E-02  0.1134911E+00
          2   -1    0    0  502    0  0.00000000000E+00  0.00000000000E+00  0.17597409166E+03  0.17597409166E+03  0.00000000000E+00 0. -1.
          1   -1    0    0  501    0 -0.00000000000E+00 -0.00000000000E+00 -0.13276182916E+04  0.13276182916E+04  0.00000000000E+00 0. -1.
         25    2    1    2    0    0  0.34081002024E+03  0.16872282006E+03 -0.79493578123E+03  0.89003714783E+03  0.12499747334E+03 0.  0.
          2    1    1    2  501    0 -0.23993229523E+03 -0.45272296226E+02 -0.38076408192E+03  0.45232551683E+03  0.00000000000E+00 0. -1.
          1    1    1    2  502    0 -0.10087772501E+03 -0.12345052383E+03  0.24055663182E+02  0.16122971863E+03  0.00000000000E+00 0. -1.
         22    1    3    3    0    0  0.12399091943E+03  0.21294799392E+02 -0.36914404702E+03  0.38999300511E+03  0.00000000000E+00 0. -1.
         22    1    3    3    0    0  0.21681910081E+03  0.14742802066E+03 -0.42579173420E+03  0.50004414272E+03  0.00000000000E+00 0. -1.
</event>
<event>
 7    1  0.4402832E-005  0.2673469E+03  0.7818608E-02  0.1196877E+00
          2   -1    0    0  502    0  0.00000000000E+00  0.00000000000E+00  0.11757855866E+03  0.11757855866E+03  0.00000000000E+00 0. -1.
          1   -1    0    0  501    0 -0.00000000000E+00 -0.00000000000E+00 -0.15803532125E+04  0.15803532125E+04  0.00000000000E+00 0. -1.
         25    2    1    2    0    0  0.26312209729E+03  0.48294298584E+02 -0.40979049412E+03  0.50509290072E+03  0.12500004770E+03 0.  0.
          2    1    1    2  501    0 -0.23682078044E+03 -0.13176827136E+03 -0.10699077550E+04  0.11036981307E+04  0.00000000000E+00 0. -1.
          1    1    1    2  502    0 -0.26301316854E+02  0.83473972778E+02  0.16923595349E+02  0.89140739727E+02  0.00000000000E+00 0. -1.
         22    1    3    3    0    0  0.63583245764E+02 -0.18354706884E+02 -0.18841579203E+03  0.19970036328E+03  0.00000000000E+00 0.  1.
         22    1    3    3    0    0  0.19953885153E+03  0.66649005468E+02 -0.22137470208E+03  0.30539253744E+03  0.00000000000E+00 0.  1.
</event>
<event>
 7    1  0.5876913E-005  0.2975421E+03  0.7818608E-02  0.1202564E+00
          2   -1    0    0  502    0  0.00000000000E+00  0.00000000000E+00  0.76525717942E+03  0.76525717942E+03  0.00000000000E+00 0. -1.
          1   -1    0    0  501    0 -0.00000000000E+00 -0.00000000000E+00 -0.32830195594E+04  0.32830195594E+04  0.00000000000E+00 0. -1.
         25    2    1    2    0    0  0.32056618224E+03 -0.17815968956E+03 -0.25662121702E+04  0.25952982154E+04  0.12499748806E+03 0.  0.
          2    1    1    2  501    0 -0.72249199767E+02  0.15655174951E+02 -0.67082586958E+03  0.67488693769E+03  0.00000000000E+00 0. -1.
          1    1    1    2  502    0 -0.24831698247E+03  0.16250451461E+03  0.71927565980E+03  0.77809158577E+03  0.00000000000E+00 0. -1.
         22    1    3    3    0    0 -0.67178808995E+01 -0.23264699829E+02 -0.21670655413E+03  0.21805528379E+03  0.00000000000E+00 0.  1.
         22    1    3    3    0    0  0.32728406314E+03 -0.15489498973E+03 -0.23495056161E+04  0.23772429316E+04  0.00000000000E+00 0.  1.
</event>
<event>
 7    1  0.4402832E-005  0.1441365E+03  0.7818608E-02  0.1281065E+00
          2   -1    0    0  502    0  0.00000000000E+00  0.00000000000E+00  0.31746985234E+03  0.31746985234E+03  0.00000000000E+00 0. -1.
          1   -1    0    0  501    0 -0.00000000000E+00 -0.00000000000E+00 -0.16078120557E+04  0.16078120557E+04  0.00000000000E+00 0. -1.
         25    2    1    2    0    0 -0.28114151893E+02 -0.13579679948E+03 -0.33506716286E+03  0.38356977226E+03  0.12499836109E+03 0.  0.
          2    1    1    2  501    0  0.93505394454E+02  0.11417402579E+03 -0.12400124970E+04  0.12487633722E+04  0.00000000000E+00 0. -1.
          1    1    1    2  502    0 -0.65391242561E+02  0.21622773684E+02  0.28473745652E+03  0.29294876359E+03  0.00000000000E+00 0. -1.
         22    1    3    3    0    0 -0.37036877933E+02 -0.72344440791E+02 -0.29940018335E+03  0.31023526271E+03  0.00000000000E+00 0.  1.
         22    1    3    3    0    0  0.89227260402E+01 -0.63452358686E+02 -0.35666979514E+02  0.73334509546E+02  0.00000000000E+00 0.  1.
</event>
<event>
 7    1  0.4402832E-005  0.6190326E+03  0.7818608E-02  0.1108293E+00
          2   -1    0    0  502    0  0.00000000000E+00  0.00000000000E+00  0.30031302715E+04  0.30031302715E+04  0.00000000000E+00 0. -1.
          1   -1    0    0  501    0 -0.00000000000E+00 -0.00000000000E+00 -0.24342923246E+03  0.24342923246E+03  0.00000000000E+00 0. -1.
         25    2    1    2    0    0  0.51055000410E+03 -0.47098304168E+03  0.72216996955E+03  0.10097731883E+04  0.12500437850E+03 0.  0.
          2    1    1    2  501    0 -0.10126050562E+03  0.36412988442E+02 -0.60689068704E+01  0.10777953125E+03  0.00000000000E+00 0. -1.
          1    1    1    2  502    0 -0.40928949847E+03  0.43457005324E+03  0.20435999763E+04  0.21290067844E+04  0.00000000000E+00 0. -1.
         22    1    3    3    0    0  0.19037301173E+03 -0.21350667064E+03  0.21956246664E+03  0.36060318740E+03  0.00000000000E+00 0.  1.
         22    1    3    3    0    0  0.32017699236E+03 -0.25747637104E+03  0.50260750291E+03  0.64917000089E+03  0.00000000000E+00 0.  1.
</event>
<event>
 7    1  0.4402832E-005  0.3350871E+03  0.7818608E-02  0.1078604E+00
          2   -1    0    0  502    0  0.00000000000E+00  0.00000000000E+00  0.96057661393E+03  0.96057661393E+03  0.00000000000E+00 0. -1.
          1   -1    0    0  501    0 -0.00000000000E+00 -0.00000000000E+00 -0.12806997316E+04  0.12806997316E+04  0.00000000000E+00 0. -1.
         25    2    1    2    0    0  0.47970310625E+03  0.62764188770E+02  0.36443426513E+03  0.61845754994E+03  0.12499197548E+03 0.  0.
          2    1    1    2  501    0 -0.21485629207E+03 -0.20010537092E+03 -0.10846798580E+04  0.11237151686E+04  0.00000000000E+00 0. -1.
          1    1    1    2  502    0 -0.26484681419E+03  0.13734118215E+03  0.40012247522E+03  0.49910362699E+03  0.00000000000E+00 0. -1.
         22    1    3    3    0    0  0.22466667142E+03 -0.32045037443E+02  0.15009671963E+03  0.27208642545E+03  0.00000000000E+00 0.  1.
         22    1    3    3    0    0  0.25503643483E+03  0.94809226213E+02  0.21433754550E+03  0.34637112449E+03  0.00000000000E+00 0.  1.
</event>
<event>
 7    1  0.4402832E-005  0.1375188E+03  0.7818608E-02  0.1220211E+00
          2   -1    0    0  502    0  0.00000000000E+00  0.00000000000E+00  0.24398332447E+04  0.24398332447E+04  0.00000000000E+00 0. -1.
          1   -1    0    0  501    0 -0.00000000000E+00 -0.00000000000E+00 -0.10283372506E+04  0.10283372506E+04  0.00000000000E+00 0. -1.
         25    2    1    2    0    0  0.14174225528E+02 -0.68955239134E+02  0.41329915286E+03  0.43748877532E+03  0.12499802040E+03 0.  0.
          2    1    1    2  501    0  0.13561588332E+03  0.22798211333E+02 -0.10085201046E+04  0.10178527534E+04  0.00000000000E+00 0. -1.
          1    1    1    2  502    0 -0.14979010885E+03  0.46157027801E+02  0.20067169458E+04  0.20128289665E+04  0.00000000000E+00 0. -1.
         22    1    3    3    0    0  0.56867897436E+02 -0.55249705849E+02  0.14312725239E+03  0.16362120319E+03  0.00000000000E+00 0.  1.
         22    1    3    3    0    0 -0.42693671908E+02 -0.13705533285E+02  0.27017190047E+03  0.27386757214E+03  0.00000000000E+00 0.  1.
</event>
<event>
 7    1  0.4402832E-005  0.7269787E+02  0.7818608E-02  0.1412526E+00
          2   -1    0    0  502    0  0.00000000000E+00  0.00000000000E+00  0.80884488040E+03  0.80884488040E+03  0.00000000000E+00 0. -1.
          1   -1    0    0  501    0 -0.00000000000E+00 -0.00000000000E+00 -0.12740983458E+03  0.12740983458E+03  0.00000000000E+00 0. -1.
         25    2    1    2    0    0  0.41923828596E+02  0.12745725549E+02  0.34691704805E+03  0.37134484633E+03  0.12500198297E+03 0.  0.
          2    1    1    2  501    0  0.40386665230E+02 -0.17761390646E+02 -0.10700935027E+03  0.11574778949E+03  0.00000000000E+00 0. -1.
          1    1    1    2  502    0 -0.82310493826E+02  0.50156650967E+01  0.44152734804E+03  0.44916207917E+03  0.00000000000E+00 0. -1.
         22    1    3    3    0    0 -0.40782670301E+02 -0.56036418166E+01  0.17382239262E+03  0.17863048781E+03  0.00000000000E+00 0. -1.
         22    1    3    3    0    0  0.82706498898E+02  0.18349367366E+02  0.17309465543E+03  0.19271435853E+03  0.00000000000E+00 0. -1.
</event>
<event>
 7    1  0.4402832E-005  0.6379388E+03  0.7818608E-02  0.1003392E+00
          2   -1    0    0  502    0  0.00000000000E+00  0.00000000000E+00  0.59921684145E+03  0.59921684145E+03  0.00000000000E+00 0. -1.
          1   -1    0    0  501    0 -0.00000000000E+00 -0.00000000000E+00 -0.20531154835E+04  0.20531154835E+04  0.00000000000E+00 0. -1.
         25    2    1    2    0    0  0.61159154922E+03 -0.19629775072E+03  0.16759134312E+03  0.67549194602E+03  0.12500192333E+03 0.  0.
          2    1    1    2  501    0 -0.61341582176E+03 -0.26397452580E+03 -0.10263194371E+04  0.12244562498E+04  0.00000000000E+00 0. -1.
          1    1    1    2  502    0  0.18242725486E+01  0.46027227652E+03 -0.59517054803E+03  0.75238412912E+03  0.00000000000E+00 0. -1.
         22    1    3    3    0    0  0.42374719375E+03 -0.12519270918E+03  0.55078866784E+02  0.44527360152E+03  0.00000000000E+00 0.  1.
         22    1    3    3    0    0  0.18784435546E+03 -0.71105041550E+02  0.11251247634E+03  0.23021834450E+03  0.00000000000E+00 0.  1.
</event>
<event>
 7    1  0.4402832E-005  0.1091894E+04  0.7818608E-02  0.1072574E+00
          2   -1    0    0  502    0  0.00000000000E+00  0.00000000000E+00  0.30377145310E+04  0.30377145310E+04  0.00000000000E+00 0. -1.
          1   -1    0    0  501    0 -0.00000000000E+00 -0.00000000000E+00 -0.20197942366E+04  0.20197942366E+04  0.00000000000E+00 0. -1.
         25    2    1    2    0    0 -0.21956153183E+03 -0.10422468191E+04  0.62241849433E+03  0.12399663098E+04  0.12500387713E+03 0.  0.
          2    1    1    2  501    0 -0.96245204936E+02 -0.17332960787E+02 -0.15643098099E+04  0.15673636312E+04  0.00000000000E+00 0. -1.
          1    1    1    2  502    0  0.31580673676E+03  0.10595797798E+04  0.19598116100E+04  0.22501788266E+04  0.00000000000E+00 0. -1.
         22    1    3    3    0    0 -0.23173185647E+03 -0.98752525083E+03  0.60586302511E+03  0.11815141893E+04  0.00000000000E+00 0. -1.
         22    1    3    3    0    0  0.12170324645E+02 -0.54721568223E+02  0.16555469222E+02  0.58452120508E+02  0.00000000000E+00 0. -1.
</event>
<event>
 7    1  0.4402832E-005  0.7079918E+03  0.7818608E-02  0.1164519E+00
          2   -1    0    0  502    0  0.00000000000E+00  0.00000000000E+00  0.40855764770E+04  0.40855764770E+04  0.00000000000E+00 0. -1.
          1   -1    0    0  501    0 -0.00000000000E+00 -0.00000000000E+00 -0.16780406609E+03  0.16780406609E+03  0.00000000000E+00 0. -1.
         25    2    1    2    0    0 -0.26967575405E+03  0.66957002641E+03  0.25614862430E+04  0.26641852894E+04  0.12498980253E+03 0.  0.
          2    1    1    2  501    0  0.42284790699E+02 -0.21698136870E+02 -0.19670441118E+02  0.51436746805E+02  0.00000000000E+00 0. -1.
          1    1    1    2  502    0  0.22739096335E+03 -0.64787188954E+03  0.13759566091E+04  0.15377585069E+04  0.00000000000E+00 0. -1.
         22    1    3    3    0    0 -0.21021100546E+03  0.41004389999E+03  0.14606259171E+04  0.15315850406E+04  0.00000000000E+00 0. -1.
         22    1    3    3    0    0 -0.59464748596E+02  0.25952612643E+03  0.11008603258E+04  0.11326002488E+04  0.00000000000E+00 0. -1.
</event>
<event>
 7    1  0.4402832E-005  0.3894190E+03  0.7818608E-02  0.1154003E+00
          2   -1    0    0  502    0  0.00000000000E+00  0.00000000000E+00  0.55419937146E+03  0.55419937146E+03  0.00000000000E+00 0. -1.
          1   -1    0    0  501    0 -0.00000000000E+00 -0.00000000000E+00 -0.41801198499E+03  0.41801198499E+03  0.00000000000E+00 0. -1.
         25    2    1    2    0    0 -0.39240703574E+03 -0.58036997837E+02 -0.70041876246E+02  0.42176193660E+03  0.12500276766E+03 0.  0.
          2    1    1    2  501    0  0.45022746065E+01  0.97570195012E+02 -0.19939689655E+02  0.99688538232E+02  0.00000000000E+00 0. -1.
          1    1    1    2  502    0  0.38790476113E+03 -0.39533197175E+02  0.22616895237E+03  0.45076088162E+03  0.00000000000E+00 0. -1.
         22    1    3    3    0    0 -0.71935288092E+02 -0.49068105451E+02 -0.50292583245E+02  0.10055699168E+03  0.00000000000E+00 0.  1.
         22    1    3    3    0    0 -0.32047174764E+03 -0.89688923853E+01 -0.19749293002E+02  0.32120494492E+03  0.00000000000E+00 0.  1.
</event>
<event>
 7    1  0.4402832E-005  0.6939739E+02  0.7818608E-02  0.1399576E+00
          2   -1    0    0  502    0  0.00000000000E+00  0.00000000000E+00  0.29765677960E+03  0.29765677960E+03  0.00000000000E+00 0. -1.
          1   -1    0    0  501    0 -0.00000000000E+00 -0.00000000000E+00 -0.21220478383E+03  0.21220478383E+03  0.00000000000E+00 0. -1.
         25    2    1    2    0    0  0.90922838714E+01  0.60526737555E+02 -0.13750957435E+03  0.19566802731E+03  0.12502375089E+03 0.  0.
          2    1    1    2  501    0 -0.50985123728E+02 -0.42535959396E+01 -0.24681978553E+02  0.56804717984E+02  0.00000000000E+00 0. -1.
          1    1    1    2  502    0  0.41892839856E+02 -0.56273141616E+02  0.24764354868E+03  0.25738881813E+03  0.00000000000E+00 0. -1.
         22    1    3    3    0    0  0.88968695815E+00  0.33841603744E+02 -0.15765009869E+03  0.16124391246E+03  0.00000000000E+00 0. -1.
         22    1    3    3    0    0  0.82025969132E+01  0.26685133812E+02  0.20140524340E+02  0.34424114852E+02  0.00000000000E+00 0. -1.
</event>
<event>
 7    1  0.4402832E-005  0.4422069E+02  0.7818608E-02  0.1490291E+00
          2   -1    0    0  502    0  0.00000000000E+00  0.00000000000E+00  0.22261623476E+02  0.22261623476E+02  0.00000000000E+00 0. -1.
          1   -1    0    0  501    0 -0.00000000000E+00 -0.00000000000E+00 -0.67179207105E+03  0.67179207105E+03  0.00000000000E+00 0. -1.
         25    2    1    2    0    0 -0.23191937996E+01  0.13535310081E+02 -0.25395779214E+03  0.28338586622E+03  0.12499762281E+03 0.  0.
          2    1    1    2  501    0  0.22819095270E+02  0.37878207687E+02 -0.26773329401E+03  0.27136062067E+03  0.00000000000E+00 0. -1.
          1    1    1    2  502    0 -0.20499901470E+02 -0.51413517768E+02 -0.12783936142E+03  0.13930720763E+03  0.00000000000E+00 0. -1.
         22    1    3    3    0    0  0.10257870655E+02 -0.51887231715E+02 -0.15761254002E+03  0.16625047818E+03  0.00000000000E+00 0.  1.
         22    1    3    3    0    0 -0.12577064455E+02  0.65422541795E+02 -0.96345252118E+02  0.11713538804E+03  0.00000000000E+00 0.  1.
</event>
<event>
 7    1  0.4402832E-005  0.7816874E+03  0.7818608E-02  0.1046858E+00
          2   -1    0    0  502    0  0.00000000000E+00  0.00000000000E+00  0.18084082337E+04  0.18084082337E+04  0.00000000000E+00 0. -1.
          1   -1    0    0  501    0 -0.00000000000E+00 -0.00000000000E+00 -0.12960622727E+04  0.12960622727E+04  0.00000000000E+00 0. -1.
         25    2    1    2    0    0  0.27574507201E+03 -0.78492315313E+03 -0.81636547472E+03  0.11722701103E+04  0.12499968833E+03 0.  0.
          2    1    1    2  501    0 -0.11928836771E+03  0.66717923680E+03  0.96579402162E+02  0.68460603971E+03  0.00000000000E+00 0. -1.
          1    1    1    2  502    0 -0.15645670430E+03  0.11774391633E+03  0.12321320335E+04  0.12475943564E+04  0.00000000000E+00 0. -1.
         22    1    3    3    0    0 -0.55164972198E+01 -0.10432469079E+03 -0.89903679994E+02  0.13782867817E+03  0.00000000000E+00 0. -1.
         22    1    3    3    0    0  0.28126156923E+03 -0.68059846234E+03 -0.72646179472E+03  0.10344414321E+04  0.00000000000E+00 0. -1.
</event>
<event>
 7    1  0.4402832E-005  0.1152931E+03  0.7818608E-02  0.1316127E+00
          2   -1    0    0  502    0  0.00000000000E+00  0.00000000000E+00  0.65619090449E+03  0.65619090449E+03  0.00000000000E+00 0. -1.
          1   -1    0    0  501    0 -0.00000000000E+00 -0.00000000000E+00 -0.24284221915E+03  0.24284221915E+03  0.00000000000E+00 0. -1.
         25    2    1    2    0    0  0.31521833225E+02  0.13949848757E+03  0.15899694418E+02  0.19060738615E+03  0.12499968547E+03 0.  0.
          2    1    1    2  501    0 -0.55703923839E+02 -0.27845552629E+02 -0.14303282688E+03  0.15600221632E+03  0.00000000000E+00 0. -1.
          1    1    1    2  502    0  0.24182090614E+02 -0.11165293494E+03  0.54048181780E+03  0.55242352118E+03  0.00000000000E+00 0. -1.
         22    1    3    3    0    0 -0.39747711246E+02  0.43402613018E+02 -0.25315983494E+02  0.64066889939E+02  0.00000000000E+00 0. -1.
         22    1    3    3    0    0  0.71269544471E+02  0.96095874550E+02  0.41215677913E+02  0.12654049621E+03  0.00000000000E+00 0. -1.
</event>
<event>
 7    1  0.4402832E-005  0.1229904E+03  0.7818608E-02  0.1368178E+00
          2   -1    0    0  502    0  0.00000000000E+00  0.00000000000E+00  0.20759722312E+04  0.20759722312E+04  0.00000000000E+00 0. -1.
          1   -1    0    0  501    0 -0.00000000000E+00 -0.00000000000E+00 -0.45703888002E+02  0.45703888002E+02  0.00000000000E+00 0. -1.
         25    2    1    2    0    0 -0.11625056047E+03  0.72984509247E+02  0.43977802142E+03  0.47735868972E+03  0.12500271646E+03 0.  0.
          2    1    1    2  501    0 -0.12792771190E+00 -0.37239196363E+02 -0.10510621277E+02  0.38694279563E+02  0.00000000000E+00 0. -1.
          1    1    1    2  502    0  0.11637848818E+03 -0.35745312884E+02  0.16010009430E+04  0.16056231499E+04  0.00000000000E+00 0. -1.
         22    1    3    3    0    0 -0.29104374371E+02  0.86298541502E+02  0.16100602796E+03  0.18497957701E+03  0.00000000000E+00 0.  1.
         22    1    3    3    0    0 -0.87146186097E+02 -0.13314032255E+02  0.27877199346E+03  0.29237911270E+03  0.00000000000E+00 0.  1.
</event>
<event>
 7    1  0.4402832E-005  0.2690057E+03  0.7818608E-02  0.1227255E+00
          2   -1    0    0  502    0  0.00000000000E+00  0.00000000000E+00  0.35185201884E+04  0.35185201884E+04  0.00000000000E+00 0. -1.
          1   -1    0    0  501    0 -0.00000000000E+00 -0.00000000000E+00 -0.99072032733E+02  0.99072032733E+02  0.00000000000E+00 0. -1.
         25    2    1    2    0    0 -0.30004928192E+03  0.49711777457E+02  0.63901673536E+03  0.71865709867E+03  0.12499921997E+03 0.  0.
          2    1    1    2  501    0  0.25546149069E+03 -0.52685066740E+01  0.21841391904E+03  0.33614427025E+03  0.00000000000E+00 0. -1.
          1    1    1    2  502    0  0.44587791233E+02 -0.44443270783E+02  0.25620175013E+04  0.25627908522E+04  0.00000000000E+00 0. -1.
         22    1    3    3    0    0 -0.82292790030E+02  0.30479447020E+02  0.32080822028E+03  0.33259436883E+03  0.00000000000E+00 0. -1.
         22    1    3    3    0    0 -0.21775649189E+03  0.19232330437E+02  0.31820851508E+03  0.38606272984E+03  0.00000000000E+00 0. -1.
</event>
<event>
 7    1  0.4402832E-005  0.2251880E+03  0.7818608E-02  0.1189034E+00
          2   -1    0    0  502    0  0.00000000000E+00  0.00000000000E+00  0.41124393504E+03  0.41124393504E+03  0.00000000000E+00 0. -1.
          1   -1    0    0  501    0 -0.00000000000E+00 -0.00000000000E+00 -0.13687940031E+04  0.13687940031E+04  0.00000000000E+00 0. -1.
         25    2    1    2    0    0  0.14010681752E+03  0.18892385718E+03 -0.76215607482E+03  0.80735625041E+03  0.12498035271E+03 0.  0.
          2    1    1    2  501    0 -0.33328443225E+02 -0.22668636291E+03 -0.55245750326E+03  0.59808593460E+03  0.00000000000E+00 0. -1.
          1    1    1    2  502    0 -0.10677837429E+03  0.37762505723E+02  0.35706351003E+03  0.37459575311E+03  0.00000000000E+00 0. -1.
         22    1    3    3    0    0  0.10981152358E+02  0.74375684210E+02 -0.11361537472E+03  0.13623795904E+03  0.00000000000E+00 0.  1.
         22    1    3    3    0    0  0.12912566516E+03  0.11454817297E+03 -0.64854070010E+03  0.67111829138E+03  0.00000000000E+00 0.  1.
</event>
<event>
 7    1  0.4402832E-005  0.3345986E+03  0.7818608E-02  0.1191524E+00
          2   -1    0    0  502    0  0.00000000000E+00  0.00000000000E+00  0.61049733251E+03  0.61049733251E+03  0.00000000000E+00 0. -1.
          1   -1    0    0  501    0 -0.00000000000E+00 -0.00000000000E+00 -0.14273768039E+04  0.14273768039E+04  0.00000000000E+00 0. -1.
         25    2    1    2    0    0  0.19064182332E+03 -0.27795442609E+03 -0.13404725978E+03  0.38366288869E+03  0.12500230609E+03 0.  0.
          2    1    1    2  501    0 -0.24575056390E+03  0.22833225718E+03 -0.11414064227E+04  0.11896796128E+04  0.00000000000E+00 0. -1.
          1    1    1    2  502    0  0.55108740580E+02  0.49622168904E+02  0.45857421100E+03  0.46453163501E+03  0.00000000000E+00 0. -1.
         22    1    3    3    0    0  0.16710285332E+03 -0.14969477034E+03 -0.11426057623E+03  0.25176847923E+03  0.00000000000E+00 0.  1.
         22    1    3    3    0    0  0.23538969993E+02 -0.12825965575E+03 -0.19786683549E+02  0.13189440946E+03  0.00000000000E+00 0.  1.
</event>
<event>
 7    1  0.4402832E-005  0.2240849E+03  0.7818608E-02  0.1135288E+00
          2   -1    0    0  502    0  0.00000000000E+00  0.00000000000E+00  0.18081939852E+04  0.18081939852E+04  0.00000000000E+00 0. -1.
          1   -1    0    0  501    0 -0.00000000000E+00 -0.00000000000E+00 -0.11076115676E+04  0.11076115676E+04  0.00000000000E+00 0. -1.
         25    2    1    2    0    0  0.17408699483E+03  0.29464673253E+03  0.50116496634E+03  0.61960840713E+03  0.12500110377E+03 0.  0.
          2    1    1    2  501    0  0.23042171297E+02 -0.21107085828E+03 -0.10282781138E+04  0.10499703463E+04  0.00000000000E+00 0. -1.
          1    1    1    2  502    0 -0.19712916613E+03 -0.83575874250E+02  0.12276955651E+04  0.12462267994E+04  0.00000000000E+00 0. -1.
         22    1    3    3    0    0  0.50002071076E+02  0.65559551252E+01  0.77409690197E+02  0.92387487225E+02  0.00000000000E+00 0. -1.
         22    1    3    3    0    0  0.12408492376E+03  0.28809077740E+03  0.42375527614E+03  0.52722091990E+03  0.00000000000E+00 0. -1.
</event>
<event>
 7    1  0.4402832E-005  0.2968713E+02  0.7818608E-02  0.1669174E+00
          2   -1    0    0  502    0  0.00000000000E+00  0.00000000000E+00  0.69114756831E+03  0.69114756831E+03  0.00000000000E+00 0. -1.
          1   -1    0    0  501    0 -0.00000000000E+00 -0.00000000000E+00 -0.12913146471E+04  0.12913146471E+04  0.00000000000E+00 0. -1.
         25    2    1    2    0    0  0.33150670621E+02 -0.30226398175E+02  0.26695233676E+02  0.13546925829E+03  0.12500672915E+03 0.  0.
          2    1    1    2  501    0 -0.56277678897E+01  0.19317697539E+02 -0.12364865511E+04  0.12366502482E+04  0.00000000000E+00 0. -1.
          1    1    1    2  502    0 -0.27522902732E+02  0.10908700636E+02  0.60962423869E+03  0.61034270891E+03  0.00000000000E+00 0. -1.
         22    1    3    3    0    0 -0.41429427062E+02 -0.33382858053E+02  0.29372043775E+02  0.60774415620E+02  0.00000000000E+00 0.  1.
         22    1    3    3    0    0  0.74580097683E+02  0.31564598787E+01 -0.26768100988E+01  0.74694842671E+02  0.00000000000E+00 0.  1.
</event>
<event>
 7    1  0.4402832E-005  0.2074412E+03  0.7818608E-02  0.1185690E+00
          2   -1    0    0  502    0  0.00000000000E+00  0.00000000000E+00  0.13911876563E+04  0.13911876563E+04  0.00000000000E+00 0. -1.
          1   -1    0    0  501    0 -0.00000000000E+00 -0.00000000000E+00 -0.54718901978E+03  0.54718901978E+03  0.00000000000E+00 0. -1.
         25    2    1    2    0    0 -0.28210281754E+03  0.45826701610E+02  0.64723554188E+03  0.71848167406E+03  0.12497993056E+03 0.  0.
          2    1    1    2  501    0  0.12028617858E+03  0.42571830237E+02 -0.49127667780E+03  0.50757649634E+03  0.00000000000E+00 0. -1.
          1    1    1    2  502    0  0.16181663897E+03 -0.88398531847E+02  0.68803977242E+03  0.71231850566E+03  0.00000000000E+00 0. -1.
         22    1    3    3    0    0 -0.18759344169E+02 -0.32205869904E+02  0.77698647234E+02  0.86175465371E+02  0.00000000000E+00 0.  1.
         22    1    3    3    0    0 -0.26334347337E+03  0.78032571514E+02  0.56953689464E+03  0.63230620869E+03  0.00000000000E+00 0.  1.
</event>
<event>
 7    1  0.4402832E-005  0.8835572E+03  0.7818608E-02  0.1037295E+00
          2   -1    0    0  502    0  0.00000000000E+00  0.00000000000E+00  0.19533837834E+04  0.19533837834E+04  0.00000000000E+00 0. -1.
          1   -1    0    0  501    0 -0.00000000000E+00 -0.00000000000E+00 -0.12856372027E+04  0.12856372027E+04  0.00000000000E+00 0. -1.
         25    2    1    2    0    0  0.14924996397E+03  0.93133520123E+03  0.12432063874E+04  0.15655177321E+04  0.12499135646E+03 0.  0.
          2    1    1    2  501    0  0.79343229353E+02 -0.18247774860E+03 -0.82740552059E+03  0.85099551836E+03  0.00000000000E+00 0. -1.
          1    1    1    2  502    0 -0.22859319332E+03 -0.74885745263E+03  0.25194571389E+03  0.82250773561E+03  0.00000000000E+00 0. -1.
         22    1    3    3    0    0  0.79662991043E+02  0.69034316639E+03  0.98566708164E+03  0.12060097327E+04  0.00000000000E+00 0. -1.
         22    1    3    3    0    0  0.69586972924E+02  0.24099203484E+03  0.25753930576E+03  0.35950799945E+03  0.00000000000E+00 0. -1.
</event>
<event>
 7    1  0.4402832E-005  0.6892525E+03  0.7818608E-02  0.1233219E+00
          2   -1    0    0  502    0  0.00000000000E+00  0.00000000000E+00  0.18125899455E+04  0.18125899455E+04  0.00000000000E+00 0. -1.
          1   -1    0    0  501    0 -0.00000000000E+00 -0.00000000000E+00 -0.27718589063E+03  0.27718589063E+03  0.00000000000E+00 0. -1.
         25    2    1    2    0    0 -0.59471581885E+03 -0.36765884831E+03  0.73458284355E+03  0.10218095988E+04  0.12499187226E+03 0.  0.
          2    1    1    2  501    0  0.57161853394E+03  0.36711056229E+03  0.74881920261E+03  0.10110628623E+04  0.00000000000E+00 0. -1.
          1    1    1    2  502    0  0.23097284904E+02  0.54828602423E+00  0.52002008713E+02  0.56903375099E+02  0.00000000000E+00 0. -1.
         22    1    3    3    0    0 -0.73096954060E+02 -0.58315162762E+02  0.16589613713E+03  0.19043463765E+03  0.00000000000E+00 0. -1.
         22    1    3    3    0    0 -0.52161886479E+03 -0.30934368555E+03  0.56868670642E+03  0.83137496110E+03  0.00000000000E+00 0. -1.
</event>
<event>
 7    1  0.4402832E-005  0.4050143E+03  0.7818608E-02  0.1260705E+00
          2   -1    0    0  502    0  0.00000000000E+00  0.00000000000E+00  0.91278050031E+03  0.91278050031E+03  0.00000000000E+00 0. -1.
          1   -1    0    0  501    0 -0.00000000000E+00 -0.00000000000E+00 -0.27431412071E+03  0.27431412071E+03  0.00000000000E+00 0. -1.
         25    2    1    2    0    0  0.39214627502E+03  0.87142318045E+02  0.22516434777E+03  0.47717554650E+03  0.12500013623E+03 0.  0.
          2    1    1    2  501    0  0.10860039905E+02 -0.27789189301E+02 -0.71039005074E+02  0.77050111944E+02  0.00000000000E+00 0. -1.
          1    1    1    2  502    0 -0.40300631493E+03 -0.59353128744E+02  0.48434103691E+03  0.63286896258E+03  0.00000000000E+00 0. -1.
         22    1    3    3    0    0  0.38420509774E+03  0.10655269753E+03  0.20606238572E+03  0.44880813416E+03  0.00000000000E+00 0. -1.
         22    1    3    3    0    0  0.79411772862E+01 -0.19410379487E+02  0.19101962051E+02  0.28367412338E+02  0.00000000000E+00 0. -1.
</event>
<event>
 7    1  0.4402832E-005  0.2624883E+03  0.7818608E-02  0.1172827E+00
          2   -1    0    0  502    0  0.00000000000E+00  0.00000000000E+00  0.17957038581E+04  0.17957038581E+04  0.00000000000E+00 0. -1.
          1   -1    0    0  501    0 -0.00000000000E+00 -0.00000000000E+00 -0.23710791023E+03  0.23710791023E+03  0.00000000000E+00 0. -1.
         25    2    1    2    0    0  0.24926700774E+03 -0.10515979426E+03  0.16330201626E+03  0.33983103590E+03  0.12499984388E+03 0.  0.
          2    1    1    2  501    0 -0.26673979895E+03 -0.10067737992E+02 -0.24830473197E+02  0.26808213684E+03  0.00000000000E+00 0. -1.
          1    1    1    2  502    0  0.17472791210E+02  0.11522753225E+03  0.14201244048E+04  0.14248985956E+04  0.00000000000E+00 0. -1.
         22    1    3    3    0    0  0.20879793739E+03 -0.36443645199E+02  0.85907586743E+02  0.22870249539E+03  0.00000000000E+00 0.  1.
         22    1    3    3    0    0  0.40469070343E+02 -0.68716149058E+02  0.77394429521E+02  0.11112854051E+03  0.00000000000E+00 0.  1.
</event>
<event>
 7    1  0.4402832E-005  0.2167005E+03  0.7818608E-02  0.1292084E+00
          2   -1    0    0  502    0  0.00000000000E+00  0.00000000000E+00  0.15615202141E+03  0.15615202141E+03  0.00000000000E+00 0. -1.
          1   -1    0    0  501    0 -0.00000000000E+00 -0.00000000000E+00 -0.47756333523E+03  0.47756333523E+03  0.00000000000E+00 0. -1.
         25    2    1    2    0    0 -0.17738804088E+03 -0.13374751058E+03 -0.16003919420E+03  0.30098731656E+03  0.12500362962E+03 0.  0.
          2    1    1    2  501    0 -0.15106076359E+02  0.38433437947E+02 -0.10174521939E+03  0.10980624920E+03  0.00000000000E+00 0. -1.
          1    1    1    2  502    0  0.19249411724E+03  0.95314072637E+02 -0.59626900232E+02  0.22292179087E+03  0.00000000000E+00 0. -1.
         22    1    3    3    0    0 -0.10550233954E+03 -0.61724406715E+01 -0.89312304709E+02  0.13836737493E+03  0.00000000000E+00 0.  1.
         22    1    3    3    0    0 -0.71885701339E+02 -0.12757506991E+03 -0.70726889491E+02  0.16261994163E+03  0.00000000000E+00 0.  1.
</event>
<event>
 7    1  0.4402832E-005  0.2345611E+03  0.7818608E-02  0.1171521E+00
          2   -1    0    0  502    0  0.00000000000E+00  0.00000000000E+00  0.15310053811E+04  0.15310053811E+04  0.00000000000E+00 0. -1.
          1   -1    0    0  501    0 -0.00000000000E+00 -0.00000000000E+00 -0.31159055428E+03  0.31159055428E+03  0.00000000000E+00 0. -1.
         25    2    1    2    0    0  0.30403194475E+03 -0.13240333632E+03  0.70367225957E+03  0.78787699431E+03  0.12501776825E+03 0.  0.
          2    1    1    2  501    0 -0.17286136780E+03  0.15022632556E+03 -0.21377582766E+03  0.31328757693E+03  0.00000000000E+00 0. -1.
          1    1    1    2  502    0 -0.13117057694E+03 -0.17822989233E+02  0.72951839490E+03  0.74143136412E+03  0.00000000000E+00 0. -1.
         22    1    3    3    0    0  0.21638110037E+03 -0.30032841458E+02  0.40354831589E+03  0.45888342247E+03  0.00000000000E+00 0.  1.
         22    1    3    3    0    0  0.87650844375E+02 -0.10237049486E+03  0.30012394369E+03  0.32899357184E+03  0.00000000000E+00 0.  1.
</event>
<event>
 7    1  0.4402832E-005  0.3775661E+03  0.7818608E-02  0.1187740E+00
          2   -1    0    0  502    0  0.00000000000E+00  0.00000000000E+00  0.25363409555E+04  0.25363409555E+04  0.00000000000E+00 0. -1.
          1   -1    0    0  501    0 -0.00000000000E+00 -0.00000000000E+00 -0.10827528099E+04  0.10827528099E+04  0.00000000000E+00 0. -1.
         25    2    1    2    0    0  0.80251496763E+02 -0.39537088415E+03  0.11452471397E+03  0.43760279733E+03  0.12498743679E+03 0.  0.
          2    1    1    2  501    0 -0.13209090970E+03  0.35055543976E+03 -0.88257878894E+03  0.95879217949E+03  0.00000000000E+00 0. -1.
          1    1    1    2  502    0  0.51839412935E+02  0.44815444392E+02  0.22216422206E+04  0.22226987886E+04  0.00000000000E+00 0. -1.
         22    1    3    3    0    0  0.11136155701E+03 -0.28037893764E+03  0.65088794406E+02  0.30862646713E+03  0.00000000000E+00 0. -1.
         22    1    3    3    0    0 -0.31110060245E+02 -0.11499194651E+03  0.49435919563E+02  0.12897633020E+03  0.00000000000E+00 0. -1.
</event>
<event>
 7    1  0.4402832E-005  0.1723038E+03  0.7818608E-02  0.1229936E+00
          2   -1    0    0  502    0  0.00000000000E+00  0.00000000000E+00  0.84110737430E+03  0.84110737430E+03  0.00000000000E+00 0. -1.
          1   -1    0    0  501    0 -0.00000000000E+00 -0.00000000000E+00 -0.17355729770E+04  0.17355729770E+04  0.00000000000E+00 0. -1.
         25    2    1    2    0    0 -0.20782116212E+03 -0.67904536640E+02  0.63644125223E+01  0.25192811129E+03  0.12500642379E+03 0.  0.
          2    1    1    2  501    0  0.38966359229E+02  0.87295571378E+02 -0.16012013665E+04  0.16040525895E+04  0.00000000000E+00 0. -1.
          1    1    1    2  502    0  0.16885480289E+03 -0.19391034738E+02  0.70037135121E+03  0.72069965054E+03  0.00000000000E+00 0. -1.
         22    1    3    3    0    0  0.10295022011E+02  0.11266583186E+02 -0.11634441944E+02  0.19190716876E+02  0.00000000000E+00 0.  1.
         22    1    3    3    0    0 -0.21811618413E+03 -0.79171119826E+02  0.17998854466E+02  0.23273739441E+03  0.00000000000E+00 0.  1.
</event>
<event>
 7    1  0.4402832E-005  0.4599930E+03  0.7818608E-02  0.1123067E+00
          2   -1    0    0  502    0  0.00000000000E+00  0.00000000000E+00  0.29088439660E+04  0.29088439660E+04  0.00000000000E+00 0. -1.
          1   -1    0    0  501    0 -0.00000000000E+00 -0.00000000000E+00 -0.87744819334E+03  0.87744819334E+03  0.00000000000E+00 0. -1.
         25    2    1    2    0    0  0.25210763186E+03 -0.36700076944E+03  0.48867956825E+03  0.67281511231E+03  0.12499852845E+03 0.  0.
          2    1    1    2  501    0 -0.35244064815E+03  0.30079396012E+03 -0.71530235158E+03  0.85226103459E+03  0.00000000000E+00 0. -1.
          1    1    1    2  502    0  0.10033301629E+03  0.66206809319E+02  0.22580185560E+04  0.22612160125E+04  0.00000000000E+00 0. -1.
         22    1    3    3    0    0  0.12383944473E+03 -0.80977985412E+02  0.17805779797E+03  0.23151289729E+03  0.00000000000E+00 0. -1.
         22    1    3    3    0    0  0.12826818713E+03 -0.28602278403E+03  0.31062177028E+03  0.44130221503E+03  0.00000000000E+00 0. -1.
</event>
<event>
 7    1  0.4402832E-005  0.1214466E+04  0.7818608E-02  0.1096138E+00
          2   -1    0    0  502    0  0.00000000000E+00  0.00000000000E+00  0.36681797359E+04  0.36681797359E+04  0.00000000000E+00 0. -1.
          1   -1    0    0  501    0 -0.00000000000E+00 -0.00000000000E+00 -0.16859528222E+04  0.16859528222E+04  0.00000000000E+00 0. -1.
         25    2    1    2    0    0  0.15574917603E+03 -0.12135966392E+04  0.81142623981E+03  0.14734693940E+04  0.12499961516E+03 0.  0.
          2    1    1    2  501    0 -0.63886335983E+02  0.61074953044E+01 -0.12088782802E+04  0.12105806300E+04  0.00000000000E+00 0. -1.
          1    1    1    2  502    0 -0.91862840046E+02  0.12074891439E+04  0.23796789541E+04  0.26700825340E+04  0.00000000000E+00 0. -1.
         22    1    3    3    0    0  0.15660572154E+03 -0.12119193548E+04  0.79702551526E+03  0.14589460397E+04  0.00000000000E+00 0.  1.
         22    1    3    3    0    0 -0.85654551133E+00 -0.16772843671E+01  0.14400724543E+02  0.14523354311E+02  0.00000000000E+00 0.  1.
</event>
<event>
 7    1  0.4402832E-005  0.2622830E+03  0.7818608E-02  0.1143360E+00
          2   -1    0    0  502    0  0.00000000000E+00  0.00000000000E+00  0.21956966538E+04  0.21956966538E+04  0.00000000000E+00 0. -1.
          1   -1    0    0  501    0 -0.00000000000E+00 -0.00000000000E+00 -0.27496271361E+03  0.27496271361E+03  0.00000000000E+00 0. -1.
         25    2    1    2    0    0 -0.36916562231E+02 -0.36880790570E+03  0.15872462160E+04  0.16347347102E+04  0.12499967535E+03 0.  0.
          2    1    1    2  501    0 -0.74535393100E+02  0.24774231068E+03 -0.16776955721E+03  0.30834785819E+03  0.00000000000E+00 0. -1.
          1    1    1    2  502    0  0.11145195533E+03  0.12106559503E+03  0.50125728139E+03  0.52757679895E+03  0.00000000000E+00 0. -1.
         22    1    3    3    0    0  0.25153078826E+02 -0.20086761433E+03  0.10203106298E+04  0.10401991430E+04  0.00000000000E+00 0.  1.
         22    1    3    3    0    0 -0.62069641057E+02 -0.16794029138E+03  0.56693558618E+03  0.59453556722E+03  0.00000000000E+00 0.  1.
</event>
<event>
 7    1  0.4402832E-005  0.1090868E+04  0.7818608E-02  0.1139931E+00
          2   -1    0    0  502    0  0.00000000000E+00  0.00000000000E+00  0.22754265395E+04  0.22754265395E+04  0.00000000000E+00 0. -1.
          1   -1    0    0  501    0 -0.00000000000E+00 -0.00000000000E+00 -0.35805914416E+04  0.35805914416E+04  0.00000000000E+00 0. -1.
         25    2    1    2    0    0 -0.55541538422E+03  0.94037888543E+03 -0.20659111246E+04  0.23401738751E+04  0.12500517596E+03 0.  0.
          2    1    1    2  501    0  0.58894743695E+03 -0.91638806883E+03 -0.11619423702E+04  0.15927134858E+04  0.00000000000E+00 0. -1.
          1    1    1    2  502    0 -0.33532052724E+02 -0.23990816602E+02  0.19226885926E+04  0.19231306201E+04  0.00000000000E+00 0. -1.
         22    1    3    3    0    0 -0.36354014908E+03  0.51098272994E+03 -0.11127039379E+04  0.12772528503E+04  0.00000000000E+00 0. -1.
         22    1    3    3    0    0 -0.19187523514E+03  0.42939615549E+03 -0.95320718668E+03  0.10629210248E+04  0.00000000000E+00 0. -1.
</event>
<event>
 7    1  0.4402832E-005  0.1435761E+03  0.7818608E-02  0.1243193E+00
          2   -1    0    0  502    0  0.00000000000E+00  0.00000000000E+00  0.16235425392E+04  0.16235425392E+04  0.00000000000E+00 0. -1.
          1   -1    0    0  501    0 -0.00000000000E+00 -0.00000000000E+00 -0.59733771728E+02  0.59733771728E+02  0.00000000000E+00 0. -1.
         25    2    1    2    0    0 -0.54354293597E+02 -0.18638337057E+03  0.62922415062E+03  0.67025475102E+03  0.12500099794E+03 0.  0.
          2    1    1    2  501    0 -0.41925449314E+02  0.91004610356E+02  0.39447450491E+02  0.10768325662E+03  0.00000000000E+00 0. -1.
          1    1    1    2  502    0  0.96279742911E+02  0.95378760212E+02  0.89513716637E+03  0.90533830329E+03  0.00000000000E+00 0. -1.
         22    1    3    3    0    0 -0.36933940950E+02  0.26015437699E+01  0.63042036779E+02  0.73110754512E+02  0.00000000000E+00 0. -1.
         22    1    3    3    0    0 -0.17420352647E+02 -0.18898491434E+03  0.56618211384E+03  0.59714399651E+03  0.00000000000E+00 0. -1.
</event>
<event>
 7    1  0.4402832E-005  0.4545354E+03  0.7818608E-02  0.1167141E+00
          2   -1    0    0  502    0  0.00000000000E+00  0.00000000000E+00  0.20150504322E+04  0.20150504322E+04  0.00000000000E+00 0. -1.
          1   -1    0    0  501    0 -0.00000000000E+00 -0.00000000000E+00 -0.59941849127E+03  0.59941849127E+03  0.00000000000E+00 0. -1.
         25    2    1    2    0    0  0.33662338244E+01 -0.45556717638E+03 -0.31837070130E+03  0.56968124010E+03  0.12499611253E+03 0.  0.
          2    1    1    2  501    0  0.68295585697E+02  0.45072278326E+03  0.18157324686E+03  0.49069762416E+03  0.00000000000E+00 0. -1.
          1    1    1    2  502    0 -0.71661819521E+02  0.48443931163E+01  0.15524293954E+04  0.15540900592E+04  0.00000000000E+00 0. -1.
         22    1    3    3    0    0  0.57402754271E+02 -0.13608202945E+03 -0.11423411265E+03  0.18671590032E+03  0.00000000000E+00 0. -1.
         22    1    3    3    0    0 -0.54036520447E+02 -0.31948514692E+03 -0.20413658866E+03  0.38296533978E+03  0.00000000000E+00 0. -1.
</event>
<event>
 7    1  0.4402832E-005  0.3176602E+03  0.7818608E-02  0.1202221E+00
          2   -1    0    0  502    0  0.00000000000E+00  0.00000000000E+00  0.97950808791E+03  0.97950808791E+03  0.00000000000E+00 0. -1.
          1   -1    0    0  501    0 -0.00000000000E+00 -0.00000000000E+00 -0.96254806359E+03  0.96254806359E+03  0.00000000000E+00 0. -1.
         25    2    1    2    0    0  0.28953377166E+03  0.14596144989E+03 -0.67279624786E+03  0.75724120828E+03  0.12499962637E+03 0.  0.
          2    1    1    2  501    0 -0.23900926735E+03 -0.19368762193E+03 -0.14995103992E+03  0.34223623295E+03  0.00000000000E+00 0. -1.
          1    1    1    2  502    0 -0.50524504306E+02  0.47726172048E+02  0.83970731209E+03  0.84257871028E+03  0.00000000000E+00 0. -1.
         22    1    3    3    0    0  0.12514872596E+03  0.47645745806E+01 -0.31438654918E+03  0.33841366268E+03  0.00000000000E+00 0. -1.
         22    1    3    3    0    0  0.16438504570E+03  0.14119687530E+03 -0.35840969868E+03  0.41882754560E+03  0.00000000000E+00 0. -1.
</event>
<event>
 7    1  0.4402832E-005  0.1887032E+03  0.7818608E-02  0.1168548E+00
          2   -1    0    0  502    0  0.00000000000E+00  0.00000000000E+00  0.15564291466E+03  0.15564291466E+03  0.00000000000E+00 0. -1.
          1   -1    0    0  501    0 -0.00000000000E+00 -0.00000000000E+00 -0.73822521732E+03  0.73822521732E+03  0.00000000000E+00 0. -1.
         25    2    1    2    0    0 -0.36530976179E+02 -0.20318956507E+03 -0.10465277090E+03  0.26305158819E+03  0.12499369592E+03 0.  0.
          2    1    1    2  501    0 -0.12686674151E+03  0.15541898721E+03 -0.39146211368E+03  0.43987818556E+03  0.00000000000E+00 0. -1.
          1    1    1    2  502    0  0.16339771769E+03  0.47770577860E+02 -0.86467418073E+02  0.19093835823E+03  0.00000000000E+00 0. -1.
         22    1    3    3    0    0 -0.11488472919E+02  0.61336947301E+01 -0.40724098490E+02  0.42755811522E+02  0.00000000000E+00 0. -1.
         22    1    3    3    0    0 -0.25042503260E+02 -0.20932325980E+03 -0.63928672411E+02  0.22029577667E+03  0.00000000000E+00 0. -1.
</event>
<event>
 7    1  0.4402832E-005  0.2411118E+03  0.7818608E-02  0.1189107E+00
          2   -1    0    0  502    0  0.00000000000E+00  0.00000000000E+00  0.30189103699E+03  0.30189103699E+03  0.00000000000E+00 0. -1.
          1   -1    0    0  501    0 -0.00000000000E+00 -0.00000000000E+00 -0.45006173185E+03  0.45006173185E+03  0.00000000000E+00 0. -1.
         25    2    1    2    0    0  0.29413538902E+03 -0.59031669580E+02 -0.20500299224E+03  0.38425986813E+03  0.12501621634E+03 0.  0.
          2    1    1    2  501    0 -0.66379149875E+02  0.82249801435E+02 -0.47774267882E+02  0.11598966353E+03  0.00000000000E+00 0. -1.
          1    1    1    2  502    0 -0.22775623914E+03 -0.23218131856E+02  0.10460656525E+03  0.25170323718E+03  0.00000000000E+00 0. -1.
         22    1    3    3    0    0  0.21162612414E+03 -0.27784855793E+02 -0.73185235737E+02  0.22564062879E+03  0.00000000000E+00 0. -1.
         22    1    3    3    0    0  0.82509264876E+02 -0.31246813787E+02 -0.13181775650E+03  0.15861923935E+03  0.00000000000E+00 0. -1.
</event>
<event>
 7    1  0.4402832E-005  0.7771315E+03  0.7818608E-02  0.1191218E+00
          2   -1    0    0  502    0  0.00000000000E+00  0.00000000000E+00  0.16155926864E+04  0.16155926864E+04  0.00000000000E+00 0. -1.
          1   -1    0    0  501    0 -0.00000000000E+00 -0.00000000000E+00 -0.14987120431E+04  0.14987120431E+04  0.00000000000E+00 0. -1.
         25    2    1    2    0    0  0.13882020106E+03 -0.78391549110E+03 -0.65235629907E+03  0.10368163708E+04  0.12499960171E+03 0.  0.
          2    1    1    2  501    0 -0.27013581232E+02  0.17222909031E+02 -0.54818323553E+03  0.54911858635E+03  0.00000000000E+00 0. -1.
          1    1    1    2  502    0 -0.11180661983E+03  0.76669258207E+03  0.13174201779E+04  0.15283697723E+04  0.00000000000E+00 0. -1.
         22    1    3    3    0    0  0.15686447667E+03 -0.75799756938E+03 -0.63139226473E+03  0.99891089251E+03  0.00000000000E+00 0.  1.
         22    1    3    3    0    0 -0.18044275611E+02 -0.25917921723E+02 -0.20964034343E+02  0.37905478294E+02  0.00000000000E+00 0.  1.
</event>
<event>
 7    1  0.4402832E-005  0.7607361E+03  0.7818608E-02  0.1056525E+00
          2   -1    0    0  502    0  0.00000000000E+00  0.00000000000E+00  0.43086313035E+04  0.43086313035E+04  0.00000000000E+00 0. -1.
          1   -1    0    0  501    0 -0.00000000000E+00 -0.00000000000E+00 -0.18088976717E+04  0.18088976717E+04  0.00000000000E+00 0. -1.
         25    2    1    2    0    0 -0.80138323394E+03 -0.33213113286E+03 -0.50397836263E+03  0.10110113901E+04  0.12499465490E+03 0.  0.
          2    1    1    2  501    0  0.62610362349E+03  0.33761715508E+03 -0.92891142227E+03  0.11699861201E+04  0.00000000000E+00 0. -1.
          1    1    1    2  502    0  0.17527961045E+03 -0.54860222119E+01  0.39326234167E+04  0.39365314651E+04  0.00000000000E+00 0. -1.
         22    1    3    3    0    0 -0.29185359101E+03 -0.61653294494E+02 -0.19787789786E+03  0.35795992760E+03  0.00000000000E+00 0.  1.
         22    1    3    3    0    0 -0.50952964294E+03 -0.27047783837E+03 -0.30610046477E+03  0.65305146245E+03  0.00000000000E+00 0.  1.
</event>
<event>
 7    1  0.4897511E-005  0.1149895E+04  0.7818608E-02  0.1111229E+00
          2   -1    0    0  502    0  0.00000000000E+00  0.00000000000E+00  0.29987818368E+04  0.29987818368E+04  0.00000000000E+00 0. -1.
          1   -1    0    0  501    0 -0.00000000000E+00 -0.00000000000E+00 -0.17134804323E+04  0.17134804323E+04  0.00000000000E+00 0. -1.
         25    2    1    2    0    0 -0.11740006804E+04 -0.86185146856E+02 -0.12157680298E+03  0.11900048461E+04  0.12500055016E+03 0.  0.
          2    1    1    2  501    0  0.11335623796E+04  0.47731520184E+02 -0.75296756211E+03  0.13616909033E+04  0.00000000000E+00 0. -1.
          1    1    1    2  502    0  0.40438300787E+02  0.38453626672E+02  0.21598457696E+04  0.21605665197E+04  0.00000000000E+00 0. -1.
         22    1    3    3    0    0 -0.58767439082E+03 -0.87375642778E+02 -0.10569283573E+03  0.60346223419E+03  0.00000000000E+00 0.  1.
         22    1    3    3    0    0 -0.58632628959E+03  0.11904959216E+01 -0.15883967253E+02  0.58654261188E+03  0.00000000000E+00 0.  1.
</event>
<event>
 7    1  0.4402832E-005  0.1823433E+04  0.7818608E-02  0.1000266E+00
          2   -1    0    0  502    0  0.00000000000E+00  0.00000000000E+00  0.43287863609E+04  0.43287863609E+04  0.00000000000E+00 0. -1.
          1   -1    0    0  501    0 -0.00000000000E+00 -0.00000000000E+00 -0.98542020830E+03  0.98542020830E+03  0.00000000000E+00 0. -1.
         25    2    1    2    0    0 -0.36431041519E+03 -0.18427023742E+04  0.12342106926E+04  0.22510377040E+04  0.12498236877E+03 0.  0.
          2    1    1    2  501    0  0.23965840599E+03  0.17283903634E+04  0.22470162638E+04  0.28449695060E+04  0.00000000000E+00 0. -1.
          1    1    1    2  502    0  0.12465200919E+03  0.11431201073E+03 -0.13786080378E+03  0.21819935933E+03  0.00000000000E+00 0. -1.
         22    1    3    3    0    0 -0.49439964378E+02 -0.23882065668E+03  0.21255420001E+03  0.32351028435E+03  0.00000000000E+00 0.  1.
         22    1    3    3    0    0 -0.31487045081E+03 -0.16038817175E+04  0.10216564926E+04  0.19275274196E+04  0.00000000000E+00 0.  1.
</event>
<event>
 7    1  0.4402832E-005  0.2493025E+03  0.7818608E-02  0.1224643E+00
          2   -1    0    0  502    0  0.00000000000E+00  0.00000000000E+00  0.19628925811E+04  0.19628925811E+04  0.00000000000E+00 0. -1.
          1   -1    0    0  501    0 -0.00000000000E+00 -0.00000000000E+00 -0.32829481705E+03  0.32829481705E+03  0.00000000000E+00 0. -1.
         25    2    1    2    0    0 -0.13698895577E+03 -0.25380619289E+03  0.88177459091E+00  0.31433777060E+03  0.12499559572E+03 0.  0.
          2    1    1    2  501    0  0.77274841510E+02  0.21766412374E+03 -0.92802758238E+02  0.24892051710E+03  0.00000000000E+00 0. -1.
          1    1    1    2  502    0  0.59714114264E+02  0.36142069145E+02  0.17265187477E+04  0.17279291105E+04  0.00000000000E+00 0. -1.
         22    1    3    3    0    0 -0.78566421854E+02 -0.68812886304E+02 -0.46981353867E+02  0.11452136733E+03  0.00000000000E+00 0. -1.
         22    1    3    3    0    0 -0.58422533920E+02 -0.18499330658E+03  0.47863128458E+02  0.19981640327E+03  0.00000000000E+00 0. -1.
</event>
<event>
 7    1  0.4402832E-005  0.5748185E+03  0.7818608E-02  0.1090064E+00
          2   -1    0    0  502    0  0.00000000000E+00  0.00000000000E+00  0.70426195540E+03  0.70426195540E+03  0.00000000000E+00 0. -1.
          1   -1    0    0  501    0 -0.00000000000E+00 -0.00000000000E+00 -0.13145239483E+04  0.13145239483E+04  0.00000000000E+00 0. -1.
         25    2    1    2    0    0  0.36541301651E+03  0.41885784265E+03  0.16887603532E+02  0.56998095974E+03  0.12499815331E+03 0.  0.
          2    1    1    2  501    0  0.12491011891E+03 -0.77235717680E+02 -0.81051193463E+03  0.82370959085E+03  0.00000000000E+00 0. -1.
          1    1    1    2  502    0 -0.49032313542E+03 -0.34162212497E+03  0.18336233819E+03  0.62509535310E+03  0.00000000000E+00 0. -1.
         22    1    3    3    0    0  0.64170638986E+02  0.91326917972E+02 -0.45684643166E+02  0.12060498943E+03  0.00000000000E+00 0. -1.
         22    1    3    3    0    0  0.30124237752E+03  0.32753092468E+03  0.62572246698E+02  0.44937597031E+03  0.00000000000E+00 0. -1.
</event>
<event>
 7    1  0.4402832E-005  0.4770467E+03  0.7818608E-02  0.1272691E+00
          2   -1    0    0  502    0  0.00000000000E+00  0.00000000000E+00  0.71309532335E+03  0.71309532335E+03  0.00000000000E+00 0. -1.
          1   -1    0    0  501    0 -0.00000000000E+00 -0.00000000000E+00 -0.14181401894E+04  0.14181401894E+04  0.00000000000E+00 0. -1.
         25    2    1    2    0    0  0.47360212082E+03 -0.13278262867E+03  0.26276221164E+03  0.57148908000E+03  0.12500237348E+03 0.  0.
          2    1    1    2  501    0 -0.45348289994E+03  0.14295503586E+03 -0.12185294138E+04  0.13080125440E+04  0.00000000000E+00 0. -1.
          1    1    1    2  502    0 -0.20119220877E+02 -0.10172407190E+02  0.25072233615E+03  0.25173388878E+03  0.00000000000E+00 0. -1.
         22    1    3    3    0    0  0.26121301351E+03 -0.99595701873E+02  0.83991000401E+02  0.29190072012E+03  0.00000000000E+00 0. -1.
         22    1    3    3    0    0  0.21238910731E+03 -0.33186926794E+02  0.17877121124E+03  0.27958835988E+03  0.00000000000E+00 0. -1.
</event>
<event>
 7    1  0.4402832E-005  0.5183696E+03  0.7818608E-02  0.1215938E+00
          2   -1    0    0  502    0  0.00000000000E+00  0.00000000000E+00  0.18248959151E+04  0.18248959151E+04  0.00000000000E+00 0. -1.
          1   -1    0    0  501    0 -0.00000000000E+00 -0.00000000000E+00 -0.11750371999E+04  0.11750371999E+04  0.00000000000E+00 0. -1.
         25    2    1    2    0    0 -0.47304206493E+03  0.11352407538E+03  0.31749273967E+03  0.59420901832E+03  0.12500482723E+03 0.  0.
          2    1    1    2  501    0  0.50959583808E+03 -0.11759656166E+03 -0.97044313780E+03  0.11023959149E+04  0.00000000000E+00 0. -1.
          1    1    1    2  502    0 -0.36553773157E+02  0.40724862762E+01  0.13028091133E+04  0.13033281817E+04  0.00000000000E+00 0. -1.
         22    1    3    3    0    0 -0.40950508919E+03  0.13529756401E+03  0.24770051823E+03  0.49734836446E+03  0.00000000000E+00 0.  1.
         22    1    3    3    0    0 -0.63536975740E+02 -0.21773488631E+02  0.69792221444E+02  0.96860653867E+02  0.00000000000E+00 0.  1.
</event>
<event>
 7    1  0.4402832E-005  0.3026994E+03  0.7818608E-02  0.1198897E+00
          2   -1    0    0  502    0  0.00000000000E+00  0.00000000000E+00  0.33758666060E+03  0.33758666060E+03  0.00000000000E+00 0. -1.
          1   -1    0    0  501    0 -0.00000000000E+00 -0.00000000000E+00 -0.21998062655E+04  0.21998062655E+04  0.00000000000E+00 0. -1.
         25    2    1    2    0    0 -0.31543648487E+03  0.68512929039E+02 -0.64925390863E+03  0.73576467983E+03  0.12499931513E+03 0.  0.
          2    1    1    2  501    0  0.43701301046E+02  0.61707254731E+02 -0.14289128157E+04  0.14309120951E+04  0.00000000000E+00 0. -1.
          1    1    1    2  502    0  0.27173518382E+03 -0.13022018377E+03  0.21594711940E+03  0.37071615121E+03  0.00000000000E+00 0. -1.
         22    1    3    3    0    0 -0.31744692377E+03  0.56438247628E+02 -0.56416629388E+03  0.64980107137E+03  0.00000000000E+00 0.  1.
         22    1    3    3    0    0  0.20104388973E+01  0.12074681411E+02 -0.85087614745E+02  0.85963608456E+02  0.00000000000E+00 0.  1.
</event>
<event>
 7    1  0.4402832E-005  0.3495500E+03  0.7818608E-02  0.1076806E+00
          2   -1    0    0  502    0  0.00000000000E+00  0.00000000000E+00  0.12956341622E+04  0.12956341622E+04  0.00000000000E+00 0. -1.
          1   -1    0    0  501    0 -0.00000000000E+00 -0.00000000000E+00 -0.87543860488E+03  0.87543860488E+03  0.00000000000E+00 0. -1.
         25    2    1    2    0    0 -0.34845191756E+02  0.36266019856E+03 -0.12310542196E+03  0.40437169423E+03  0.12499966070E+03 0.  0.
          2    1    1    2  501    0  0.29424584124E+03 -0.23665288523E+03 -0.53256858536E+03  0.65285105598E+03  0.00000000000E+00 0. -1.
          1    1    1    2  502    0 -0.25940064948E+03 -0.12600731332E+03  0.10758695646E+04  0.11138500169E+04  0.00000000000E+00 0. -1.
         22    1    3    3    0    0 -0.31330976254E+02  0.29991936333E+03 -0.46219207950E+02  0.30507289253E+03  0.00000000000E+00 0.  1.
         22    1    3    3    0    0 -0.35142155018E+01  0.62740835231E+02 -0.76886214006E+02  0.99298801706E+02  0.00000000000E+00 0.  1.
</event>
<event>
 7    1  0.4402832E-005  0.1304311E+04  0.7818608E-02  0.1049181E+00
          2   -1    0    0  502    0  0.00000000000E+00  0.00000000000E+00  0.27608877681E+04  0.27608877681E+04  0.00000000000E+00 0. -1.
          1   -1    0    0  501    0 -0.00000000000E+00 -0.00000000000E+00 -0.13593574462E+04  0.13593574462E+04  0.00000000000E+00 0. -1.
         25    2    1    2    0    0 -0.10776449211E+04  0.73053151196E+03  0.11877093093E+04  0.17667126424E+04  0.12500116549E+03 0.  0.
          2    1    1    2  501    0 -0.66051499835E+02 -0.92316656522E+02 -0.73025429006E+03  0.73902401440E+03  0.00000000000E+00 0. -1.
          1    1    1    2  502    0  0.11436964210E+04 -0.63821485544E+03  0.94407530261E+03  0.16145085574E+04  0.00000000000E+00 0. -1.
         22    1    3    3    0    0 -0.27024814402E+03  0.15830254803E+03  0.22126420656E+03  0.38347308271E+03  0.00000000000E+00 0. -1.
         22    1    3    3    0    0 -0.80739677713E+03  0.57222896393E+03  0.96644510275E+03  0.13832395597E+04  0.00000000000E+00 0. -1.
</event>
<event>
 7    1  0.4402832E-005  0.4498577E+03  0.7818608E-02  0.1109593E+00
          2   -1    0    0  502    0  0.00000000000E+00  0.00000000000E+00  0.72405927964E+03  0.72405927964E+03  0.00000000000E+00 0. -1.
          1   -1    0    0  501    0 -0.00000000000E+00 -0.00000000000E+00 -0.71398963607E+03  0.71398963607E+03  0.00000000000E+00 0. -1.
         25    2    1    2    0    0 -0.36339591468E+03 -0.27990097137E+03 -0.18089312883E+03  0.50867513546E+03  0.12500769895E+03 0.  0.
          2    1    1    2  501    0  0.25349811860E+03  0.37546890805E+03 -0.21252598532E+03  0.50040532719E+03  0.00000000000E+00 0. -1.
          1    1    1    2  502    0  0.10989779608E+03 -0.95567936684E+02  0.40348875772E+03  0.42896845306E+03  0.00000000000E+00 0. -1.
         22    1    3    3    0    0 -0.13474669372E+03 -0.35417674871E+02 -0.35863967655E+02  0.14386558775E+03  0.00000000000E+00 0.  1.
         22    1    3    3    0    0 -0.22864922096E+03 -0.24448329650E+03 -0.14502916117E+03  0.36480954771E+03  0.00000000000E+00 0.  1.
</event>
<event>
 7    1  0.4402832E-005  0.3071185E+03  0.7818608E-02  0.1132225E+00
          2   -1    0    0  502    0  0.00000000000E+00  0.00000000000E+00  0.16643657042E+04  0.16643657042E+04  0.00000000000E+00 0. -1.
          1   -1    0    0  501    0 -0.00000000000E+00 -0.00000000000E+00 -0.51184958427E+03  0.51184958427E+03  0.00000000000E+00 0. -1.
         25    2    1    2    0    0  0.15604565982E+03  0.29723491598E+03 -0.21129574548E+03  0.41589559833E+03  0.12499765367E+03 0.  0.
          2    1    1    2  501    0  0.99657524832E+02 -0.12621632094E+03 -0.14738001909E+03  0.21813539821E+03  0.00000000000E+00 0. -1.
          1    1    1    2  502    0 -0.25570318465E+03 -0.17101859504E+03  0.15111918845E+04  0.15421842920E+04  0.00000000000E+00 0. -1.
         22    1    3    3    0    0  0.12054906576E+03  0.21487556834E+03 -0.84256013721E+02  0.26038944482E+03  0.00000000000E+00 0.  1.
         22    1    3    3    0    0  0.35496594063E+02  0.82359347638E+02 -0.12703973176E+03  0.15550615351E+03  0.00000000000E+00 0.  1.
</event>
<event>
 7    1  0.4402832E-005  0.1957416E+03  0.7818608E-02  0.1289592E+00
          2   -1    0    0  502    0  0.00000000000E+00  0.00000000000E+00  0.38152736709E+03  0.38152736709E+03  0.00000000000E+00 0. -1.
          1   -1    0    0  501    0 -0.00000000000E+00 -0.00000000000E+00 -0.25038785146E+03  0.25038785146E+03  0.00000000000E+00 0. -1.
         25    2    1    2    0    0 -0.19049091589E+03 -0.10590860839E+03  0.32924433573E+02  0.25340269776E+03  0.12500194615E+03 0.  0.
          2    1    1    2  501    0  0.17649166974E+03  0.61256329808E+02 -0.73332429037E+02  0.20069701686E+03  0.00000000000E+00 0. -1.
          1    1    1    2  502    0  0.13999246148E+02  0.44652278579E+02  0.17154751109E+03  0.17781550392E+03  0.00000000000E+00 0. -1.
         22    1    3    3    0    0 -0.26825602392E+02 -0.32360322177E+02  0.58628414050E+02  0.72139408988E+02  0.00000000000E+00 0.  1.
         22    1    3    3    0    0 -0.16366531350E+03 -0.73548286210E+02 -0.25703980477E+02  0.18126328878E+03  0.00000000000E+00 0.  1.
</event>
<event>
 7    1  0.4402832E-005  0.4258845E+03  0.7818608E-02  0.1164725E+00
          2   -1    0    0  502    0  0.00000000000E+00  0.00000000000E+00  0.93366683730E+03  0.93366683730E+03  0.00000000000E+00 0. -1.
          1   -1    0    0  501    0 -0.00000000000E+00 -0.00000000000E+00 -0.69962679007E+03  0.69962679007E+03  0.00000000000E+00 0. -1.
         25    2    1    2    0    0 -0.42422709208E+03 -0.40520562291E+02  0.23051071687E+03  0.50037021622E+03  0.12499848425E+03 0.  0.
          2    1    1    2  501    0 -0.25142235941E+01  0.78781111666E+02 -0.48025988006E+03  0.48668504936E+03  0.00000000000E+00 0. -1.
          1    1    1    2  502    0  0.42674131568E+03 -0.38260549375E+02  0.48378921041E+03  0.64623836179E+03  0.00000000000E+00 0. -1.
         22    1    3    3    0    0 -0.81354116481E+02 -0.59362402398E+02  0.50740029076E+02  0.11276940027E+03  0.00000000000E+00 0.  1.
         22    1    3    3    0    0 -0.34287297560E+03  0.18841840108E+02  0.17977068779E+03  0.38760081595E+03  0.00000000000E+00 0.  1.
</event>
<event>
 7    1  0.4402832E-005  0.2495196E+03  0.7818608E-02  0.1116657E+00
          2   -1    0    0  502    0  0.00000000000E+00  0.00000000000E+00  0.30660735322E+04  0.30660735322E+04  0.00000000000E+00 0. -1.
          1   -1    0    0  501    0 -0.00000000000E+00 -0.00000000000E+00 -0.34137342383E+03  0.34137342383E+03  0.00000000000E+00 0. -1.
         25    2    1    2    0    0 -0.30408687716E+03 -0.37361650884E+03  0.17642790027E+04  0.18331296578E+04  0.12500327358E+03 0.  0.
          2    1    1    2  501    0  0.13834782912E+03  0.19988783311E+03 -0.24504584138E+03  0.34517058395E+03  0.00000000000E+00 0. -1.
          1    1    1    2  502    0  0.16573904804E+03  0.17372867572E+03  0.12054669471E+04  0.12291467143E+04  0.00000000000E+00 0. -1.
         22    1    3    3    0    0 -0.14019939806E+03 -0.83427107852E+02  0.51999453059E+03  0.54498648184E+03  0.00000000000E+00 0.  1.
         22    1    3    3    0    0 -0.16388747910E+03 -0.29018940099E+03  0.12442844721E+04  0.12881431759E+04  0.00000000000E+00 0.  1.
</event>
<event>
 7    1  0.4402832E-005  0.8553805E+02  0.7818608E-02  0.1394457E+00
          2   -1    0    0  502    0  0.00000000000E+00  0.00000000000E+00  0.26463032272E+03  0.26463032272E+03  0.00000000000E+00 0. -1.
          1   -1    0    0  501    0 -0.00000000000E+00 -0.00000000000E+00 -0.95046032711E+02  0.95046032711E+02  0.00000000000E+00 0. -1.
         25    2    1    2    0    0 -0.75451908159E+02  0.82402357018E+02  0.60381790879E+02  0.17819794216E+03  0.12500162812E+03 0.  0.
          2    1    1    2  501    0  0.42326450534E+02 -0.88065104310E+01 -0.29179427722E+01  0.43331252357E+02  0.00000000000E+00 0. -1.
          1    1    1    2  502    0  0.33125457625E+02 -0.73595846587E+02  0.11212044190E+03  0.13814716092E+03  0.00000000000E+00 0. -1.
         22    1    3    3    0    0  0.23593973379E+02  0.40862727801E+02 -0.11991827690E+02  0.48685131555E+02  0.00000000000E+00 0.  1.
         22    1    3    3    0    0 -0.99045881538E+02  0.41539629217E+02  0.72373618570E+02  0.12951281060E+03  0.00000000000E+00 0.  1.
</event>
<event>
 7    1  0.4402832E-005  0.5351338E+02  0.7818608E-02  0.1449232E+00
          2   -1    0    0  502    0  0.00000000000E+00  0.00000000000E+00  0.56477794093E+03  0.56477794093E+03  0.00000000000E+00 0. -1.
          1   -1    0    0  501    0 -0.00000000000E+00 -0.00000000000E+00 -0.61720521254E+02  0.61720521254E+02  0.00000000000E+00 0. -1.
         25    2    1    2    0    0 -0.53910990789E+02  0.21070497328E+01  0.70012169238E+02  0.15308987777E+03  0.12499588892E+03 0.  0.
          2    1    1    2  501    0  0.38057384534E+02 -0.44640720113E+02  0.26555392763E+02  0.64392136900E+02  0.00000000000E+00 0. -1.
          1    1    1    2  502    0  0.15853606255E+02  0.42533670380E+02  0.40648985767E+03  0.40901644751E+03  0.00000000000E+00 0. -1.
         22    1    3    3    0    0 -0.23428338568E+02 -0.15307909643E+02 -0.33578582203E+02  0.43712015836E+02  0.00000000000E+00 0.  1.
         22    1    3    3    0    0 -0.30482652222E+02  0.17414959376E+02  0.10359075144E+03  0.10937786193E+03  0.00000000000E+00 0.  1.
</event>
<event>
 7    1  0.4402832E-005  0.6778833E+03  0.7818608E-02  0.1009339E+00
          2   -1    0    0  502    0  0.00000000000E+00  0.00000000000E+00  0.15109168812E+04  0.15109168812E+04  0.00000000000E+00 0. -1.
          1   -1    0    0  501    0 -0.00000000000E+00 -0.00000000000E+00 -0.11894004648E+04  0.11894004648E+04  0.00000000000E+00 0. -1.
         25    2    1    2    0    0  0.31359770348E+03  0.88294865995E+03  0.57529143561E+03  0.11065835227E+04  0.12500000445E+03 0.  0.
          2    1    1    2  501    0  0.28838098554E+01 -0.64678469795E+03 -0.72984985559E+03  0.97520232443E+03  0.00000000000E+00 0. -1.
          1    1    1    2  502    0 -0.31648151333E+03 -0.23616396200E+03  0.47607483638E+03  0.61853149885E+03  0.00000000000E+00 0. -1.
         22    1    3    3    0    0  0.12206661763E+03  0.41973574386E+03  0.20163884045E+03  0.48139025311E+03  0.00000000000E+00 0.  1.
         22    1    3    3    0    0  0.19153108585E+03  0.46321291609E+03  0.37365259516E+03  0.62519326959E+03  0.00000000000E+00 0.  1.
</event>
<event>
 7    1  0.4402832E-005  0.4175639E+03  0.7818608E-02  0.1222267E+00
          2   -1    0    0  502    0  0.00000000000E+00  0.00000000000E+00  0.12422740100E+04  0.12422740100E+04  0.00000000000E+00 0. -1.
          1   -1    0    0  501    0 -0.00000000000E+00 -0.00000000000E+00 -0.85227739707E+03  0.85227739707E+03  0.00000000000E+00 0. -1.
         25    2    1    2    0    0 -0.27022725351E+03  0.32081940390E+03 -0.69478961427E+03  0.82116114906E+03  0.12500066470E+03 0.  0.
          2    1    1    2  501    0  0.29082954206E+03 -0.28339551308E+03  0.34634148836E+03  0.53371084487E+03  0.00000000000E+00 0. -1.
          1    1    1    2  502    0 -0.20602288555E+02 -0.37423890820E+02  0.73844473887E+03  0.73967941317E+03  0.00000000000E+00 0. -1.
         22    1    3    3    0    0 -0.12921354353E+03  0.73121045291E+02 -0.18615700827E+03  0.23811186200E+03  0.00000000000E+00 0.  1.
         22    1    3    3    0    0 -0.14101370998E+03  0.24769835861E+03 -0.50863260600E+03  0.58304928706E+03  0.00000000000E+00 0.  1.
</event>
<event>
 7    1  0.4402832E-005  0.7484183E+03  0.7818608E-02  0.1204129E+00
          2   -1    0    0  502    0  0.00000000000E+00  0.00000000000E+00  0.11235130595E+04  0.11235130595E+04  0.00000000000E+00 0. -1.
          1   -1    0    0  501    0 -0.00000000000E+00 -0.00000000000E+00 -0.22072217334E+04  0.22072217334E+04  0.00000000000E+00 0. -1.
         25    2    1    2    0    0 -0.41847917792E+03 -0.60820380921E+03  0.13392571778E+03  0.76065593766E+03  0.12499864688E+03 0.  0.
          2    1    1    2  501    0  0.40309754703E+03  0.63266767667E+03 -0.18192091375E+04  0.19678104349E+04  0.00000000000E+00 0. -1.
          1    1    1    2  502    0  0.15381630894E+02 -0.24463867464E+02  0.60157474585E+03  0.60226842041E+03  0.00000000000E+00 0. -1.
         22    1    3    3    0    0 -0.29162919031E+03 -0.46733129864E+03  0.14851180654E+03  0.57052772414E+03  0.00000000000E+00 0.  1.
         22    1    3    3    0    0 -0.12684998761E+03 -0.14087251057E+03 -0.14586088762E+02  0.19012821352E+03  0.00000000000E+00 0.  1.
</event>
<event>
 7    1  0.6130834E-005  0.1407787E+03  0.7818608E-02  0.1259222E+00
          2   -1    0    0  502    0  0.00000000000E+00  0.00000000000E+00  0.11447975766E+04  0.11447975766E+04  0.00000000000E+00 0. -1.
          1   -1    0    0  501    0 -0.00000000000E+00 -0.00000000000E+00 -0.11093038116E+04  0.11093038116E+04  0.00000000000E+00 0. -1.
         25    2    1    2    0    0 -0.59916285022E+02 -0.18734481768E+03 -0.61570935762E+03  0.65834000444E+03  0.12500202579E+03 0.  0.
          2    1    1    2  501    0  0.24017243178E+01  0.12193856402E+03 -0.46267675912E+03  0.47848152013E+03  0.00000000000E+00 0. -1.
          1    1    1    2  502    0  0.57514560705E+02  0.65406253663E+02  0.11138798818E+04  0.11172798636E+04  0.00000000000E+00 0. -1.
         22    1    3    3    0    0 -0.86255723939E+02 -0.66621742369E+02 -0.31017495649E+03  0.32876588950E+03  0.00000000000E+00 0. -1.
         22    1    3    3    0    0  0.26339438917E+02 -0.12072307532E+03 -0.30553440114E+03  0.32957411493E+03  0.00000000000E+00 0. -1.
</event>
<event>
 7    1  0.4402832E-005  0.8631158E+03  0.7818608E-02  0.1195475E+00
          2   -1    0    0  502    0  0.00000000000E+00  0.00000000000E+00  0.96974341885E+03  0.96974341885E+03  0.00000000000E+00 0. -1.
          1   -1    0    0  501    0 -0.00000000000E+00 -0.00000000000E+00 -0.19131115545E+04  0.19131115545E+04  0.00000000000E+00 0. -1.
         25    2    1    2    0    0 -0.69704293107E+03  0.52751812399E+03 -0.10549973214E+04  0.13757867095E+04  0.12500201186E+03 0.  0.
          2    1    1    2  501    0 -0.38250796022E+01 -0.27260429224E+02 -0.46816670826E+03  0.46897529675E+03  0.00000000000E+00 0. -1.
          1    1    1    2  502    0  0.70086801067E+03 -0.50025769477E+03  0.57979589404E+03  0.10380929671E+04  0.00000000000E+00 0. -1.
         22    1    3    3    0    0 -0.16378208875E+03  0.18402581720E+03 -0.34169228049E+03  0.42124065395E+03  0.00000000000E+00 0. -1.
         22    1    3    3    0    0 -0.53326084232E+03  0.34349230679E+03 -0.71330504093E+03  0.95454605556E+03  0.00000000000E+00 0. -1.
</event>
<event>
 7    1  0.4402832E-005  0.9350624E+03  0.7818608E-02  0.1078129E+00
          2   -1    0    0  502    0  0.00000000000E+00  0.00000000000E+00  0.19130386560E+04  0.19130386560E+04  0.00000000000E+00 0. -1.
          1   -1    0    0  501    0 -0.00000000000E+00 -0.00000000000E+00 -0.14159702694E+04  0.14159702694E+04  0.00000000000E+00 0. -1.
         25    2    1    2    0    0  0.84281118262E+03 -0.19371801440E+03  0.28941307444E+03  0.92045746351E+03  0.12499862328E+03 0.  0.
          2    1    1    2  501    0 -0.94516524975E+03  0.16656759014E+03 -0.88815769796E+03  0.13076338203E+04  0.00000000000E+00 0. -1.
          1    1    1    2  502    0  0.10235406713E+03  0.27150424263E+02  0.10958130101E+04  0.11009176417E+04  0.00000000000E+00 0. -1.
         22    1    3    3    0    0  0.55214882180E+03 -0.16802514093E+03  0.23737742551E+03  0.62405833985E+03  0.00000000000E+00 0. -1.
         22    1    3    3    0    0  0.29066236082E+03 -0.25692873468E+02  0.52035648934E+02  0.29639912365E+03  0.00000000000E+00 0. -1.
</event>
<event>
 7    1  0.4402832E-005  0.1271041E+04  0.7818608E-02  0.1070943E+00
          2   -1    0    0  502    0  0.00000000000E+00  0.00000000000E+00  0.19649894054E+04  0.19649894054E+04  0.00000000000E+00 0. -1.
          1   -1    0    0  501    0 -0.00000000000E+00 -0.00000000000E+00 -0.20128355168E+04  0.20128355168E+04  0.00000000000E+00 0. -1.
         25    2    1    2    0    0 -0.10319927323E+03  0.12581980755E+04  0.43332027925E+02  0.12693354554E+04  0.12498938497E+03 0.  0.
          2    1    1    2  501    0 -0.85807106999E+02  0.41040943833E+01 -0.10865126227E+04  0.10899033822E+04  0.00000000000E+00 0. -1.
          1    1    1    2  502    0  0.18900638023E+03 -0.12623021699E+04  0.99533448336E+03  0.16185860847E+04  0.00000000000E+00 0. -1.
         22    1    3    3    0    0 -0.57674350216E+02  0.27835242684E+03  0.48768704012E+02  0.28841773644E+03  0.00000000000E+00 0. -1.
         22    1    3    3    0    0 -0.45524923016E+02  0.97984564869E+03 -0.54366760872E+01  0.98091771893E+03  0.00000000000E+00 0. -1.
</event>
<event>
 7    1  0.4402832E-005  0.2024703E+03  0.7818608E-02  0.1191652E+00
          2   -1    0    0  502    0  0.00000000000E+00  0.00000000000E+00  0.14117163518E+04  0.14117163518E+04  0.00000000000E+00 0. -1.
          1   -1    0    0  501    0 -0.00000000000E+00 -0.00000000000E+00 -0.17108959963E+03  0.17108959963E+03  0.00000000000E+00 0. -1.
         25    2    1    2    0    0 -0.48597923493E+02 -0.17590840647E+03 -0.91933478806E+01  0.22139044754E+03  0.12499474782E+03 0.  0.
          2    1    1    2  501    0 -0.68733781473E+01  0.28499266233E+03  0.34132184275E+03  0.44471188566E+03  0.00000000000E+00 0. -1.
          1    1    1    2  502    0  0.55471301640E+02 -0.10908425586E+03  0.90849825727E+03  0.91670361821E+03  0.00000000000E+00 0. -1.
         22    1    3    3    0    0 -0.50186209877E+01 -0.17618261729E+03  0.24888945023E+01  0.17627165339E+03  0.00000000000E+00 0. -1.
         22    1    3    3    0    0 -0.43579302505E+02  0.27421082387E+00 -0.11682242383E+02  0.45118794149E+02  0.00000000000E+00 0. -1.
</event>
<event>
 7    1  0.4402832E-005  0.1672314E+03  0.7818608E-02  0.1191062E+00
          2   -1    0    0  502    0  0.00000000000E+00  0.00000000000E+00  0.31385509024E+03  0.31385509024E+03  0.00000000000E+00 0. -1.
          1   -1    0    0  501    0 -0.00000000000E+00 -0.00000000000E+00 -0.62442198569E+03  0.62442198569E+03  0.00000000000E+00 0. -1.
         25    2    1    2    0    0  0.14716554149E+03 -0.67956693844E+02 -0.38453142519E+03  0.43561991311E+03  0.12499793158E+03 0.  0.
          2    1    1    2  501    0 -0.25158635835E+03 -0.38516881063E+02  0.18674777902E+03  0.31568018438E+03  0.00000000000E+00 0. -1.
          1    1    1    2  502    0  0.10442081686E+03  0.10647357491E+03 -0.11278324929E+03  0.18697697844E+03  0.00000000000E+00 0. -1.
         22    1    3    3    0    0  0.13975196274E+03 -0.38979247070E+02 -0.37816147446E+03  0.40503838529E+03  0.00000000000E+00 0. -1.
         22    1    3    3    0    0  0.74135787467E+01 -0.28977446774E+02 -0.63699507256E+01  0.30581527817E+02  0.00000000000E+00 0. -1.
</event>
<event>
 7    1  0.4402832E-005  0.3506846E+03  0.7818608E-02  0.1139446E+00
          2   -1    0    0  502    0  0.00000000000E+00  0.00000000000E+00  0.87003079231E+03  0.87003079231E+03  0.00000000000E+00 0. -1.
          1   -1    0    0  501    0 -0.00000000000E+00 -0.00000000000E+00 -0.22153148801E+03  0.22153148801E+03  0.00000000000E+00 0. -1.
         25    2    1    2    0    0 -0.94390296130E+02  0.32680938271E+03  0.25812961751E+03  0.44493841886E+03  0.12500158604E+03 0.  0.
          2    1    1    2  501    0 -0.12660947015E+03 -0.24760348403E+02  0.16607647093E+03  0.21029604604E+03  0.00000000000E+00 0. -1.
          1    1    1    2  502    0  0.22099976628E+03 -0.30204903431E+03  0.22429321587E+03  0.43632781542E+03  0.00000000000E+00 0. -1.
         22    1    3    3    0    0 -0.59700530751E+02  0.11190949546E+03  0.31483060626E+02  0.13068692227E+03  0.00000000000E+00 0.  1.
         22    1    3    3    0    0 -0.34689765378E+02  0.21489988725E+03  0.22664655688E+03  0.31425149659E+03  0.00000000000E+00 0.  1.
</event>
<event>
 7    1  0.4402832E-005  0.1497671E+03  0.7818608E-02  0.1282770E+00
          2   -1    0    0  502    0  0.00000000000E+00  0.00000000000E+00  0.39836049738E+03  0.39836049738E+03  0.00000000000E+00 0. -1.
          1   -1    0    0  501    0 -0.00000000000E+00 -0.00000000000E+00 -0.37211131903E+04  0.37211131903E+04  0.00000000000E+00 0. -1.
         25    2    1    2    0    0 -0.73054847960E+02 -0.18235506787E+03  0.19359489017E+03  0.30281163093E+03  0.12500208294E+03 0.  0.
          2    1    1    2  501    0  0.17298570035E+02  0.14851774063E+03 -0.36578225476E+04  0.36608772923E+04  0.00000000000E+00 0. -1.
          1    1    1    2  502    0  0.55756277925E+02  0.33837327241E+02  0.14147496450E+03  0.15578476441E+03  0.00000000000E+00 0. -1.
         22    1    3    3    0    0  0.67457821259E+01 -0.12290559867E+03  0.15035100872E+03  0.19431087870E+03  0.00000000000E+00 0. -1.
         22    1    3    3    0    0 -0.79800630086E+02 -0.59449469205E+02  0.43243881450E+02  0.10850075223E+03  0.00000000000E+00 0. -1.
</event>
<event>
 7    1  0.4402832E-005  0.1577898E+03  0.7818608E-02  0.1245476E+00
          2   -1    0    0  502    0  0.00000000000E+00  0.00000000000E+00  0.17707594526E+03  0.17707594526E+03  0.00000000000E+00 0. -1.
          1   -1    0    0  501    0 -0.00000000000E+00 -0.00000000000E+00 -0.58772780762E+03  0.58772780762E+03  0.00000000000E+00 0. -1.
         25    2    1    2    0    0  0.17151145618E+03  0.55863594741E+01  0.68880413533E+02  0.22319409179E+03  0.12499481681E+03 0.  0.
          2    1    1    2  501    0 -0.50720559205E+02 -0.73251457830E+02 -0.31093802723E+03  0.32345139971E+03  0.00000000000E+00 0. -1.
          1    1    1    2  502    0 -0.12079089697E+03  0.67665098356E+02 -0.16859424866E+03  0.21815826138E+03  0.00000000000E+00 0. -1.
         22    1    3    3    0    0  0.18609031512E+03 -0.72840053468E+01  0.77760894644E+02  0.20181530877E+03  0.00000000000E+00 0.  1.
         22    1    3    3    0    0 -0.14578858945E+02  0.12870364821E+02 -0.88804811110E+01  0.21378783022E+02  0.00000000000E+00 0.  1.
</event>
<event>
 7    1  0.4402832E-005  0.5272614E+03  0.7818608E-02  0.1085550E+00
          2   -1    0    0  502    0  0.00000000000E+00  0.00000000000E+00  0.71951862180E+03  0.71951862180E+03  0.00000000000E+00 0. -1.
          1   -1    0    0  501    0 -0.00000000000E+00 -0.00000000000E+00 -0.60198238282E+03  0.60198238282E+03  0.00000000000E+00 0. -1.
         25    2    1    2    0    0  0.35431284718E+03 -0.52719252937E+03  0.78557703275E+01  0.64742284881E+03  0.12500030130E+03 0.  0.
          2    1    1    2  501    0 -0.61434854096E+02  0.15850002430E+03 -0.49477781734E+02  0.17704392079E+03  0.00000000000E+00 0. -1.
          1    1    1    2  502    0 -0.29287799309E+03  0.36869250507E+03  0.15915825039E+03  0.49703423503E+03  0.00000000000E+00 0. -1.
         22    1    3    3    0    0  0.10293676366E+02 -0.16183340410E+02  0.24579050407E+02  0.31176754142E+02  0.00000000000E+00 0. -1.
         22    1    3    3    0    0  0.34401917082E+03 -0.51100918896E+03 -0.16723280079E+02  0.61624609466E+03  0.00000000000E+00 0. -1.
</event>
<event>
 7    1  0.4402832E-005  0.1795947E+03  0.7818608E-02  0.1185123E+00
          2   -1    0    0  502    0  0.00000000000E+00  0.00000000000E+00  0.22878691932E+04  0.22878691932E+04  0.00000000000E+00 0. -1.
          1   -1    0    0  501    0 -0.00000000000E+00 -0.00000000000E+00 -0.90388385283E+03  0.90388385283E+03  0.00000000000E+00 0. -1.
         25    2    1    2    0    0 -0.45955309605E+02 -0.65771500101E+02  0.41109046268E+03  0.43709679061E+03  0.12498181927E+03 0.  0.
          2    1    1    2  501    0  0.18233195648E+03  0.74746509316E+01 -0.87853903373E+03  0.89729128300E+03  0.00000000000E+00 0. -1.
          1    1    1    2  502    0 -0.13637664688E+03  0.58296849169E+02  0.18514339115E+04  0.18573649725E+04  0.00000000000E+00 0. -1.
         22    1    3    3    0    0 -0.15926969884E+02 -0.98767097595E+02  0.32620481805E+03  0.34120110090E+03  0.00000000000E+00 0. -1.
         22    1    3    3    0    0 -0.30028339721E+02  0.32995597495E+02  0.84885644633E+02  0.95895689711E+02  0.00000000000E+00 0. -1.
</event>
<event>
 7    1  0.4402832E-005  0.1209539E+03  0.7818608E-02  0.1255733E+00
          2   -1    0    0  502    0  0.00000000000E+00  0.00000000000E+00  0.34788342314E+04  0.34788342314E+04  0.00000000000E+00 0. -1.
          1   -1    0    0  501    0 -0.00000000000E+00 -0.00000000000E+00 -0.56696224168E+03  0.56696224168E+03  0.00000000000E+00 0. -1.
         25    2    1    2    0    0  0.18546820788E+03 -0.31990412994E+01  0.37269087583E+03  0.43466539505E+03  0.12500730669E+03 0.  0.
          2    1    1    2  501    0 -0.10318688030E+03 -0.61905551479E+02 -0.52831273900E+03  0.54184331662E+03  0.00000000000E+00 0. -1.
          1    1    1    2  502    0 -0.82281327587E+02  0.65104592779E+02  0.30674938529E+04  0.30692877615E+04  0.00000000000E+00 0. -1.
         22    1    3    3    0    0  0.16980648480E+03  0.33699307543E+02  0.34483845424E+03  0.38585417599E+03  0.00000000000E+00 0.  1.
         22    1    3    3    0    0  0.15661723084E+02 -0.36898348843E+02  0.27852421585E+02  0.48811219053E+02  0.00000000000E+00 0.  1.
</event>
<event>
 7    1  0.4402832E-005  0.7988851E+03  0.7818608E-02  0.1052440E+00
          2   -1    0    0  502    0  0.00000000000E+00  0.00000000000E+00  0.14643202384E+04  0.14643202384E+04  0.00000000000E+00 0. -1.
          1   -1    0    0  501    0 -0.00000000000E+00 -0.00000000000E+00 -0.30408114839E+04  0.30408114839E+04  0.00000000000E+00 0. -1.
         25    2    1    2    0    0  0.90031678357E+03 -0.26335954012E+03  0.29862565209E+03  0.99233596231E+03  0.12499929547E+03 0.  0.
          2    1    1    2  501    0 -0.77451715549E+03  0.13895616946E+03 -0.26259946256E+04  0.27413561269E+04  0.00000000000E+00 0. -1.
          1    1    1    2  502    0 -0.12579962808E+03  0.12440337067E+03  0.75087772797E+03  0.77143963304E+03  0.00000000000E+00 0. -1.
         22    1    3    3    0    0  0.61550168353E+03 -0.21293390940E+03  0.25675799954E+03  0.70007702614E+03  0.00000000000E+00 0. -1.
         22    1    3    3    0    0  0.28481510004E+03 -0.50425630726E+02  0.41867652547E+02  0.29225893618E+03  0.00000000000E+00 0. -1.
</event>
<event>
 7    1  0.4402832E-005  0.1924259E+03  0.7818608E-02  0.1185604E+00
          2   -1    0    0  502    0  0.00000000000E+00  0.00000000000E+00  0.16291468951E+03  0.16291468951E+03  0.00000000000E+00 0. -1.
          1   -1    0    0  501    0 -0.00000000000E+00 -0.00000000000E+00 -0.11508086847E+04  0.11508086847E+04  0.00000000000E+00 0. -1.
         25    2    1    2    0    0 -0.24126167927E+03 -0.16904108652E+03 -0.85667624683E+03  0.91449511946E+03  0.12500017931E+03 0.  0.
          2    1    1    2  501    0  0.62334159403E+02  0.12276754856E+03 -0.16120056427E+03  0.21199773661E+03  0.00000000000E+00 0. -1.
          1    1    1    2  502    0  0.17892751986E+03  0.46273537965E+02  0.29982815888E+02  0.18723051815E+03  0.00000000000E+00 0. -1.
         22    1    3    3    0    0 -0.24697291009E+03 -0.12946405775E+03 -0.77293994827E+03  0.82170111610E+03  0.00000000000E+00 0.  1.
         22    1    3    3    0    0  0.57112308234E+01 -0.39577028776E+02 -0.83736298558E+02  0.92794003365E+02  0.00000000000E+00 0.  1.
</event>
<event>
 7    1  0.4402832E-005  0.4186612E+03  0.7818608E-02  0.1061485E+00
          2   -1    0    0  502    0  0.00000000000E+00  0.00000000000E+00  0.65760584800E+03  0.65760584800E+03  0.00000000000E+00 0. -1.
          1   -1    0    0  501    0 -0.00000000000E+00 -0.00000000000E+00 -0.22000593958E+04  0.22000593958E+04  0.00000000000E+00 0. -1.
         25    2    1    2    0    0 -0.44677696917E+03 -0.20035178304E+03 -0.61380935261E+03  0.79507058552E+03  0.12499926987E+03 0.  0.
          2    1    1    2  501    0  0.36875041847E+02  0.29494987331E+03 -0.13997726899E+04  0.14309852479E+04  0.00000000000E+00 0. -1.
          1    1    1    2  502    0  0.40990192733E+03 -0.94598090271E+02  0.47112849469E+03  0.63160941033E+03  0.00000000000E+00 0. -1.
         22    1    3    3    0    0 -0.12812119793E+03 -0.87127819538E+02 -0.11729216737E+03  0.19432897577E+03  0.00000000000E+00 0.  1.
         22    1    3    3    0    0 -0.31865577124E+03 -0.11322396350E+03 -0.49651718524E+03  0.60074160976E+03  0.00000000000E+00 0.  1.
</event>
<event>
 7    1  0.4402832E-005  0.3909737E+02  0.7818608E-02  0.1545308E+00
          2   -1    0    0  502    0  0.00000000000E+00  0.00000000000E+00  0.24748748550E+04  0.24748748550E+04  0.00000000000E+00 0. -1.
          1   -1    0    0  501    0 -0.00000000000E+00 -0.00000000000E+00 -0.18529288648E+02  0.18529288648E+02  0.00000000000E+00 0. -1.
         25    2    1    2    0    0  0.40674407239E+02  0.17633463927E+02  0.33468676385E+03  0.36000698334E+03  0.12499780681E+03 0.  0.
          2    1    1    2  501    0 -0.25967591505E+02  0.18707450306E+02  0.39361245837E+02  0.50730584260E+02  0.00000000000E+00 0. -1.
          1    1    1    2  502    0 -0.14706815734E+02 -0.36340914232E+02  0.20822975567E+04  0.20826665760E+04  0.00000000000E+00 0. -1.
         22    1    3    3    0    0 -0.37070117815E+02  0.24306042537E+02  0.19527869028E+03  0.20024670838E+03  0.00000000000E+00 0.  1.
         22    1    3    3    0    0  0.77744525054E+02 -0.66725786099E+01  0.13940807357E+03  0.15976027496E+03  0.00000000000E+00 0.  1.
</event>
<event>
 7    1  0.4402832E-005  0.6888898E+03  0.7818608E-02  0.1125451E+00
          2   -1    0    0  502    0  0.00000000000E+00  0.00000000000E+00  0.21560229676E+04  0.21560229676E+04  0.00000000000E+00 0. -1.
          1   -1    0    0  501    0 -0.00000000000E+00 -0.00000000000E+00 -0.83025933687E+03  0.83025933687E+03  0.00000000000E+00 0. -1.
         25    2    1    2    0    0 -0.59892122625E+03 -0.23292654403E+03  0.59289303430E+03  0.88323735014E+03  0.12499862560E+03 0.  0.
          2    1    1    2  501    0 -0.62450889976E+02 -0.46611150092E+02 -0.59146995676E+03  0.59658144685E+03  0.00000000000E+00 0. -1.
          1    1    1    2  502    0  0.66137211623E+03  0.27953769412E+03  0.13243405532E+04  0.15064635075E+04  0.00000000000E+00 0. -1.
         22    1    3    3    0    0 -0.43561091753E+03 -0.10733082075E+03  0.40465588984E+03  0.60417147048E+03  0.00000000000E+00 0.  1.
         22    1    3    3    0    0 -0.16331030872E+03 -0.12559572328E+03  0.18823714445E+03  0.27906587966E+03  0.00000000000E+00 0.  1.
</event>
<event>
 7    1  0.4402832E-005  0.5235590E+03  0.7818608E-02  0.1240168E+00
          2   -1    0    0  502    0  0.00000000000E+00  0.00000000000E+00  0.14048322163E+04  0.14048322163E+04  0.00000000000E+00 0. -1.
          1   -1    0    0  501    0 -0.00000000000E+00 -0.00000000000E+00 -0.35774859730E+03  0.35774859730E+03  0.00000000000E+00 0. -1.
         25    2    1    2    0    0 -0.41365815770E+03 -0.34778776612E+03  0.74719257995E+03  0.93058650110E+03  0.12500033123E+03 0.  0.
          2    1    1    2  501    0  0.38533742514E+03  0.34697888712E+03 -0.12141800878E+02  0.51867784090E+03  0.00000000000E+00 0. -1.
          1    1    1    2  502    0  0.28320732558E+02  0.80887899907E+00  0.31203283994E+03  0.31331647161E+03  0.00000000000E+00 0. -1.
         22    1    3    3    0    0 -0.42225762922E+03 -0.33406346959E+03  0.72797723350E+03  0.90545610586E+03  0.00000000000E+00 0.  1.
         22    1    3    3    0    0  0.85994715242E+01 -0.13724296525E+02  0.19215346458E+02  0.25130395243E+02  0.00000000000E+00 0.  1.
</event>
<event>
 7    1  0.4402832E-005  0.3399339E+03  0.7818608E-02  0.1187374E+00
          2   -1    0    0  502    0  0.00000000000E+00  0.00000000000E+00  0.15930600487E+04  0.15930600487E+04  0.00000000000E+00 0. -1.
          1   -1    0    0  501    0 -0.00000000000E+00 -0.00000000000E+00 -0.36746224421E+03  0.36746224421E+03  0.00000000000E+00 0. -1.
         25    2    1    2    0    0  0.64103266428E+02  0.35730980041E+03  0.13541851433E+03  0.40711576894E+03  0.12500221220E+03 0.  0.
          2    1    1    2  501    0  0.62119053163E+02 -0.44513273694E+02 -0.20302773186E+03  0.21693424858E+03  0.00000000000E+00 0. -1.
          1    1    1    2  502    0 -0.12622231959E+03 -0.31279652672E+03  0.12932070220E+04  0.13364722754E+04  0.00000000000E+00 0. -1.
         22    1    3    3    0    0  0.42944970446E+02  0.29923685237E+02  0.38520341973E+00  0.52343536434E+02  0.00000000000E+00 0.  1.
         22    1    3    3    0    0  0.21158295982E+02  0.32738611517E+03  0.13503331091E+03  0.35477223250E+03  0.00000000000E+00 0.  1.
</event>
<event>
 7    1  0.4402832E-005  0.4803948E+03  0.7818608E-02  0.1215383E+00
          2   -1    0    0  502    0  0.00000000000E+00  0.00000000000E+00  0.14726503622E+04  0.14726503622E+04  0.00000000000E+00 0. -1.
          1   -1    0    0  501    0 -0.00000000000E+00 -0.00000000000E+00 -0.21655244271E+04  0.21655244271E+04  0.00000000000E+00 0. -1.
         25    2    1    2    0    0  0.50881079441E+03 -0.44136833012E+02 -0.22066464552E+03  0.57022322020E+03  0.12500060213E+03 0.  0.
          2    1    1    2  501    0 -0.35761026911E+02 -0.17743705593E+02 -0.17259998473E+04  0.17264614571E+04  0.00000000000E+00 0. -1.
          1    1    1    2  502    0 -0.47304976750E+03  0.61880538605E+02  0.12537904279E+04  0.13414901120E+04  0.00000000000E+00 0. -1.
         22    1    3    3    0    0  0.51158472513E+03 -0.33807760516E+02 -0.20709832750E+03  0.55294811050E+03  0.00000000000E+00 0.  1.
         22    1    3    3    0    0 -0.27739307186E+01 -0.10329072495E+02 -0.13566318026E+02  0.17275109696E+02  0.00000000000E+00 0.  1.
</event>
<event>
 7    1  0.4402832E-005  0.8117820E+02  0.7818608E-02  0.1494594E+00
          2   -1    0    0  502    0  0.00000000000E+00  0.00000000000E+00  0.20748746135E+04  0.20748746135E+04  0.00000000000E+00 0. -1.
          1   -1    0    0  501    0 -0.00000000000E+00 -0.00000000000E+00 -0.59677514937E+02  0.59677514937E+02  0.00000000000E+00 0. -1.
         25    2    1    2    0    0 -0.53485675614E+02 -0.46071621801E+02  0.35519551295E+03  0.38310804868E+03  0.12499845083E+03 0.  0.
          2    1    1    2  501    0 -0.19702433867E+02  0.89478183793E+01 -0.42115727448E+02  0.47349591894E+02  0.00000000000E+00 0. -1.
          1    1    1    2  502    0  0.73188109481E+02  0.37123803422E+02  0.17021173130E+04  0.17040944878E+04  0.00000000000E+00 0. -1.
         22    1    3    3    0    0  0.34947022110E+02 -0.28448295182E+01  0.16790373524E+03  0.17152565906E+03  0.00000000000E+00 0.  1.
         22    1    3    3    0    0 -0.88432697723E+02 -0.43226792283E+02  0.18729177771E+03  0.21158238962E+03  0.00000000000E+00 0.  1.
</event>
<event>
 7    1  0.4402832E-005  0.8402489E+02  0.7818608E-02  0.1410833E+00
          2   -1    0    0  502    0  0.00000000000E+00  0.00000000000E+00  0.28725339050E+03  0.28725339050E+03  0.00000000000E+00 0. -1.
          1   -1    0    0  501    0 -0.00000000000E+00 -0.00000000000E+00 -0.57787110414E+03  0.57787110414E+03  0.00000000000E+00 0. -1.
         25    2    1    2    0    0  0.13717266950E+02  0.64255050778E+02 -0.17615678219E+03  0.22576850063E+03  0.12499331583E+03 0.  0.
          2    1    1    2  501    0 -0.51515861861E+02 -0.72458214861E+02 -0.37019121930E+03  0.38071723860E+03  0.00000000000E+00 0. -1.
          1    1    1    2  502    0  0.37798594911E+02  0.82031640832E+01  0.25573028785E+03  0.25863875541E+03  0.00000000000E+00 0. -1.
         22    1    3    3    0    0  0.11586350815E+01  0.10147326774E+03 -0.11866768372E+03  0.15614155649E+03  0.00000000000E+00 0.  1.
         22    1    3    3    0    0  0.12558631868E+02 -0.37218216965E+02 -0.57489098469E+02  0.69626944147E+02  0.00000000000E+00 0.  1.
</event>
<event>
 7    1  0.4402832E-005  0.2518161E+03  0.7818608E-02  0.1297322E+00
          2   -1    0    0  502    0  0.00000000000E+00  0.00000000000E+00  0.81789418697E+03  0.81789418697E+03  0.00000000000E+00 0. -1.
          1   -1    0    0  501    0 -0.00000000000E+00 -0.00000000000E+00 -0.10186977156E+04  0.10186977156E+04  0.00000000000E+00 0. -1.
         25    2    1    2    0    0  0.28198695038E+03  0.26861020766E+02 -0.35009815105E+03  0.46736762655E+03  0.12500251337E+03 0.  0.
          2    1    1    2  501    0 -0.33636313622E+02  0.37821004031E+01 -0.58884780256E+03  0.58981983728E+03  0.00000000000E+00 0. -1.
          1    1    1    2  502    0 -0.24835063676E+03 -0.30643121170E+02  0.73814242495E+03  0.77940443876E+03  0.00000000000E+00 0. -1.
         22    1    3    3    0    0  0.24309180040E+03  0.88166402546E+01 -0.34780599174E+03  0.42442945757E+03  0.00000000000E+00 0. -1.
         22    1    3    3    0    0  0.38895149983E+02  0.18044380512E+02 -0.22921593141E+01  0.42938168971E+02  0.00000000000E+00 0. -1.
</event>
<event>
 7    1  0.4402832E-005  0.6979203E+02  0.7818608E-02  0.1422721E+00
          2   -1    0    0  502    0  0.00000000000E+00  0.00000000000E+00  0.16947111022E+04  0.16947111022E+04  0.00000000000E+00 0. -1.
          1   -1    0    0  501    0 -0.00000000000E+00 -0.00000000000E+00 -0.48561652870E+02  0.48561652870E+02  0.00000000000E+00 0. -1.
         25    2    1    2    0    0 -0.29307660568E+02  0.80706799012E+00  0.20671087460E+03  0.24333803641E+03  0.12499769581E+03 0.  0.
          2    1    1    2  501    0 -0.42254805783E+02  0.43651881438E+01 -0.13999281941E+02  0.44726987090E+02  0.00000000000E+00 0. -1.
          1    1    1    2  502    0  0.71562466350E+02 -0.51722561339E+01  0.14534378567E+04  0.14552077316E+04  0.00000000000E+00 0. -1.
         22    1    3    3    0    0 -0.41445701287E+02  0.52910797666E+02  0.72520365359E+02  0.98876195602E+02  0.00000000000E+00 0. -1.
         22    1    3    3    0    0  0.12138040720E+02 -0.52103729676E+02  0.13419050924E+03  0.14446184080E+03  0.00000000000E+00 0. -1.
</event>
<event>
 7    1  0.4402832E-005  0.4910275E+03  0.7818608E-02  0.1129440E+00
          2   -1    0    0  502    0  0.00000000000E+00  0.00000000000E+00  0.51020901447E+04  0.51020901447E+04  0.00000000000E+00 0. -1.
          1   -1    0    0  501    0 -0.00000000000E+00 -0.00000000000E+00 -0.67957456913E+03  0.67957456913E+03  0.00000000000E+00 0. -1.
         25    2    1    2    0    0  0.36337674424E+03  0.37457604751E+03 -0.40597218097E+03  0.67289597050E+03  0.12500280704E+03 0.  0.
          2    1    1    2  501    0 -0.29969180035E+03 -0.29225601358E+03  0.17433923712E+03  0.45345663770E+03  0.00000000000E+00 0. -1.
          1    1    1    2  502    0 -0.63684943886E+02 -0.82320033939E+02  0.46541485194E+04  0.46553121056E+04  0.00000000000E+00 0. -1.
         22    1    3    3    0    0  0.16887569839E+03  0.18282741451E+03 -0.27198551580E+03  0.36867463407E+03  0.00000000000E+00 0. -1.
         22    1    3    3    0    0  0.19450104585E+03  0.19174863301E+03 -0.13398666518E+03  0.30422133643E+03  0.00000000000E+00 0. -1.
</event>
<event>
 7    1  0.4402832E-005  0.3268152E+03  0.7818608E-02  0.1291574E+00
          2   -1    0    0  502    0  0.00000000000E+00  0.00000000000E+00  0.11845857629E+04  0.11845857629E+04  0.00000000000E+00 0. -1.
          1   -1    0    0  501    0 -0.00000000000E+00 -0.00000000000E+00 -0.47751744182E+03  0.47751744182E+03  0.00000000000E+00 0. -1.
         25    2    1    2    0    0 -0.67144172935E+02 -0.32434890997E+03 -0.30641216244E+03  0.46821372892E+03  0.12500050920E+03 0.  0.
          2    1    1    2  501    0  0.44060642192E+02  0.30937914171E+03  0.18136063420E+03  0.36131492240E+03  0.00000000000E+00 0. -1.
          1    1    1    2  502    0  0.23083530743E+02  0.14969768266E+02  0.83211984933E+03  0.83257455342E+03  0.00000000000E+00 0. -1.
         22    1    3    3    0    0 -0.83869293734E+02 -0.31369658734E+03 -0.25425355355E+03  0.41241299304E+03  0.00000000000E+00 0.  1.
         22    1    3    3    0    0  0.16725120798E+02 -0.10652322635E+02 -0.52158608885E+02  0.55800735874E+02  0.00000000000E+00 0.  1.
</event>
<event>
 7    1  0.4402832E-005  0.4120507E+03  0.7818608E-02  0.1276457E+00
          2   -1    0    0  502    0  0.00000000000E+00  0.00000000000E+00  0.51947498937E+03  0.51947498937E+03  0.00000000000E+00 0. -1.
          1   -1    0    0  501    0 -0.00000000000E+00 -0.00000000000E+00 -0.11748494352E+04  0.11748494352E+04  0.00000000000E+00 0. -1.
         25    2    1    2    0    0 -0.40329985850E+03 -0.34017417896E+02  0.12105445820E+03  0.44055382888E+03  0.12500213478E+03 0.  0.
          2    1    1    2  501    0  0.40907176775E+03  0.58520975996E+02 -0.97220431416E+03  0.10563832847E+04  0.00000000000E+00 0. -1.
          1    1    1    2  502    0 -0.57719092448E+01 -0.24503558100E+02  0.19577541015E+03  0.19738731093E+03  0.00000000000E+00 0. -1.
         22    1    3    3    0    0 -0.22168013086E+03 -0.37637418683E+02  0.48401898540E+01  0.22490460899E+03  0.00000000000E+00 0.  1.
         22    1    3    3    0    0 -0.18161972764E+03  0.36200007871E+01  0.11621426834E+03  0.21564921989E+03  0.00000000000E+00 0.  1.
</event>
<event>
 7    1  0.4402832E-005  0.2817910E+03  0.7818608E-02  0.1165908E+00
          2   -1    0    0  502    0  0.00000000000E+00  0.00000000000E+00  0.33981179543E+03  0.33981179543E+03  0.00000000000E+00 0. -1.
          1   -1    0    0  501    0 -0.00000000000E+00 -0.00000000000E+00 -0.80536843484E+03  0.80536843484E+03  0.00000000000E+00 0. -1.
         25    2    1    2    0    0 -0.19362362705E+03 -0.22333691749E+03  0.87891469100E+02  0.33274797474E+03  0.12500726653E+03 0.  0.
          2    1    1    2  501    0 -0.56404013481E+02  0.10309007969E+03 -0.51984854564E+03  0.53296480904E+03  0.00000000000E+00 0. -1.
          1    1    1    2  502    0  0.25002764053E+03  0.12024683780E+03 -0.33599562871E+02  0.27946744650E+03  0.00000000000E+00 0. -1.
         22    1    3    3    0    0 -0.28704342219E+02  0.69107454412E+01  0.32963999073E+02  0.44252942272E+02  0.00000000000E+00 0.  1.
         22    1    3    3    0    0 -0.16491928483E+03 -0.23024766293E+03  0.54927470027E+02  0.28849503246E+03  0.00000000000E+00 0.  1.
</event>
<event>
 7    1  0.4402832E-005  0.1739318E+03  0.7818608E-02  0.1237573E+00
          2   -1    0    0  502    0  0.00000000000E+00  0.00000000000E+00  0.77803383845E+03  0.77803383845E+03  0.00000000000E+00 0. -1.
          1   -1    0    0  501    0 -0.00000000000E+00 -0.00000000000E+00 -0.13255690035E+03  0.13255690035E+03  0.00000000000E+00 0. -1.
         25    2    1    2    0    0  0.20533967618E+03  0.42371923356E+02  0.50021647591E+03  0.55659826789E+03  0.12500138613E+03 0.  0.
          2    1    1    2  501    0 -0.58830864628E+02 -0.64858645341E+02 -0.56073676456E+02  0.10398063137E+03  0.00000000000E+00 0. -1.
          1    1    1    2  502    0 -0.14650881156E+03  0.22486721985E+02  0.20133413865E+03  0.25001183955E+03  0.00000000000E+00 0. -1.
         22    1    3    3    0    0  0.16446106454E+03  0.83101445259E+02  0.41002321898E+03  0.44952456225E+03  0.00000000000E+00 0.  1.
         22    1    3    3    0    0  0.40878611640E+02 -0.40729521903E+02  0.90193256930E+02  0.10707370564E+03  0.00000000000E+00 0.  1.
</event>
<event>
 7    1  0.4402832E-005  0.7276959E+03  0.7818608E-02  0.1206484E+00
          2   -1    0    0  502    0  0.00000000000E+00  0.00000000000E+00  0.21272405003E+04  0.21272405003E+04  0.00000000000E+00 0. -1.
          1   -1    0    0  501    0 -0.00000000000E+00 -0.00000000000E+00 -0.57599215449E+03  0.57599215449E+03  0.00000000000E+00 0. -1.
         25    2    1    2    0    0  0.42651639491E+03  0.59213851264E+03  0.17280606442E+03  0.76028324422E+03  0.12499768903E+03 0.  0.
          2    1    1    2  501    0 -0.44718130303E+03 -0.57182543061E+03  0.18495267798E+03  0.74910809231E+03  0.00000000000E+00 0. -1.
          1    1    1    2  502    0  0.20664908119E+02 -0.20313082031E+02  0.11934896034E+04  0.11938413183E+04  0.00000000000E+00 0. -1.
         22    1    3    3    0    0  0.19602362169E+03  0.34637471636E+03  0.13936267045E+03  0.42169023976E+03  0.00000000000E+00 0. -1.
         22    1    3    3    0    0  0.23049277322E+03  0.24576379629E+03  0.33443393964E+02  0.33859300447E+03  0.00000000000E+00 0. -1.
</event>
<event>
 7    1  0.4402832E-005  0.9784700E+02  0.7818608E-02  0.1338187E+00
          2   -1    0    0  502    0  0.00000000000E+00  0.00000000000E+00  0.28541000246E+04  0.28541000246E+04  0.00000000000E+00 0. -1.
          1   -1    0    0  501    0 -0.00000000000E+00 -0.00000000000E+00 -0.12278050115E+03  0.12278050115E+03  0.00000000000E+00 0. -1.
         25    2    1    2    0    0  0.76712346253E+02  0.43359855887E+02  0.85953642156E+03  0.87303571109E+03  0.12499452659E+03 0.  0.
          2    1    1    2  501    0 -0.97608531288E+02  0.13293567827E+02 -0.94574991150E+02  0.13655977913E+03  0.00000000000E+00 0. -1.
          1    1    1    2  502    0  0.20896185034E+02 -0.56653423714E+02  0.19663580930E+04  0.19672850355E+04  0.00000000000E+00 0. -1.
         22    1    3    3    0    0  0.30924981773E+02  0.82114481709E+02  0.39411764331E+03  0.40376708555E+03  0.00000000000E+00 0.  1.
         22    1    3    3    0    0  0.45787364481E+02 -0.38754625822E+02  0.46541877825E+03  0.46926862554E+03  0.00000000000E+00 0.  1.
</event>
<event>
 7    1  0.4402832E-005  0.5740321E+02  0.7818608E-02  0.1415010E+00
          2   -1    0    0  502    0  0.00000000000E+00  0.00000000000E+00  0.11850385364E+02  0.11850385364E+02  0.00000000000E+00 0. -1.
          1   -1    0    0  501    0 -0.00000000000E+00 -0.00000000000E+00 -0.42316737755E+04  0.42316737755E+04  0.00000000000E+00 0. -1.
         25    2    1    2    0    0 -0.61575255767E+02 -0.55363613766E+02 -0.11426274163E+04  0.11524232108E+04  0.12500080954E+03 0.  0.
          2    1    1    2  501    0  0.57048329958E+02  0.74257013801E+00 -0.29714285632E+04  0.29719762397E+04  0.00000000000E+00 0. -1.
          1    1    1    2  502    0  0.45269258090E+01  0.54621043628E+02 -0.10576741060E+03  0.11912471032E+03  0.00000000000E+00 0. -1.
         22    1    3    3    0    0 -0.80976334589E+01  0.38344014131E+02 -0.41401311117E+03  0.41586378936E+03  0.00000000000E+00 0.  1.
         22    1    3    3    0    0 -0.53477622308E+02 -0.93707627897E+02 -0.72861430512E+03  0.73655942140E+03  0.00000000000E+00 0.  1.
</event>
<event>
 7    1  0.4402832E-005  0.3852715E+03  0.7818608E-02  0.1259825E+00
          2   -1    0    0  502    0  0.00000000000E+00  0.00000000000E+00  0.13651935816E+03  0.13651935816E+03  0.00000000000E+00 0. -1.
          1   -1    0    0  501    0 -0.00000000000E+00 -0.00000000000E+00 -0.19089822422E+04  0.19089822422E+04  0.00000000000E+00 0. -1.
         25    2    1    2    0    0 -0.12669046797E+03  0.37147165371E+03 -0.77726911207E+03  0.87966732820E+03  0.12500268613E+03 0.  0.
          2    1    1    2  501    0  0.15007572802E+03 -0.35016349481E+03 -0.10419315405E+04  0.11093955707E+04  0.00000000000E+00 0. -1.
          1    1    1    2  502    0 -0.23385260056E+02 -0.21308158896E+02  0.46737768481E+02  0.56438701491E+02  0.00000000000E+00 0. -1.
         22    1    3    3    0    0 -0.74977409059E+02  0.18237514547E+03 -0.52062097925E+03  0.55671223229E+03  0.00000000000E+00 0.  1.
         22    1    3    3    0    0 -0.51713058907E+02  0.18909650823E+03 -0.25664813282E+03  0.32295509590E+03  0.00000000000E+00 0.  1.
</event>
<event>
 7    1  0.4402832E-005  0.9838380E+02  0.7818608E-02  0.1369496E+00
          2   -1    0    0  502    0  0.00000000000E+00  0.00000000000E+00  0.48860578135E+03  0.48860578135E+03  0.00000000000E+00 0. -1.
          1   -1    0    0  501    0 -0.00000000000E+00 -0.00000000000E+00 -0.24459989382E+03  0.24459989382E+03  0.00000000000E+00 0. -1.
         25    2    1    2    0    0  0.12566421549E+03  0.23724916334E+02 -0.10711693507E+03  0.20845544836E+03  0.12500107785E+03 0.  0.
          2    1    1    2  501    0 -0.80300694334E+02 -0.31631016136E+02 -0.63770244524E+02  0.10730967701E+03  0.00000000000E+00 0. -1.
          1    1    1    2  502    0 -0.45363521153E+02  0.79060998022E+01  0.41489306713E+03  0.41744054980E+03  0.00000000000E+00 0. -1.
         22    1    3    3    0    0  0.15304048324E+02  0.51534085790E+02 -0.70992149198E+02  0.89049767776E+02  0.00000000000E+00 0.  1.
         22    1    3    3    0    0  0.11036016716E+03 -0.27809169456E+02 -0.36124785874E+02  0.11940568059E+03  0.00000000000E+00 0.  1.
</event>
<event>
 7    1  0.4402832E-005  0.1089729E+03  0.7818608E-02  0.1264681E+00
          2   -1    0    0  502    0  0.00000000000E+00  0.00000000000E+00  0.42690406669E+03  0.42690406669E+03  0.00000000000E+00 0. -1.
          1   -1    0    0  501    0 -0.00000000000E+00 -0.00000000000E+00 -0.98870966238E+03  0.98870966238E+03  0.00000000000E+00 0. -1.
         25    2    1    2    0    0 -0.40708701860E+02 -0.35073035711E+02 -0.97563914401E+02  0.16742321698E+03  0.12499799979E+03 0.  0.
          2    1    1    2  501    0  0.85276558478E+02 -0.67845459187E+02 -0.84462086280E+03  0.85162168810E+03  0.00000000000E+00 0. -1.
          1    1    1    2  502    0 -0.44567856618E+02  0.10291849490E+03  0.38037918151E+03  0.39656882399E+03  0.00000000000E+00 0. -1.
         22    1    3    3    0    0 -0.73976673121E+02 -0.31058230939E+02 -0.19641470695E+02  0.82601145550E+02  0.00000000000E+00 0. -1.
         22    1    3    3    0    0  0.33267971260E+02 -0.40148047713E+01 -0.77922443706E+02  0.84822071433E+02  0.00000000000E+00 0. -1.
</event>
<event>
 7    1  0.4402832E-005  0.4320443E+03  0.7818608E-02  0.1226712E+00
          2   -1    0    0  502    0  0.00000000000E+00  0.00000000000E+00  0.19789449945E+04  0.19789449945E+04  0.00000000000E+00 0. -1.
          1   -1    0    0  501    0 -0.00000000000E+00 -0.00000000000E+00 -0.70204442229E+03  0.70204442229E+03  0.00000000000E+00 0. -1.
         25    2    1    2    0    0  0.11132365803E+03 -0.43706890775E+03  0.86027080470E+03  0.97934326899E+03  0.12500077659E+03 0.  0.
          2    1    1    2  501    0 -0.13791499295E+03  0.40796952327E+03 -0.56990796410E+03  0.71432119158E+03  0.00000000000E+00 0. -1.
          1    1    1    2  502    0  0.26591334916E+02  0.29099384476E+02  0.98653773159E+03  0.98732495619E+03  0.00000000000E+00 0. -1.
         22    1    3    3    0    0  0.48589172296E+02 -0.32152212129E+02  0.10957156337E+03  0.12409915353E+03  0.00000000000E+00 0. -1.
         22    1    3    3    0    0  0.62734485738E+02 -0.40491669562E+03  0.75069924133E+03  0.85524411546E+03  0.00000000000E+00 0. -1.
</event>
<event>
 7    1  0.4402832E-005  0.3147472E+03  0.7818608E-02  0.1241367E+00
          2   -1    0    0  502    0  0.00000000000E+00  0.00000000000E+00  0.17649126177E+04  0.17649126177E+04  0.00000000000E+00 0. -1.
          1   -1    0    0  501    0 -0.00000000000E+00 -0.00000000000E+00 -0.35454224735E+03  0.35454224735E+03  0.00000000000E+00 0. -1.
         25    2    1    2    0    0  0.12184489777E+03 -0.29657384632E+03  0.40892504286E+03  0.53445414830E+03  0.12497728004E+03 0.  0.
          2    1    1    2  501    0 -0.45894068488E+02 -0.78396617331E+01 -0.27073204671E+03  0.27470632853E+03  0.00000000000E+00 0. -1.
          1    1    1    2  502    0 -0.75950829280E+02  0.30441350805E+03  0.12721773742E+04  0.13102943882E+04  0.00000000000E+00 0. -1.
         22    1    3    3    0    0  0.54697821126E+02 -0.12523897581E+03  0.82226688168E+02  0.15949257332E+03  0.00000000000E+00 0. -1.
         22    1    3    3    0    0  0.67147076642E+02 -0.17133487051E+03  0.32669835469E+03  0.37496157498E+03  0.00000000000E+00 0. -1.
</event>
<event>
 7    1  0.4402832E-005  0.1698497E+03  0.7818608E-02  0.1267836E+00
          2   -1    0    0  502    0  0.00000000000E+00  0.00000000000E+00  0.35442877168E+03  0.35442877168E+03  0.00000000000E+00 0. -1.
          1   -1    0    0  501    0 -0.00000000000E+00 -0.00000000000E+00 -0.28797551322E+03  0.28797551322E+03  0.00000000000E+00 0. -1.
         25    2    1    2    0    0 -0.22870622833E+03 -0.22131115403E+01 -0.13044930637E+03  0.29146812525E+03  0.12500083904E+03 0.  0.
          2    1    1    2  501    0  0.66177989672E+02  0.49348166236E+01 -0.29171106007E+02  0.72490221118E+02  0.00000000000E+00 0. -1.
          1    1    1    2  502    0  0.16252823866E+03 -0.27217050833E+01  0.22607367084E+03  0.27844593854E+03  0.00000000000E+00 0. -1.
         22    1    3    3    0    0 -0.73538736504E+02  0.26980596485E+02 -0.10583695617E+03  0.13167140785E+03  0.00000000000E+00 0.  1.
         22    1    3    3    0    0 -0.15516749183E+03 -0.29193708026E+02 -0.24612350200E+02  0.15979671740E+03  0.00000000000E+00 0.  1.
</event>
<event>
 7    1  0.4402832E-005  0.6203668E+03  0.7818608E-02  0.1146998E+00
          2   -1    0    0  502    0  0.00000000000E+00  0.00000000000E+00  0.11950973719E+04  0.11950973719E+04  0.00000000000E+00 0. -1.
          1   -1    0    0  501    0 -0.00000000000E+00 -0.00000000000E+00 -0.24048334071E+04  0.24048334071E+04  0.00000000000E+00 0. -1.
         25    2    1    2    0    0 -0.59802865885E+03 -0.85959663915E+02  0.24958635168E+03  0.66554168542E+03  0.12500018983E+03 0.  0.
          2    1    1    2  501    0  0.60327462712E+03  0.15236547707E+03 -0.21511660049E+04  0.22393460418E+04  0.00000000000E+00 0. -1.
          1    1    1    2  502    0 -0.52459682699E+01 -0.66405813160E+02  0.69184361790E+03  0.69504305179E+03  0.00000000000E+00 0. -1.
         22    1    3    3    0    0 -0.58004215999E+03 -0.96553677447E+02  0.25913063639E+03  0.64258867615E+03  0.00000000000E+00 0.  1.
         22    1    3    3    0    0 -0.17986498858E+02  0.10594013532E+02 -0.95442847116E+01  0.22953009270E+02  0.00000000000E+00 0.  1.
</event>
<event>
 7    1  0.4402832E-005  0.3800481E+03  0.7818608E-02  0.1174806E+00
          2   -1    0    0  502    0  0.00000000000E+00  0.00000000000E+00  0.13083296541E+04  0.13083296541E+04  0.00000000000E+00 0. -1.
          1   -1    0    0  501    0 -0.00000000000E+00 -0.00000000000E+00 -0.35047368049E+03  0.35047368049E+03  0.00000000000E+00 0. -1.
         25    2    1    2    0    0  0.29031182012E+03  0.25632568381E+03  0.11364601369E+04  0.12071243573E+04  0.12499504855E+03 0.  0.
          2    1    1    2  501    0 -0.72982228904E+01 -0.78366035261E+02 -0.51291994386E+02  0.93943430999E+02  0.00000000000E+00 0. -1.
          1    1    1    2  502    0 -0.28301359723E+03 -0.17795964855E+03 -0.12731216890E+03  0.35773554628E+03  0.00000000000E+00 0. -1.
         22    1    3    3    0    0 -0.35740094648E+01  0.14113360023E+01 -0.17807275870E+01  0.42351391600E+01  0.00000000000E+00 0.  1.
         22    1    3    3    0    0  0.29388582958E+03  0.25491434780E+03  0.11382408645E+04  0.12028892182E+04  0.00000000000E+00 0.  1.
</event>
<event>
 7    1  0.4402832E-005  0.5281416E+03  0.7818608E-02  0.1090636E+00
          2   -1    0    0  502    0  0.00000000000E+00  0.00000000000E+00  0.22465724841E+04  0.22465724841E+04  0.00000000000E+00 0. -1.
          1   -1    0    0  501    0 -0.00000000000E+00 -0.00000000000E+00 -0.50712807344E+03  0.50712807344E+03  0.00000000000E+00 0. -1.
         25    2    1    2    0    0  0.18496824189E+03  0.60603293351E+03  0.47473008275E+03  0.80155037867E+03  0.12500076428E+03 0.  0.
          2    1    1    2  501    0 -0.11738516482E+03 -0.10670399624E+03 -0.28302704538E+03  0.32445235112E+03  0.00000000000E+00 0. -1.
          1    1    1    2  502    0 -0.67583077076E+02 -0.49932893727E+03  0.15477413733E+04  0.16276978278E+04  0.00000000000E+00 0. -1.
         22    1    3    3    0    0  0.22731632079E+02  0.21677298909E+03  0.21562446130E+03  0.30659609295E+03  0.00000000000E+00 0. -1.
         22    1    3    3    0    0  0.16223660981E+03  0.38925994442E+03  0.25910562145E+03  0.49495428572E+03  0.00000000000E+00 0. -1.
</event>
<event>
 7    1  0.4402832E-005  0.3160731E+03  0.7818608E-02  0.1118969E+00
          2   -1    0    0  502    0  0.00000000000E+00  0.00000000000E+00  0.12468548890E+03  0.12468548890E+03  0.00000000000E+00 0. -1.
          1   -1    0    0  501    0 -0.00000000000E+00 -0.00000000000E+00 -0.23548096064E+04  0.23548096064E+04  0.00000000000E+00 0. -1.
         25    2    1    2    0    0  0.36332001095E+03 -0.18461121626E+03 -0.11175375266E+04  0.11960764978E+04  0.12500453483E+03 0.  0.
          2    1    1    2  501    0 -0.28128025152E+03  0.19773821599E+02 -0.10526835287E+04  0.10897945658E+04  0.00000000000E+00 0. -1.
          1    1    1    2  502    0 -0.82039759426E+02  0.16483739466E+03 -0.59903062182E+02  0.19362403173E+03  0.00000000000E+00 0. -1.
         22    1    3    3    0    0  0.23614643532E+03 -0.16318373492E+03 -0.63985036452E+03  0.70128636036E+03  0.00000000000E+00 0.  1.
         22    1    3    3    0    0  0.12717357562E+03 -0.21427481332E+02 -0.47768716209E+03  0.49479013746E+03  0.00000000000E+00 0.  1.
</event>
<event>
 7    1  0.4402832E-005  0.7701503E+03  0.7818608E-02  0.1053387E+00
          2   -1    0    0  502    0  0.00000000000E+00  0.00000000000E+00  0.13433632093E+04  0.13433632093E+04  0.00000000000E+00 0. -1.
          1   -1    0    0  501    0 -0.00000000000E+00 -0.00000000000E+00 -0.13875162666E+04  0.13875162666E+04  0.00000000000E+00 0. -1.
         25    2    1    2    0    0 -0.53377056568E+03  0.44934480622E+03  0.15785822017E+03  0.72619908274E+03  0.12499647365E+03 0.  0.
          2    1    1    2  501    0  0.47274042127E+01  0.18101343991E+03 -0.90464190042E+03  0.92258613786E+03  0.00000000000E+00 0. -1.
          1    1    1    2  502    0  0.52904316147E+03 -0.63035824613E+03  0.70263062298E+03  0.10820942554E+04  0.00000000000E+00 0. -1.
         22    1    3    3    0    0 -0.41871756669E+03  0.38793529840E+03  0.16902842172E+03  0.59530563894E+03  0.00000000000E+00 0.  1.
         22    1    3    3    0    0 -0.11505299899E+03  0.61409507824E+02 -0.11170201549E+02  0.13089344380E+03  0.00000000000E+00 0.  1.
</event>
<event>
 7    1  0.4402832E-005  0.1733867E+03  0.7818608E-02  0.1195019E+00
          2   -1    0    0  502    0  0.00000000000E+00  0.00000000000E+00  0.65080191220E+03  0.65080191220E+03  0.00000000000E+00 0. -1.
          1   -1    0    0  501    0 -0.00000000000E+00 -0.00000000000E+00 -0.53568939023E+03  0.53568939023E+03  0.00000000000E+00 0. -1.
         25    2    1    2    0    0 -0.11024979291E+03  0.23041531817E+03 -0.97280985886E+02  0.30055639894E+03  0.12499729214E+03 0.  0.
          2    1    1    2  501    0  0.12347609310E+03 -0.60990256022E+02 -0.30859500054E+03  0.33793051246E+03  0.00000000000E+00 0. -1.
          1    1    1    2  502    0 -0.13226300187E+02 -0.16942506215E+03  0.52098850840E+03  0.54800439102E+03  0.00000000000E+00 0. -1.
         22    1    3    3    0    0 -0.11246739600E+02  0.11424956008E+03  0.80898144901E+01  0.11508647283E+03  0.00000000000E+00 0. -1.
         22    1    3    3    0    0 -0.99003053309E+02  0.11616575809E+03 -0.10537080038E+03  0.18546992610E+03  0.00000000000E+00 0. -1.
</event>
<event>
 7    1  0.4402832E-005  0.5610642E+02  0.7818608E-02  0.1420899E+00
          2   -1    0    0  502    0  0.00000000000E+00  0.00000000000E+00  0.15785565216E+04  0.15785565216E+04  0.00000000000E+00 0. -1.
          1   -1    0    0  501    0 -0.00000000000E+00 -0.00000000000E+00 -0.22324732620E+04  0.22324732620E+04  0.00000000000E+00 0. -1.
         25    2    1    2    0    0  0.46443301687E+02 -0.99233523748E+02  0.64474112267E+03  0.66582326241E+03  0.12500091601E+03 0.  0.
          2    1    1    2  501    0 -0.21646505620E+02  0.51731285088E+02 -0.22208004561E+04  0.22215083531E+04  0.00000000000E+00 0. -1.
          1    1    1    2  502    0 -0.24796796066E+02  0.47502238659E+02  0.92214259304E+03  0.92369816806E+03  0.00000000000E+00 0. -1.
         22    1    3    3    0    0 -0.36923079004E+02 -0.73966565969E+00  0.12875126318E+03  0.13394307984E+03  0.00000000000E+00 0. -1.
         22    1    3    3    0    0  0.83366380691E+02 -0.98493858088E+02  0.51598985949E+03  0.53188018257E+03  0.00000000000E+00 0. -1.
</event>
<event>
 7    1  0.4402832E-005  0.6700828E+03  0.7818608E-02  0.1219371E+00
          2   -1    0    0  502    0  0.00000000000E+00  0.00000000000E+00  0.24619629117E+04  0.24619629117E+04  0.00000000000E+00 0. -1.
          1   -1    0    0  501    0 -0.00000000000E+00 -0.00000000000E+00 -0.46020774213E+03  0.46020774213E+03  0.00000000000E+00 0. -1.
         25    2    1    2    0    0 -0.29914572875E+03 -0.60697790121E+03  0.13880151087E+04  0.15492324845E+04  0.12500003753E+03 0.  0.
          2    1    1    2  501    0  0.27200546497E+03  0.61103461071E+03 -0.84499953586E+02  0.67415911372E+03  0.00000000000E+00 0. -1.
          1    1    1    2  502    0  0.27140263782E+02 -0.40567094972E+01  0.69824001442E+03  0.69877905560E+03  0.00000000000E+00 0. -1.
         22    1    3    3    0    0 -0.31427379686E+02 -0.16736260104E+03  0.28430095890E+03  0.33139848469E+03  0.00000000000E+00 0.  1.
         22    1    3    3    0    0 -0.26771834907E+03 -0.43961530017E+03  0.11037141498E+04  0.12178339998E+04  0.00000000000E+00 0.  1.
</event>
<event>
 7    1  0.4402832E-005  0.3673713E+03  0.7818608E-02  0.1206302E+00
          2   -1    0    0  502    0  0.00000000000E+00  0.00000000000E+00  0.12335716417E+04  0.12335716417E+04  0.00000000000E+00 0. -1.
          1   -1    0    0  501    0 -0.00000000000E+00 -0.00000000000E+00 -0.13344457994E+04  0.13344457994E+04  0.00000000000E+00 0. -1.
         25    2    1    2    0    0 -0.37879135705E+03  0.90177834061E+02 -0.34343111501E+02  0.41039003779E+03  0.12500239950E+03 0.  0.
          2    1    1    2  501    0  0.36269393104E+03 -0.34966317211E+02 -0.10813961253E+04  0.11411341336E+04  0.00000000000E+00 0. -1.
          1    1    1    2  502    0  0.16097426006E+02 -0.55211516850E+02  0.10148650791E+04  0.10164932698E+04  0.00000000000E+00 0. -1.
         22    1    3    3    0    0 -0.10236006083E+03  0.74351274270E+02  0.20395691438E+02  0.12814709621E+03  0.00000000000E+00 0.  1.
         22    1    3    3    0    0 -0.27643129622E+03  0.15826559791E+02 -0.54738802938E+02  0.28224294158E+03  0.00000000000E+00 0.  1.
</event>
<event>
 7    1  0.4402832E-005  0.8098545E+03  0.7818608E-02  0.1213360E+00
          2   -1    0    0  502    0  0.00000000000E+00  0.00000000000E+00  0.14269317914E+04  0.14269317914E+04  0.00000000000E+00 0. -1.
          1   -1    0    0  501    0 -0.00000000000E+00 -0.00000000000E+00 -0.15841632847E+04  0.15841632847E+04  0.00000000000E+00 0. -1.
         25    2    1    2    0    0  0.35552058687E+03 -0.70487518384E+03  0.48912061715E+03  0.93707416482E+03  0.12500039902E+03 0.  0.
          2    1    1    2  501    0 -0.36272606865E+03  0.72797127862E+03 -0.12383324563E+04  0.14815463731E+04  0.00000000000E+00 0. -1.
          1    1    1    2  502    0  0.72054817714E+01 -0.23096094779E+02  0.59198034581E+03  0.59247453818E+03  0.00000000000E+00 0. -1.
         22    1    3    3    0    0  0.31949349606E+03 -0.53845524143E+03  0.35070743649E+03  0.71763907854E+03  0.00000000000E+00 0.  1.
         22    1    3    3    0    0  0.36027090813E+02 -0.16641994242E+03  0.13841318066E+03  0.21943508627E+03  0.00000000000E+00 0.  1.
</event>
<event>
 7    1  0.4402832E-005  0.3816206E+03  0.7818608E-02  0.1170231E+00
          2   -1    0    0  502    0  0.00000000000E+00  0.00000000000E+00  0.86234631465E+03  0.86234631465E+03  0.00000000000E+00 0. -1.
          1   -1    0    0  501    0 -0.00000000000E+00 -0.00000000000E+00 -0.11923025565E+04  0.11923025565E+04  0.00000000000E+00 0. -1.
         25    2    1    2    0    0 -0.30681788232E+03  0.31638409996E+03  0.19247978915E+01  0.45811067609E+03  0.12500230032E+03 0.  0.
          2    1    1    2  501    0  0.77516836782E+02 -0.28447691966E+02 -0.90861200427E+03  0.91235623824E+03  0.00000000000E+00 0. -1.
          1    1    1    2  502    0  0.22930104553E+03 -0.28793640800E+03  0.57673096455E+03  0.68418195679E+03  0.00000000000E+00 0. -1.
         22    1    3    3    0    0 -0.28553278483E+03  0.23706780547E+03  0.27392590645E+02  0.37212964089E+03  0.00000000000E+00 0. -1.
         22    1    3    3    0    0 -0.21285097482E+02  0.79316294494E+02 -0.25467792753E+02  0.85981035204E+02  0.00000000000E+00 0. -1.
</event>
<event>
 7    1  0.4402832E-005  0.3364456E+03  0.7818608E-02  0.1190828E+00
          2   -1    0    0  502    0  0.00000000000E+00  0.00000000000E+00  0.25986408084E+04  0.25986408084E+04  0.00000000000E+00 0. -1.
          1   -1    0    0  501    0 -0.00000000000E+00 -0.00000000000E+00 -0.65919400241E+02  0.65919400241E+02  0.00000000000E+00 0. -1.
         25    2    1    2    0    0  0.35992120808E+03  0.41405810134E+02  0.73229861636E+03  0.82652482713E+03  0.12499723680E+03 0.  0.
          2    1    1    2  501    0 -0.28703712335E+03 -0.55935366258E+02  0.13293032339E+04  0.13610900643E+04  0.00000000000E+00 0. -1.
          1    1    1    2  502    0 -0.72884084725E+02  0.14529556124E+02  0.47111955790E+03  0.47694531725E+03  0.00000000000E+00 0. -1.
         22    1    3    3    0    0  0.19903070349E+03  0.54804913665E+00  0.52165731735E+03  0.55833670669E+03  0.00000000000E+00 0.  1.
         22    1    3    3    0    0  0.16089050458E+03  0.40857760997E+02  0.21064129901E+03  0.26818812044E+03  0.00000000000E+00 0.  1.
</event>
<event>
 7    1  0.4402832E-005  0.3002125E+03  0.7818608E-02  0.1086028E+00
          2   -1    0    0  502    0  0.00000000000E+00  0.00000000000E+00  0.31311383634E+03  0.31311383634E+03  0.00000000000E+00 0. -1.
          1   -1    0    0  501    0 -0.00000000000E+00 -0.00000000000E+00 -0.15971684446E+04  0.15971684446E+04  0.00000000000E+00 0. -1.
         25    2    1    2    0    0 -0.18613926022E+03 -0.16124136685E+03 -0.54366013073E+03  0.60978504389E+03  0.12499943772E+03 0.  0.
          2    1    1    2  501    0  0.42763582829E+03 -0.17103634897E+02 -0.87303092679E+03  0.97229004679E+03  0.00000000000E+00 0. -1.
          1    1    1    2  502    0 -0.24149656807E+03  0.17834500175E+03  0.13263644929E+03  0.32820719023E+03  0.00000000000E+00 0. -1.
         22    1    3    3    0    0 -0.17063418893E+03 -0.17620291152E+03 -0.43849584320E+03  0.50243616208E+03  0.00000000000E+00 0. -1.
         22    1    3    3    0    0 -0.15505071293E+02  0.14961544673E+02 -0.10516428753E+03  0.10734888182E+03  0.00000000000E+00 0. -1.
</event>
<event>
 7    1  0.4402832E-005  0.2739003E+03  0.7818608E-02  0.1181753E+00
          2   -1    0    0  502    0  0.00000000000E+00  0.00000000000E+00  0.95700613971E+03  0.95700613971E+03  0.00000000000E+00 0. -1.
          1   -1    0    0  501    0 -0.00000000000E+00 -0.00000000000E+00 -0.37723349565E+03  0.37723349565E+03  0.00000000000E+00 0. -1.
         25    2    1    2    0    0 -0.52838906834E+02 -0.26951472218E+03  0.24721425192E+03  0.39009042992E+03  0.12500208647E+03 0.  0.
          2    1    1    2  501    0 -0.95438365145E+02  0.32994691780E+02 -0.26555033741E+03  0.28410229307E+03  0.00000000000E+00 0. -1.
          1    1    1    2  502    0  0.14827727198E+03  0.23652003040E+03  0.59810872956E+03  0.66004691237E+03  0.00000000000E+00 0. -1.
         22    1    3    3    0    0  0.28033608176E+02 -0.17553948627E+03  0.14701073858E+03  0.23067759251E+03  0.00000000000E+00 0. -1.
         22    1    3    3    0    0 -0.80872515010E+02 -0.93975235906E+02  0.10020351334E+03  0.15941283742E+03  0.00000000000E+00 0. -1.
</event>
<event>
 7    1  0.4402832E-005  0.2103154E+03  0.7818608E-02  0.1264007E+00
          2   -1    0    0  502    0  0.00000000000E+00  0.00000000000E+00  0.22915688414E+03  0.22915688414E+03  0.00000000000E+00 0. -1.
          1   -1    0    0  501    0 -0.00000000000E+00 -0.00000000000E+00 -0.18648732733E+04  0.18648732733E+04  0.00000000000E+00 0. -1.
         25    2    1    2    0    0  0.21729993267E+03 -0.10875719630E+03 -0.10714740155E+04  0.11057707483E+04  0.12499997426E+03 0.  0.
          2    1    1    2  501    0 -0.17277500746E+03  0.75409125081E+02 -0.76088996242E+03  0.78389493828E+03  0.00000000000E+00 0. -1.
          1    1    1    2  502    0 -0.44524925213E+02  0.33348071218E+02  0.19664758868E+03  0.20436447087E+03  0.00000000000E+00 0. -1.
         22    1    3    3    0    0  0.32907980533E+02  0.67237321285E+01 -0.36528934775E+03  0.36683027593E+03  0.00000000000E+00 0.  1.
         22    1    3    3    0    0  0.18439195214E+03 -0.11548092843E+03 -0.70618466771E+03  0.73894047240E+03  0.00000000000E+00 0.  1.
</event>
<event>
 7    1  0.4402832E-005  0.6240289E+03  0.7818608E-02  0.1174340E+00
          2   -1    0    0  502    0  0.00000000000E+00  0.00000000000E+00  0.92296270641E+03  0.92296270641E+03  0.00000000000E+00 0. -1.
          1   -1    0    0  501    0 -0.00000000000E+00 -0.00000000000E+00 -0.17162770564E+04  0.17162770564E+04  0.00000000000E+00 0. -1.
         25    2    1    2    0    0 -0.59046537176E+03  0.98011992592E+02 -0.59807981587E+03  0.85532480267E+03  0.12500138392E+03 0.  0.
          2    1    1    2  501    0  0.63830184855E+03 -0.92207942291E+02 -0.88356455145E+03  0.10939003022E+04  0.00000000000E+00 0. -1.
          1    1    1    2  502    0 -0.47836476794E+02 -0.58040503012E+01  0.68833001732E+03  0.69001465800E+03  0.00000000000E+00 0. -1.
         22    1    3    3    0    0 -0.33811882824E+03  0.11258172964E+03 -0.31281740247E+03  0.47418742618E+03  0.00000000000E+00 0. -1.
         22    1    3    3    0    0 -0.25234654352E+03 -0.14569737044E+02 -0.28526241340E+03  0.38113737649E+03  0.00000000000E+00 0. -1.
</event>
<event>
 7    1  0.4402832E-005  0.1337993E+03  0.7818608E-02  0.1271381E+00
          2   -1    0    0  502    0  0.00000000000E+00  0.00000000000E+00  0.64371909628E+03  0.64371909628E+03  0.00000000000E+00 0. -1.
          1   -1    0    0  501    0 -0.00000000000E+00 -0.00000000000E+00 -0.26194604466E+03  0.26194604466E+03  0.00000000000E+00 0. -1.
         25    2    1    2    0    0  0.58880864747E+02  0.16257606386E+03  0.32828669426E+03  0.39152966049E+03  0.12500155457E+03 0.  0.
          2    1    1    2  501    0  0.27254851064E+02 -0.76703312100E+02 -0.20929688224E+03  0.22456938773E+03  0.00000000000E+00 0. -1.
          1    1    1    2  502    0 -0.86135715811E+02 -0.85872751759E+02  0.26278323960E+03  0.28956609271E+03  0.00000000000E+00 0. -1.
         22    1    3    3    0    0 -0.18905915739E+02  0.32964515173E+02  0.10191131279E+02  0.39344022002E+02  0.00000000000E+00 0.  1.
         22    1    3    3    0    0  0.77786780486E+02  0.12961154869E+03  0.31809556298E+03  0.35218563849E+03  0.00000000000E+00 0.  1.
</event>
<event>
 7    1  0.4402832E-005  0.2737588E+03  0.7818608E-02  0.1157807E+00
          2   -1    0    0  502    0  0.00000000000E+00  0.00000000000E+00  0.81810889107E+03  0.81810889107E+03  0.00000000000E+00 0. -1.
          1   -1    0    0  501    0 -0.00000000000E+00 -0.00000000000E+00 -0.27214222415E+03  0.27214222415E+03  0.00000000000E+00 0. -1.
         25    2    1    2    0    0  0.33088438435E+03 -0.96154572018E+02 -0.42754285878E+02  0.36904360501E+03  0.12504029715E+03 0.  0.
          2    1    1    2  501    0 -0.11781574330E+03 -0.61450722892E+02  0.10389700001E+03  0.16867521254E+03  0.00000000000E+00 0. -1.
          1    1    1    2  502    0 -0.21306864104E+03  0.15760529491E+03  0.48482395278E+03  0.55253229767E+03  0.00000000000E+00 0. -1.
         22    1    3    3    0    0  0.18867229076E+02 -0.14772133182E+02 -0.39938462243E+02  0.46575412162E+02  0.00000000000E+00 0. -1.
         22    1    3    3    0    0  0.31201715527E+03 -0.81382438835E+02 -0.28158236351E+01  0.32246819284E+03  0.00000000000E+00 0. -1.
</event>
<event>
 7    1  0.4402832E-005  0.3850513E+03  0.7818608E-02  0.1209714E+00
          2   -1    0    0  502    0  0.00000000000E+00  0.00000000000E+00  0.10490364244E+04  0.10490364244E+04  0.00000000000E+00 0. -1.
          1   -1    0    0  501    0 -0.00000000000E+00 -0.00000000000E+00 -0.40788835683E+03  0.40788835683E+03  0.00000000000E+00 0. -1.
         25    2    1    2    0    0 -0.30617775404E+03 -0.25004284381E+03 -0.74132785999E+02  0.42117254011E+03  0.12499759108E+03 0.  0.
          2    1    1    2  501    0  0.25755336642E+03  0.27087717884E+03  0.60263849542E+02  0.37860258073E+03  0.00000000000E+00 0. -1.
          1    1    1    2  502    0  0.48624387617E+02 -0.20834335039E+02  0.65501700407E+03  0.65714966043E+03  0.00000000000E+00 0. -1.
         22    1    3    3    0    0 -0.17414440622E+03 -0.21642326406E+03 -0.39381347028E+02  0.28056406388E+03  0.00000000000E+00 0. -1.
         22    1    3    3    0    0 -0.13203334782E+03 -0.33619579744E+02 -0.34751438971E+02  0.14060847624E+03  0.00000000000E+00 0. -1.
</event>
<event>
 7    1  0.4402832E-005  0.4609983E+03  0.7818608E-02  0.1168731E+00
          2   -1    0    0  502    0  0.00000000000E+00  0.00000000000E+00  0.10003513059E+04  0.10003513059E+04  0.00000000000E+00 0. -1.
          1   -1    0    0  501    0 -0.00000000000E+00 -0.00000000000E+00 -0.55156809302E+03  0.55156809302E+03  0.00000000000E+00 0. -1.
         25    2    1    2    0    0 -0.41746143348E+03  0.29583433011E+03  0.85726374392E+02  0.53363363913E+03  0.12499540083E+03 0.  0.
          2    1    1    2  501    0  0.65130180049E+02 -0.24363936889E+02 -0.25078017036E+03  0.26024264758E+03  0.00000000000E+00 0. -1.
          1    1    1    2  502    0  0.35233125343E+03 -0.27147039322E+03  0.61383700882E+03  0.75804311219E+03  0.00000000000E+00 0. -1.
         22    1    3    3    0    0 -0.41297965532E+03  0.30704771498E+03  0.84254240091E+02  0.52146838059E+03  0.00000000000E+00 0.  1.
         22    1    3    3    0    0 -0.44817781541E+01 -0.11213384873E+02  0.14721343011E+01  0.12165258532E+02  0.00000000000E+00 0.  1.
</event>
<event>
 7    1  0.4402832E-005  0.1430461E+04  0.7818608E-02  0.1085369E+00
          2   -1    0    0  502    0  0.00000000000E+00  0.00000000000E+00  0.26634695604E+04  0.26634695604E+04  0.00000000000E+00 0. -1.
          1   -1    0    0  501    0 -0.00000000000E+00 -0.00000000000E+00 -0.24044530573E+04  0.24044530573E+04  0.00000000000E+00 0. -1.
         25    2    1    2    0    0  0.13990844947E+04  0.19264837286E+03  0.70807476268E+03  0.15847858490E+04  0.12500199503E+03 0.  0.
          2    1    1    2  501    0  0.38962560334E+02 -0.49263146965E+02 -0.16211713108E+04  0.16223875486E+04  0.00000000000E+00 0. -1.
          1    1    1    2  502    0 -0.14380470550E+04 -0.14338522590E+03  0.11721130512E+04  0.18607492201E+04  0.00000000000E+00 0. -1.
         22    1    3    3    0    0  0.10223510117E+04  0.13174689402E+03  0.45423094310E+03  0.11264477728E+04  0.00000000000E+00 0. -1.
         22    1    3    3    0    0  0.37673348297E+03  0.60901478847E+02  0.25384381958E+03  0.45833807615E+03  0.00000000000E+00 0. -1.
</event>
<event>
 7    1  0.4402832E-005  0.5729158E+03  0.7818608E-02  0.1051074E+00
          2   -1    0    0  502    0  0.00000000000E+00  0.00000000000E+00  0.33185212665E+04  0.33185212665E+04  0.00000000000E+00 0. -1.
          1   -1    0    0  501    0 -0.00000000000E+00 -0.00000000000E+00 -0.21137516482E+04  0.21137516482E+04  0.00000000000E+00 0. -1.
         25    2    1    2    0    0  0.50286627763E+03 -0.33103674734E+03 -0.28646818120E+03  0.67834260476E+03  0.12499939731E+03 0.  0.
          2    1    1    2  501    0 -0.19782087721E+03 -0.15537177814E+03 -0.15950141265E+04  0.16147270830E+04  0.00000000000E+00 0. -1.
          1    1    1    2  502    0 -0.30504540041E+03  0.48640852548E+03  0.30862519259E+04  0.31392032270E+04  0.00000000000E+00 0. -1.
         22    1    3    3    0    0  0.28784504328E+03 -0.11697295636E+03 -0.12794777222E+03  0.33601796660E+03  0.00000000000E+00 0.  1.
         22    1    3    3    0    0  0.21502123434E+03 -0.21406379098E+03 -0.15852040898E+03  0.34232463815E+03  0.00000000000E+00 0.  1.
</event>
<event>
 7    1  0.4402832E-005  0.5771810E+02  0.7818608E-02  0.1418861E+00
          2   -1    0    0  502    0  0.00000000000E+00  0.00000000000E+00  0.12150112065E+04  0.12150112065E+04  0.00000000000E+00 0. -1.
          1   -1    0    0  501    0 -0.00000000000E+00 -0.00000000000E+00 -0.27991093350E+03  0.27991093350E+03  0.00000000000E+00 0. -1.
         25    2    1    2    0    0 -0.13769993846E+01 -0.80097099097E+01  0.16839199779E+03  0.20987249956E+03  0.12499819827E+03 0.  0.
          2    1    1    2  501    0 -0.31639938475E+02  0.49356303591E+02 -0.25516191797E+03  0.26181049405E+03  0.00000000000E+00 0. -1.
          1    1    1    2  502    0  0.33016937860E+02 -0.41346593681E+02  0.10218701932E+04  0.10232391464E+04  0.00000000000E+00 0. -1.
         22    1    3    3    0    0 -0.54365361723E+02  0.24365456681E+02  0.10748939742E+03  0.12289523422E+03  0.00000000000E+00 0.  1.
         22    1    3    3    0    0  0.52988362339E+02 -0.32375166590E+02  0.60902600369E+02  0.86977265345E+02  0.00000000000E+00 0.  1.
</event>
<event>
 7    1  0.4402832E-005  0.4964394E+03  0.7818608E-02  0.1034344E+00
          2   -1    0    0  502    0  0.00000000000E+00  0.00000000000E+00  0.47853037799E+03  0.47853037799E+03  0.00000000000E+00 0. -1.
          1   -1    0    0  501    0 -0.00000000000E+00 -0.00000000000E+00 -0.12145794004E+04  0.12145794004E+04  0.00000000000E+00 0. -1.
         25    2    1    2    0    0 -0.32569400090E+03 -0.21592171425E+03 -0.50771247768E+03  0.65275953436E+03  0.12499712316E+03 0.  0.
          2    1    1    2  501    0 -0.24758999383E+03  0.27469234570E+03 -0.27694961471E+03  0.46201491200E+03  0.00000000000E+00 0. -1.
          1    1    1    2  502    0  0.57328399473E+03 -0.58770631451E+02  0.48613069942E+02  0.57833533206E+03  0.00000000000E+00 0. -1.
         22    1    3    3    0    0 -0.14748395630E+03 -0.73868144004E+02 -0.12356789256E+03  0.20609959761E+03  0.00000000000E+00 0.  1.
         22    1    3    3    0    0 -0.17821004460E+03 -0.14205357024E+03 -0.38414458512E+03  0.44665993675E+03  0.00000000000E+00 0.  1.
</event>
<event>
 7    1  0.4402832E-005  0.3202486E+03  0.7818608E-02  0.1144698E+00
          2   -1    0    0  502    0  0.00000000000E+00  0.00000000000E+00  0.80007484997E+03  0.80007484997E+03  0.00000000000E+00 0. -1.
          1   -1    0    0  501    0 -0.00000000000E+00 -0.00000000000E+00 -0.91413628082E+03  0.91413628082E+03  0.00000000000E+00 0. -1.
         25    2    1    2    0    0  0.76814196300E+02 -0.34110828070E+03  0.54973203512E+03  0.66338963687E+03  0.12500087983E+03 0.  0.
          2    1    1    2  501    0 -0.11579890668E+03  0.64661155302E+02 -0.74764569037E+03  0.75931846423E+03  0.00000000000E+00 0. -1.
          1    1    1    2  502    0  0.38984710375E+02  0.27644712539E+03  0.83852224395E+02  0.29150302969E+03  0.00000000000E+00 0. -1.
         22    1    3    3    0    0 -0.14251781987E+02 -0.10532904486E-01  0.68604364168E+01  0.15817047404E+02  0.00000000000E+00 0.  1.
         22    1    3    3    0    0  0.91065978287E+02 -0.34109774779E+03  0.54287159871E+03  0.64757258947E+03  0.00000000000E+00 0.  1.
</event>
<event>
 7    1  0.4402832E-005  0.5227760E+02  0.7818608E-02  0.1448793E+00
          2   -1    0    0  502    0  0.00000000000E+00  0.00000000000E+00  0.47879172716E+03  0.47879172716E+03  0.00000000000E+00 0. -1.
          1   -1    0    0  501    0 -0.00000000000E+00 -0.00000000000E+00 -0.53135599791E+02  0.53135599791E+02  0.00000000000E+00 0. -1.
         25    2    1    2    0    0 -0.33238884037E+02  0.22022159385E+02  0.62468003660E+02  0.14532402336E+03  0.12500808521E+03 0.  0.
          2    1    1    2  501    0  0.32265151629E+02 -0.68628110413E+02  0.14657073067E+03  0.16502677552E+03  0.00000000000E+00 0. -1.
          1    1    1    2  502    0  0.97373240864E+00  0.46605951028E+02  0.21661739304E+03  0.22157652807E+03  0.00000000000E+00 0. -1.
         22    1    3    3    0    0  0.11363951293E+02 -0.22878434301E+02  0.76367596990E+02  0.80526840339E+02  0.00000000000E+00 0.  1.
         22    1    3    3    0    0 -0.44602835330E+02  0.44900593686E+02 -0.13899593330E+02  0.64797183022E+02  0.00000000000E+00 0.  1.
</event>
<event>
 7    1  0.4402832E-005  0.3273285E+03  0.7818608E-02  0.1292197E+00
          2   -1    0    0  502    0  0.00000000000E+00  0.00000000000E+00  0.92686858694E+03  0.92686858694E+03  0.00000000000E+00 0. -1.
          1   -1    0    0  501    0 -0.00000000000E+00 -0.00000000000E+00 -0.65410034726E+03  0.65410034726E+03  0.00000000000E+00 0. -1.
         25    2    1    2    0    0 -0.32407589475E+03 -0.11191705601E+03  0.19888891505E+03  0.41561142406E+03  0.12500176917E+03 0.  0.
          2    1    1    2  501    0  0.31313827485E+03  0.86892891373E+02 -0.49700621828E+03  0.59381910946E+03  0.00000000000E+00 0. -1.
          1    1    1    2  502    0  0.10937619901E+02  0.25024164636E+02  0.57088554291E+03  0.57153840068E+03  0.00000000000E+00 0. -1.
         22    1    3    3    0    0 -0.39826226309E+02  0.21221165873E+02  0.21758183193E+01  0.45179645510E+02  0.00000000000E+00 0.  1.
         22    1    3    3    0    0 -0.28424966844E+03 -0.13313822188E+03  0.19671309673E+03  0.37043177855E+03  0.00000000000E+00 0.  1.
</event>
<event>
 7    1  0.4402832E-005  0.1097206E+04  0.7818608E-02  0.1100277E+00
          2   -1    0    0  502    0  0.00000000000E+00  0.00000000000E+00  0.84715729989E+03  0.84715729989E+03  0.00000000000E+00 0. -1.
          1   -1    0    0  501    0 -0.00000000000E+00 -0.00000000000E+00 -0.20000231926E+04  0.20000231926E+04  0.00000000000E+00 0. -1.
         25    2    1    2    0    0 -0.26481607231E+03 -0.10607429208E+04 -0.34023020657E+03  0.11518184521E+04  0.12500422797E+03 0.  0.
          2    1    1    2  501    0  0.63438704465E+02 -0.22497202905E+02 -0.56121972566E+03  0.56524169506E+03  0.00000000000E+00 0. -1.
          1    1    1    2  502    0  0.20137736785E+03  0.10832401237E+04 -0.25141596053E+03  0.11301203454E+04  0.00000000000E+00 0. -1.
         22    1    3    3    0    0 -0.13583586925E+03 -0.48825398370E+03 -0.94124652108E+02  0.51546366129E+03  0.00000000000E+00 0. -1.
         22    1    3    3    0    0 -0.12898020306E+03 -0.57248893707E+03 -0.24610555446E+03  0.63635479081E+03  0.00000000000E+00 0. -1.
</event>
<event>
 7    1  0.4402832E-005  0.7831354E+03  0.7818608E-02  0.1076474E+00
          2   -1    0    0  502    0  0.00000000000E+00  0.00000000000E+00  0.29637876219E+04  0.29637876219E+04  0.00000000000E+00 0. -1.
          1   -1    0    0  501    0 -0.00000000000E+00 -0.00000000000E+00 -0.16196887452E+04  0.16196887452E+04  0.00000000000E+00 0. -1.
         25    2    1    2    0    0  0.75925832102E+03  0.12759048254E+03  0.19736595738E+04  0.21221944206E+04  0.12499806423E+03 0.  0.
          2    1    1    2  501    0  0.63106619789E+02 -0.11285633195E+03 -0.13570638894E+04  0.13632099608E+04  0.00000000000E+00 0. -1.
          1    1    1    2  502    0 -0.82236494081E+03 -0.14734150588E+02  0.72750319229E+03  0.10980719857E+04  0.00000000000E+00 0. -1.
         22    1    3    3    0    0  0.52903547564E+03  0.85048874632E+02  0.15201042417E+04  0.16117781334E+04  0.00000000000E+00 0. -1.
         22    1    3    3    0    0  0.23022284537E+03  0.42541607910E+02  0.45355533206E+03  0.51041628714E+03  0.00000000000E+00 0. -1.
</event>
<event>
 7    1  0.4402832E-005  0.4126130E+03  0.7818608E-02  0.1178586E+00
          2   -1    0    0  502    0  0.00000000000E+00  0.00000000000E+00  0.10008255351E+04  0.10008255351E+04  0.00000000000E+00 0. -1.
          1   -1    0    0  501    0 -0.00000000000E+00 -0.00000000000E+00 -0.52846822570E+03  0.52846822570E+03  0.00000000000E+00 0. -1.
         25    2    1    2    0    0 -0.39217594551E+03 -0.20860469909E+03 -0.17737130299E+03  0.49437190529E+03  0.12500043557E+03 0.  0.
          2    1    1    2  501    0  0.32639840988E+03  0.18628503908E+03 -0.56634667441E+01  0.37585916593E+03  0.00000000000E+00 0. -1.
          1    1    1    2  502    0  0.65777535632E+02  0.22319660011E+02  0.65539207913E+03  0.65906268958E+03  0.00000000000E+00 0. -1.
         22    1    3    3    0    0 -0.36051243806E+03 -0.21245145398E+03 -0.13174963147E+03  0.43870582819E+03  0.00000000000E+00 0. -1.
         22    1    3    3    0    0 -0.31663507452E+02  0.38467548934E+01 -0.45621671515E+02  0.55666077095E+02  0.00000000000E+00 0. -1.
</event>
<event>
 7    1  0.4402832E-005  0.1241075E+03  0.7818608E-02  0.1313362E+00
          2   -1    0    0  502    0  0.00000000000E+00  0.00000000000E+00  0.61668459463E+03  0.61668459463E+03  0.00000000000E+00 0. -1.
          1   -1    0    0  501    0 -0.00000000000E+00 -0.00000000000E+00 -0.22406953553E+03  0.22406953553E+03  0.00000000000E+00 0. -1.
         25    2    1    2    0    0 -0.74908724707E+02 -0.46444983797E+02 -0.11454880088E+03  0.19109357608E+03  0.12500749369E+03 0.  0.
          2    1    1    2  501    0 -0.50322935521E+02  0.31393565592E+02 -0.50507082534E+02  0.77903268135E+02  0.00000000000E+00 0. -1.
          1    1    1    2  502    0  0.12523166023E+03  0.15051418204E+02  0.55767094252E+03  0.57175728595E+03  0.00000000000E+00 0. -1.
         22    1    3    3    0    0 -0.91706340980E+02 -0.13879198147E+01 -0.10935846817E+03  0.14272790147E+03  0.00000000000E+00 0. -1.
         22    1    3    3    0    0  0.16797616272E+02 -0.45057063982E+02 -0.51903327190E+01  0.48365674614E+02  0.00000000000E+00 0. -1.
</event>
<event>
 7    1  0.4402832E-005  0.5846538E+03  0.7818608E-02  0.1110509E+00
          2   -1    0    0  502    0  0.00000000000E+00  0.00000000000E+00  0.13270168570E+04  0.13270168570E+04  0.00000000000E+00 0. -1.
          1   -1    0    0  501    0 -0.00000000000E+00 -0.00000000000E+00 -0.99537592691E+03  0.99537592691E+03  0.00000000000E+00 0. -1.
         25    2    1    2    0    0  0.42712528909E+03 -0.26026287964E+03 -0.39693157863E+02  0.51708218208E+03  0.12500262858E+03 0.  0.
          2    1    1    2  501    0  0.97758943714E+02 -0.52070550958E+02 -0.62604734028E+03  0.63576994709E+03  0.00000000000E+00 0. -1.
          1    1    1    2  502    0 -0.52488423280E+03  0.31233343060E+03  0.99738142823E+03  0.11695406547E+04  0.00000000000E+00 0. -1.
         22    1    3    3    0    0  0.29729024731E+03 -0.13585236923E+03 -0.71195933245E+02  0.33452386803E+03  0.00000000000E+00 0. -1.
         22    1    3    3    0    0  0.12983504177E+03 -0.12441051041E+03  0.31502775382E+02  0.18255831405E+03  0.00000000000E+00 0. -1.
</event>
<event>
 7    1  0.4402832E-005  0.2685800E+03  0.7818608E-02  0.1161466E+00
          2   -1    0    0  502    0  0.00000000000E+00  0.00000000000E+00  0.34830086419E+03  0.34830086419E+03  0.00000000000E+00 0. -1.
          1   -1    0    0  501    0 -0.00000000000E+00 -0.00000000000E+00 -0.17661982058E+04  0.17661982058E+04  0.00000000000E+00 0. -1.
         25    2    1    2    0    0 -0.13089141989E+03  0.31342309265E+03 -0.84845433062E+03  0.92242539937E+03  0.12500906944E+03 0.  0.
          2    1    1    2  501    0  0.15308253459E+03 -0.18554315054E+03 -0.84976949168E+03  0.88315837317E+03  0.00000000000E+00 0. -1.
          1    1    1    2  502    0 -0.22191114700E+02 -0.12787994211E+03  0.28032648074E+03  0.30891529740E+03  0.00000000000E+00 0. -1.
         22    1    3    3    0    0 -0.14002685028E+03  0.19155615872E+03 -0.50747179539E+03  0.56020434117E+03  0.00000000000E+00 0. -1.
         22    1    3    3    0    0  0.91354303864E+01  0.12186693393E+03 -0.34098253523E+03  0.36222105820E+03  0.00000000000E+00 0. -1.
</event>
<event>
 7    1  0.4402832E-005  0.6127897E+03  0.7818608E-02  0.1077985E+00
          2   -1    0    0  502    0  0.00000000000E+00  0.00000000000E+00  0.10294221973E+04  0.10294221973E+04  0.00000000000E+00 0. -1.
          1   -1    0    0  501    0 -0.00000000000E+00 -0.00000000000E+00 -0.10727377944E+04  0.10727377944E+04  0.00000000000E+00 0. -1.
         25    2    1    2    0    0 -0.56596627401E+02  0.64574936727E+03 -0.66875841651E+03  0.93971161871E+03  0.12499873245E+03 0.  0.
          2    1    1    2  501    0  0.16065023532E+03 -0.52171645677E+03  0.31459588654E+02  0.54679636529E+03  0.00000000000E+00 0. -1.
          1    1    1    2  502    0 -0.10405360792E+03 -0.12403291050E+03  0.59398323075E+03  0.61565200773E+03  0.00000000000E+00 0. -1.
         22    1    3    3    0    0 -0.31761126726E+02  0.38910938663E+03 -0.31322236708E+03  0.50052286179E+03  0.00000000000E+00 0.  1.
         22    1    3    3    0    0 -0.24835500675E+02  0.25663998064E+03 -0.35553604943E+03  0.43918875692E+03  0.00000000000E+00 0.  1.
</event>
<event>
 7    1  0.4402832E-005  0.4247368E+03  0.7818608E-02  0.1280592E+00
          2   -1    0    0  502    0  0.00000000000E+00  0.00000000000E+00  0.20698461162E+03  0.20698461162E+03  0.00000000000E+00 0. -1.
          1   -1    0    0  501    0 -0.00000000000E+00 -0.00000000000E+00 -0.23024887127E+04  0.23024887127E+04  0.00000000000E+00 0. -1.
         25    2    1    2    0    0 -0.54175775221E+02  0.42019538428E+03 -0.13714982596E+03  0.46252944422E+03  0.12499694565E+03 0.  0.
          2    1    1    2  501    0  0.77534099842E+02 -0.41783075638E+03 -0.19736763680E+04  0.20189087357E+04  0.00000000000E+00 0. -1.
          1    1    1    2  502    0 -0.23358324621E+02 -0.23646279023E+01  0.15322092821E+02  0.28035144419E+02  0.00000000000E+00 0. -1.
         22    1    3    3    0    0 -0.39396548578E+02  0.42350370715E+03 -0.12561995062E+03  0.44349503943E+03  0.00000000000E+00 0. -1.
         22    1    3    3    0    0 -0.14779226643E+02 -0.33083228681E+01 -0.11529875337E+02  0.19034404789E+02  0.00000000000E+00 0. -1.
</event>
<event>
 7    1  0.4402832E-005  0.1345919E+03  0.7818608E-02  0.1228443E+00
          2   -1    0    0  502    0  0.00000000000E+00  0.00000000000E+00  0.10750061494E+04  0.10750061494E+04  0.00000000000E+00 0. -1.
          1   -1    0    0  501    0 -0.00000000000E+00 -0.00000000000E+00 -0.86254354184E+02  0.86254354184E+02  0.00000000000E+00 0. -1.
         25    2    1    2    0    0 -0.11583507056E+03  0.12630354205E+03  0.32550943717E+03  0.38852481647E+03  0.12499916409E+03 0.  0.
          2    1    1    2  501    0 -0.19819839882E+02 -0.12269621926E+03  0.33757359952E+02  0.12878954780E+03  0.00000000000E+00 0. -1.
          1    1    1    2  502    0  0.13565491044E+03 -0.36073227989E+01  0.62948499814E+03  0.64394613935E+03  0.00000000000E+00 0. -1.
         22    1    3    3    0    0 -0.13247029344E+03  0.94698355775E+02  0.30877735571E+03  0.34908396214E+03  0.00000000000E+00 0. -1.
         22    1    3    3    0    0  0.16635222882E+02  0.31605186279E+02  0.16732081465E+02  0.39440854329E+02  0.00000000000E+00 0. -1.
</event>
<event>
 7    1  0.4402832E-005  0.5153422E+03  0.7818608E-02  0.1062156E+00
          2   -1    0    0  502    0  0.00000000000E+00  0.00000000000E+00  0.28315653804E+04  0.28315653804E+04  0.00000000000E+00 0. -1.
          1   -1    0    0  501    0 -0.00000000000E+00 -0.00000000000E+00 -0.35940099051E+03  0.35940099051E+03  0.00000000000E+00 0. -1.
         25    2    1    2    0    0 -0.60811409114E+03  0.36659372573E+03  0.11106750138E+04  0.13241669043E+04  0.12500118662E+03 0.  0.
          2    1    1    2  501    0  0.38257913108E+03 -0.28681123130E+03 -0.63551468506E+01  0.47819228542E+03  0.00000000000E+00 0. -1.
          1    1    1    2  502    0  0.22553496006E+03 -0.79782494425E+02  0.13678445229E+04  0.13886071812E+04  0.00000000000E+00 0. -1.
         22    1    3    3    0    0 -0.24216887834E+03  0.78713980850E+02  0.36439366397E+03  0.44454965837E+03  0.00000000000E+00 0. -1.
         22    1    3    3    0    0 -0.36594521280E+03  0.28787974488E+03  0.74628134980E+03  0.87961724593E+03  0.00000000000E+00 0. -1.
</event>
<event>
 7    1  0.4402832E-005  0.7136854E+03  0.7818608E-02  0.1136744E+00
          2   -1    0    0  502    0  0.00000000000E+00  0.00000000000E+00  0.68101896330E+03  0.68101896330E+03  0.00000000000E+00 0. -1.
          1   -1    0    0  501    0 -0.00000000000E+00 -0.00000000000E+00 -0.14685969237E+04  0.14685969237E+04  0.00000000000E+00 0. -1.
         25    2    1    2    0    0 -0.57650746897E+03  0.35938718085E+03 -0.42222572832E+03  0.80957976914E+03  0.12499931761E+03 0.  0.
          2    1    1    2  501    0  0.63947034599E+03 -0.37743240600E+03 -0.68710936793E+03  0.10116802005E+04  0.00000000000E+00 0. -1.
          1    1    1    2  502    0 -0.62962877018E+02  0.18045225150E+02  0.32175713585E+03  0.32835591741E+03  0.00000000000E+00 0. -1.
         22    1    3    3    0    0 -0.22287942836E+03  0.78115258931E+02 -0.11126129841E+03  0.26106763451E+03  0.00000000000E+00 0.  1.
         22    1    3    3    0    0 -0.35362804061E+03  0.28127192192E+03 -0.31096442991E+03  0.54851213463E+03  0.00000000000E+00 0.  1.
</event>
<event>
 7    1  0.4402832E-005  0.1122210E+04  0.7818608E-02  0.1126142E+00
          2   -1    0    0  502    0  0.00000000000E+00  0.00000000000E+00  0.30483769020E+04  0.30483769020E+04  0.00000000000E+00 0. -1.
          1   -1    0    0  501    0 -0.00000000000E+00 -0.00000000000E+00 -0.27793135354E+04  0.27793135354E+04  0.00000000000E+00 0. -1.
         25    2    1    2    0    0  0.44739384424E+03 -0.10286665211E+04 -0.14249254283E+04  0.18177880785E+04  0.12499983515E+03 0.  0.
          2    1    1    2  501    0 -0.40417819522E+03  0.10482110417E+04 -0.88520178833E+03  0.14302757103E+04  0.00000000000E+00 0. -1.
          1    1    1    2  502    0 -0.43215649016E+02 -0.19544520674E+02  0.25791905832E+04  0.25796266484E+04  0.00000000000E+00 0. -1.
         22    1    3    3    0    0  0.25386802049E+03 -0.43017123864E+03 -0.64719152682E+03  0.81752867764E+03  0.00000000000E+00 0. -1.
         22    1    3    3    0    0  0.19352582375E+03 -0.59849528243E+03 -0.77773390149E+03  0.10002594009E+04  0.00000000000E+00 0. -1.
</event>
<event>
 7    1  0.4402832E-005  0.2401215E+03  0.7818608E-02  0.1128976E+00
          2   -1    0    0  502    0  0.00000000000E+00  0.00000000000E+00  0.53225771812E+03  0.53225771812E+03  0.00000000000E+00 0. -1.
          1   -1    0    0  501    0 -0.00000000000E+00 -0.00000000000E+00 -0.10271543833E+04  0.10271543833E+04  0.00000000000E+00 0. -1.
         25    2    1    2    0    0 -0.35027777601E+03  0.23887197256E+03  0.37605564152E+03  0.58034080524E+03  0.12499306007E+03 0.  0.
          2    1    1    2  501    0  0.14429176918E+03 -0.18067046450E+03 -0.49798204185E+03  0.54904284478E+03  0.00000000000E+00 0. -1.
          1    1    1    2  502    0  0.20598600683E+03 -0.58201508058E+02 -0.37297026483E+03  0.43002845138E+03  0.00000000000E+00 0. -1.
         22    1    3    3    0    0 -0.27071240152E+03  0.13062677871E+03  0.30558343753E+03  0.42863713902E+03  0.00000000000E+00 0. -1.
         22    1    3    3    0    0 -0.79565374489E+02  0.10824519385E+03  0.70472203994E+02  0.15170366622E+03  0.00000000000E+00 0. -1.
</event>
<event>
 7    1  0.4402832E-005  0.7264008E+03  0.7818608E-02  0.1165330E+00
          2   -1    0    0  502    0  0.00000000000E+00  0.00000000000E+00  0.16093040098E+04  0.16093040098E+04  0.00000000000E+00 0. -1.
          1   -1    0    0  501    0 -0.00000000000E+00 -0.00000000000E+00 -0.68587503751E+03  0.68587503751E+03  0.00000000000E+00 0. -1.
         25    2    1    2    0    0 -0.61429904411E-01  0.70975496152E+03  0.36070703553E+02  0.72157981025E+03  0.12499687088E+03 0.  0.
          2    1    1    2  501    0 -0.30635080236E+02 -0.74386821381E+03  0.62119915098E+02  0.74708587961E+03  0.00000000000E+00 0. -1.
          1    1    1    2  502    0  0.30696510140E+02  0.34113252286E+02  0.82523835361E+03  0.82651335741E+03  0.00000000000E+00 0. -1.
         22    1    3    3    0    0 -0.59187687019E+02  0.47041569648E+03  0.26199388755E+02  0.47484788908E+03  0.00000000000E+00 0. -1.
         22    1    3    3    0    0  0.59126257115E+02  0.23933926504E+03  0.98713147984E+01  0.24673192118E+03  0.00000000000E+00 0. -1.
</event>
<event>
 7    1  0.4402832E-005  0.1066123E+04  0.7818608E-02  0.1133991E+00
          2   -1    0    0  502    0  0.00000000000E+00  0.00000000000E+00  0.37298204862E+04  0.37298204862E+04  0.00000000000E+00 0. -1.
          1   -1    0    0  501    0 -0.00000000000E+00 -0.00000000000E+00 -0.18842852770E+04  0.18842852770E+04  0.00000000000E+00 0. -1.
         25    2    1    2    0    0  0.10191218147E+04 -0.25778478553E+03 -0.99333294911E+03  0.14516879957E+04  0.12500168076E+03 0.  0.
          2    1    1    2  501    0 -0.10598914564E+04  0.27761872028E+03 -0.20799714110E+03  0.11152151649E+04  0.00000000000E+00 0. -1.
          1    1    1    2  502    0  0.40769641744E+02 -0.19833934753E+02  0.30468652994E+04  0.30472026026E+04  0.00000000000E+00 0. -1.
         22    1    3    3    0    0  0.69514093787E+03 -0.11514560138E+03 -0.66552921296E+03  0.96923091486E+03  0.00000000000E+00 0. -1.
         22    1    3    3    0    0  0.32398087681E+03 -0.14263918415E+03 -0.32780373615E+03  0.48245708081E+03  0.00000000000E+00 0. -1.
</event>
<event>
 7    1  0.4402832E-005  0.1357399E+03  0.7818608E-02  0.1250167E+00
          2   -1    0    0  502    0  0.00000000000E+00  0.00000000000E+00  0.66111286224E+03  0.66111286224E+03  0.00000000000E+00 0. -1.
          1   -1    0    0  501    0 -0.00000000000E+00 -0.00000000000E+00 -0.75447674887E+02  0.75447674887E+02  0.00000000000E+00 0. -1.
         25    2    1    2    0    0  0.84973812590E+02 -0.24685773888E+02  0.20560726786E+03  0.25637678266E+03  0.12499907933E+03 0.  0.
          2    1    1    2  501    0  0.82167138264E+02 -0.54886393085E+02  0.77889921420E+02  0.12582048567E+03  0.00000000000E+00 0. -1.
          1    1    1    2  502    0 -0.16714095085E+03  0.79572166973E+02  0.30216799807E+03  0.35436326879E+03  0.00000000000E+00 0. -1.
         22    1    3    3    0    0  0.32127730254E+02  0.47886225194E+02  0.11595925402E+03  0.12950610105E+03  0.00000000000E+00 0.  1.
         22    1    3    3    0    0  0.52846082336E+02 -0.72571999082E+02  0.89648013840E+02  0.12687068162E+03  0.00000000000E+00 0.  1.
</event>
<event>
 7    1  0.4402832E-005  0.9157062E+03  0.7818608E-02  0.1083805E+00
          2   -1    0    0  502    0  0.00000000000E+00  0.00000000000E+00  0.31135180030E+04  0.31135180030E+04  0.00000000000E+00 0. -1.
          1   -1    0    0  501    0 -0.00000000000E+00 -0.00000000000E+00 -0.62299584082E+03  0.62299584082E+03  0.00000000000E+00 0. -1.
         25    2    1    2    0    0  0.69592430986E+03  0.64284366568E+03 -0.60178763360E+02  0.95749924712E+03  0.12499880440E+03 0.  0.
          2    1    1    2  501    0  0.30544768427E+02 -0.95417117706E+02  0.79859077245E+03  0.80485068868E+03  0.00000000000E+00 0. -1.
          1    1    1    2  502    0 -0.72646907829E+03 -0.54742654798E+03  0.17521101531E+04  0.19741639080E+04  0.00000000000E+00 0. -1.
         22    1    3    3    0    0  0.15141103517E+03  0.19607995974E+03 -0.51895347606E+02  0.25311218715E+03  0.00000000000E+00 0. -1.
         22    1    3    3    0    0  0.54451327469E+03  0.44676370595E+03 -0.82834157539E+01  0.70438705996E+03  0.00000000000E+00 0. -1.
</event>
<event>
 7    1  0.4402832E-005  0.4318006E+03  0.7818608E-02  0.1240099E+00
          2   -1    0    0  502    0  0.00000000000E+00  0.00000000000E+00  0.19810960720E+04  0.19810960720E+04  0.00000000000E+00 0. -1.
          1   -1    0    0  501    0 -0.00000000000E+00 -0.00000000000E+00 -0.59355437535E+03  0.59355437535E+03  0.00000000000E+00 0. -1.
         25    2    1    2    0    0 -0.11389143924E+03  0.44163502373E+03  0.53799320919E+03  0.71629163215E+03  0.12499702013E+03 0.  0.
          2    1    1    2  501    0  0.12589099770E+03 -0.40942052009E+03 -0.41319336761E+03  0.59514911124E+03  0.00000000000E+00 0. -1.
          1    1    1    2  502    0 -0.11999558468E+02 -0.32214503637E+02  0.12627418550E+04  0.12632097039E+04  0.00000000000E+00 0. -1.
         22    1    3    3    0    0 -0.32074342341E+02  0.16474950124E+02  0.69988338471E+02  0.78730902066E+02  0.00000000000E+00 0. -1.
         22    1    3    3    0    0 -0.81817096896E+02  0.42516007360E+03  0.46800487072E+03  0.63756073008E+03  0.00000000000E+00 0. -1.
</event>
<event>
 7    1  0.4402832E-005  0.6921695E+03  0.7818608E-02  0.1051889E+00
          2   -1    0    0  502    0  0.00000000000E+00  0.00000000000E+00  0.27237069701E+04  0.27237069701E+04  0.00000000000E+00 0. -1.
          1   -1    0    0  501    0 -0.00000000000E+00 -0.00000000000E+00 -0.29801121163E+03  0.29801121163E+03  0.00000000000E+00 0. -1.
         25    2    1    2    0    0 -0.62067108780E+02 -0.66144916541E+03  0.46518993055E+03  0.82060638823E+03  0.12500339399E+03 0.  0.
          2    1    1    2  501    0 -0.20577888282E+03  0.32645502918E+01  0.14573714882E+03  0.25218033716E+03  0.00000000000E+00 0. -1.
          1    1    1    2  502    0  0.26784599160E+03  0.65818461512E+03  0.18147686791E+04  0.19489314563E+04  0.00000000000E+00 0. -1.
         22    1    3    3    0    0 -0.22788071832E+02 -0.16342930926E+03  0.18473417858E+03  0.24769972160E+03  0.00000000000E+00 0. -1.
         22    1    3    3    0    0 -0.39279036948E+02 -0.49801985615E+03  0.28045575197E+03  0.57290666664E+03  0.00000000000E+00 0. -1.
</event>
<event>
 7    1  0.4402832E-005  0.9347137E+03  0.7818608E-02  0.1128545E+00
          2   -1    0    0  502    0  0.00000000000E+00  0.00000000000E+00  0.90819180413E+03  0.90819180413E+03  0.00000000000E+00 0. -1.
          1   -1    0    0  501    0 -0.00000000000E+00 -0.00000000000E+00 -0.12848982957E+04  0.12848982957E+04  0.00000000000E+00 0. -1.
         25    2    1    2    0    0 -0.33612164803E+03  0.83433902575E+03 -0.44124126465E+03  0.10096637024E+04  0.12501026420E+03 0.  0.
          2    1    1    2  501    0 -0.48095963312E+01  0.55071201798E+02 -0.18968007912E+03  0.19757151085E+03  0.00000000000E+00 0. -1.
          1    1    1    2  502    0  0.34093124436E+03 -0.88941022754E+03  0.25421485223E+03  0.98585488655E+03  0.00000000000E+00 0. -1.
         22    1    3    3    0    0 -0.96499336560E+02  0.39240771515E+03 -0.16953697434E+03  0.43822222962E+03  0.00000000000E+00 0.  1.
         22    1    3    3    0    0 -0.23962231147E+03  0.44193131060E+03 -0.27170429031E+03  0.57144147278E+03  0.00000000000E+00 0.  1.
</event>
<event>
 7    1  0.4402832E-005  0.1010705E+04  0.7818608E-02  0.1136767E+00
          2   -1    0    0  502    0  0.00000000000E+00  0.00000000000E+00  0.16578146552E+04  0.16578146552E+04  0.00000000000E+00 0. -1.
          1   -1    0    0  501    0 -0.00000000000E+00 -0.00000000000E+00 -0.17498227461E+04  0.17498227461E+04  0.00000000000E+00 0. -1.
         25    2    1    2    0    0 -0.99573796524E+03  0.14011518591E+03  0.14503587235E+03  0.10236148013E+04  0.12500198583E+03 0.  0.
          2    1    1    2  501    0 -0.13591675514E+02 -0.44193782875E+02 -0.10705290210E+04  0.10715270454E+04  0.00000000000E+00 0. -1.
          1    1    1    2  502    0  0.10093296408E+04 -0.95921403038E+02  0.83348505784E+03  0.13124955546E+04  0.00000000000E+00 0. -1.
         22    1    3    3    0    0 -0.89437771707E+03  0.14140183036E+03  0.94665948368E+02  0.91042167164E+03  0.00000000000E+00 0.  1.
         22    1    3    3    0    0 -0.10136024817E+03 -0.12866444441E+01  0.50369923980E+02  0.11319312967E+03  0.00000000000E+00 0.  1.
</event>
<event>
 7    1  0.4402832E-005  0.8317920E+02  0.7818608E-02  0.1343965E+00
          2   -1    0    0  502    0  0.00000000000E+00  0.00000000000E+00  0.22520773717E+04  0.22520773717E+04  0.00000000000E+00 0. -1.
          1   -1    0    0  501    0 -0.00000000000E+00 -0.00000000000E+00 -0.19265347865E+02  0.19265347865E+02  0.00000000000E+00 0. -1.
         25    2    1    2    0    0 -0.17432874149E+02  0.97386359590E+00  0.50203662800E+03  0.51766745915E+03  0.12503587043E+03 0.  0.
          2    1    1    2  501    0  0.39241894474E+02 -0.81243077263E+02  0.18666672296E+03  0.20732783061E+03  0.00000000000E+00 0. -1.
          1    1    1    2  502    0 -0.21809020325E+02  0.80269213668E+02  0.15441086729E+04  0.15463474298E+04  0.00000000000E+00 0. -1.
         22    1    3    3    0    0  0.11463846131E+02  0.22546773472E+02  0.46600217696E+03  0.46668812465E+03  0.00000000000E+00 0. -1.
         22    1    3    3    0    0 -0.28896720280E+02 -0.21572909876E+02  0.36034451042E+02  0.50979334493E+02  0.00000000000E+00 0. -1.
</event>
<event>
 7    1  0.4402832E-005  0.2400930E+03  0.7818608E-02  0.1129614E+00
          2   -1    0    0  502    0  0.00000000000E+00  0.00000000000E+00  0.12999760371E+04  0.12999760371E+04  0.00000000000E+00 0. -1.
          1   -1    0    0  501    0 -0.00000000000E+00 -0.00000000000E+00 -0.11560534782E+04  0.11560534782E+04  0.00000000000E+00 0. -1.
         25    2    1    2    0    0  0.16045806556E+03 -0.13346552248E+03 -0.20758217743E+03  0.31981675698E+03  0.12503024099E+03 0.  0.
          2    1    1    2  501    0 -0.22145226504E+03 -0.98750652006E+02 -0.86391966141E+03  0.89730149802E+03  0.00000000000E+00 0. -1.
          1    1    1    2  502    0  0.60994199474E+02  0.23221617448E+03  0.12154243978E+04  0.12389112603E+04  0.00000000000E+00 0. -1.
         22    1    3    3    0    0 -0.57165369665E+01 -0.24167942977E+02  0.83880455867E+01  0.26213118307E+02  0.00000000000E+00 0. -1.
         22    1    3    3    0    0  0.16617460253E+03 -0.10929757950E+03 -0.21597022302E+03  0.29360363867E+03  0.00000000000E+00 0. -1.
</event>
<event>
 7    1  0.4402832E-005  0.1033202E+04  0.7818608E-02  0.1151695E+00
          2   -1    0    0  502    0  0.00000000000E+00  0.00000000000E+00  0.31092397371E+04  0.31092397371E+04  0.00000000000E+00 0. -1.
          1   -1    0    0  501    0 -0.00000000000E+00 -0.00000000000E+00 -0.12884860541E+04  0.12884860541E+04  0.00000000000E+00 0. -1.
         25    2    1    2    0    0  0.10303940249E+04 -0.22942674758E+03  0.42704420937E+03  0.11455740636E+04  0.12499879773E+03 0.  0.
          2    1    1    2  501    0 -0.34083727300E+02 -0.16410819953E+02 -0.81542699047E+03  0.81630398275E+03  0.00000000000E+00 0. -1.
          1    1    1    2  502    0 -0.99631029762E+03  0.24583756753E+03  0.22091364642E+04  0.24358477448E+04  0.00000000000E+00 0. -1.
         22    1    3    3    0    0  0.32786882775E+03 -0.61422348204E+02  0.74463219017E+02  0.34178274394E+03  0.00000000000E+00 0. -1.
         22    1    3    3    0    0  0.70252519717E+03 -0.16800439938E+03  0.35258099035E+03  0.80379131970E+03  0.00000000000E+00 0. -1.
</event>
<event>
 7    1  0.4402832E-005  0.1516046E+03  0.7818608E-02  0.1236234E+00
          2   -1    0    0  502    0  0.00000000000E+00  0.00000000000E+00  0.33907763168E+04  0.33907763168E+04  0.00000000000E+00 0. -1.
          1   -1    0    0  501    0 -0.00000000000E+00 -0.00000000000E+00 -0.38282378730E+02  0.38282378730E+02  0.00000000000E+00 0. -1.
         25    2    1    2    0    0  0.10710178379E+03 -0.23174712506E+02  0.11892756118E+04  0.12008370669E+04  0.12500128390E+03 0.  0.
          2    1    1    2  501    0 -0.10430584707E+03  0.12497971353E+03  0.18118170764E+03  0.24357021515E+03  0.00000000000E+00 0. -1.
          1    1    1    2  502    0 -0.27959367208E+01 -0.10180500102E+03  0.19820366187E+04  0.19846514136E+04  0.00000000000E+00 0. -1.
         22    1    3    3    0    0  0.10083487701E+03 -0.60496732922E+02  0.67460285103E+03  0.68477480512E+03  0.00000000000E+00 0.  1.
         22    1    3    3    0    0  0.62669067822E+01  0.37322020416E+02  0.51467276076E+03  0.51606226175E+03  0.00000000000E+00 0.  1.
</event>
<event>
 7    1  0.4402832E-005  0.2257690E+03  0.7818608E-02  0.1174749E+00
          2   -1    0    0  502    0  0.00000000000E+00  0.00000000000E+00  0.94427780604E+03  0.94427780604E+03  0.00000000000E+00 0. -1.
          1   -1    0    0  501    0 -0.00000000000E+00 -0.00000000000E+00 -0.28572881123E+03  0.28572881123E+03  0.00000000000E+00 0. -1.
         25    2    1    2    0    0 -0.14828473875E+03 -0.12668166464E+03 -0.19315507940E+03  0.30161097357E+03  0.12499474701E+03 0.  0.
          2    1    1    2  501    0 -0.81805158952E+02  0.10432532895E+03  0.23544716351E+03  0.27020589390E+03  0.00000000000E+00 0. -1.
          1    1    1    2  502    0  0.23008989770E+03  0.22356335694E+02  0.61625691069E+03  0.65818974980E+03  0.00000000000E+00 0. -1.
         22    1    3    3    0    0 -0.93331374089E+02 -0.65280524661E+02 -0.28376680247E+02  0.11737771625E+03  0.00000000000E+00 0.  1.
         22    1    3    3    0    0 -0.54953364662E+02 -0.61401139983E+02 -0.16477839915E+03  0.18423325733E+03  0.00000000000E+00 0.  1.
</event>
<event>
 7    1  0.4402832E-005  0.2166951E+03  0.7818608E-02  0.1136539E+00
          2   -1    0    0  502    0  0.00000000000E+00  0.00000000000E+00  0.40818776037E+03  0.40818776037E+03  0.00000000000E+00 0. -1.
          1   -1    0    0  501    0 -0.00000000000E+00 -0.00000000000E+00 -0.13461205406E+04  0.13461205406E+04  0.00000000000E+00 0. -1.
         25    2    1    2    0    0 -0.20641213870E+03 -0.86182154871E+02 -0.20087667659E+03  0.32559100072E+03  0.12499890291E+03 0.  0.
          2    1    1    2  501    0  0.16533911119E+03 -0.13938913349E+03 -0.10324091460E+04  0.10548151482E+04  0.00000000000E+00 0. -1.
          1    1    1    2  502    0  0.41073027509E+02  0.22557128836E+03  0.29535304230E+03  0.37390215206E+03  0.00000000000E+00 0. -1.
         22    1    3    3    0    0 -0.46817620777E+02 -0.84510463401E+02 -0.73641824680E+02  0.12147850173E+03  0.00000000000E+00 0.  1.
         22    1    3    3    0    0 -0.15959451792E+03 -0.16716914698E+01 -0.12723485191E+03  0.20411249899E+03  0.00000000000E+00 0.  1.
</event>
<event>
 7    1  0.4402832E-005  0.1972866E+03  0.7818608E-02  0.1157966E+00
          2   -1    0    0  502    0  0.00000000000E+00  0.00000000000E+00  0.12062548366E+04  0.12062548366E+04  0.00000000000E+00 0. -1.
          1   -1    0    0  501    0 -0.00000000000E+00 -0.00000000000E+00 -0.11071960425E+04  0.11071960425E+04  0.00000000000E+00 0. -1.
         25    2    1    2    0    0 -0.36156865480E+03  0.12018740292E+02  0.20326351207E+03  0.43337825871E+03  0.12499727009E+03 0.  0.
          2    1    1    2  501    0  0.18708753441E+03  0.46535892508E+02 -0.97304182248E+03  0.99195651271E+03  0.00000000000E+00 0. -1.
          1    1    1    2  502    0  0.17448112039E+03 -0.58554632800E+02  0.86883710451E+03  0.88811610759E+03  0.00000000000E+00 0. -1.
         22    1    3    3    0    0 -0.69557235424E+02 -0.96989227511E+01  0.10140488340E+03  0.12335002424E+03  0.00000000000E+00 0.  1.
         22    1    3    3    0    0 -0.29201141938E+03  0.21717663044E+02  0.10185862867E+03  0.31002823447E+03  0.00000000000E+00 0.  1.
</event>
<event>
 7    1  0.4402832E-005  0.2105292E+03  0.7818608E-02  0.1221888E+00
          2   -1    0    0  502    0  0.00000000000E+00  0.00000000000E+00  0.13701370283E+04  0.13701370283E+04  0.00000000000E+00 0. -1.
          1   -1    0    0  501    0 -0.00000000000E+00 -0.00000000000E+00 -0.89061043123E+03  0.89061043123E+03  0.00000000000E+00 0. -1.
         25    2    1    2    0    0  0.26168550013E+03  0.81543181994E+02 -0.24726522265E+03  0.38973886802E+03  0.12501081317E+03 0.  0.
          2    1    1    2  501    0 -0.17668482574E+03 -0.84904416208E+02 -0.55386426055E+03  0.58753034530E+03  0.00000000000E+00 0. -1.
          1    1    1    2  502    0 -0.85000674382E+02  0.33612342146E+01  0.12806560803E+04  0.12834782462E+04  0.00000000000E+00 0. -1.
         22    1    3    3    0    0  0.20722434934E+03  0.10853274479E+03 -0.16007106925E+03  0.28345023348E+03  0.00000000000E+00 0. -1.
         22    1    3    3    0    0  0.54461150790E+02 -0.26989562800E+02 -0.87194153400E+02  0.10628863454E+03  0.00000000000E+00 0. -1.
</event>
<event>
 7    1  0.4402832E-005  0.4281709E+03  0.7818608E-02  0.1091730E+00
          2   -1    0    0  502    0  0.00000000000E+00  0.00000000000E+00  0.25235821040E+04  0.25235821040E+04  0.00000000000E+00 0. -1.
          1   -1    0    0  501    0 -0.00000000000E+00 -0.00000000000E+00 -0.12289796575E+03  0.12289796575E+03  0.00000000000E+00 0. -1.
         25    2    1    2    0    0  0.15569332344E+03 -0.49797486541E+03  0.15735847128E+04  0.16625320649E+04  0.12499856421E+03 0.  0.
          2    1    1    2  501    0 -0.17761671711E+02  0.19205128875E+03  0.24214417905E+03  0.30956901967E+03  0.00000000000E+00 0. -1.
          1    1    1    2  502    0 -0.13793165173E+03  0.30592357666E+03  0.58495524642E+03  0.67437898516E+03  0.00000000000E+00 0. -1.
         22    1    3    3    0    0  0.20438121856E+02 -0.11541529085E+03  0.21788645258E+03  0.24741243381E+03  0.00000000000E+00 0. -1.
         22    1    3    3    0    0  0.13525520159E+03 -0.38255957456E+03  0.13556982602E+04  0.14151196311E+04  0.00000000000E+00 0. -1.
</event>
<event>
 7    1  0.4402832E-005  0.2421648E+03  0.7818608E-02  0.1128009E+00
          2   -1    0    0  502    0  0.00000000000E+00  0.00000000000E+00  0.27149330446E+03  0.27149330446E+03  0.00000000000E+00 0. -1.
          1   -1    0    0  501    0 -0.00000000000E+00 -0.00000000000E+00 -0.19270773478E+04  0.19270773478E+04  0.00000000000E+00 0. -1.
         25    2    1    2    0    0 -0.68054126528E+02 -0.14459304599E+03 -0.18316283826E+03  0.27333207607E+03  0.12499314141E+03 0.  0.
          2    1    1    2  501    0 -0.17216850444E+03  0.17520182169E+03 -0.16220715076E+04  0.16405650392E+04  0.00000000000E+00 0. -1.
          1    1    1    2  502    0  0.24022263097E+03 -0.30608775704E+02  0.14965030252E+03  0.28467353693E+03  0.00000000000E+00 0. -1.
         22    1    3    3    0    0 -0.64196116763E+02 -0.64753735325E+01 -0.63881340749E+02  0.90795911613E+02  0.00000000000E+00 0. -1.
         22    1    3    3    0    0 -0.38580097659E+01 -0.13811767246E+03 -0.11928149751E+03  0.18253616445E+03  0.00000000000E+00 0. -1.
</event>
<event>
 7    1  0.4402832E-005  0.5287816E+03  0.7818608E-02  0.1227960E+00
          2   -1    0    0  502    0  0.00000000000E+00  0.00000000000E+00  0.22460657586E+04  0.22460657586E+04  0.00000000000E+00 0. -1.
          1   -1    0    0  501    0 -0.00000000000E+00 -0.00000000000E+00 -0.15809662860E+04  0.15809662860E+04  0.00000000000E+00 0. -1.
         25    2    1    2    0    0  0.34824110802E+02  0.53021150100E+03  0.24873860307E+03  0.59986041213E+03  0.12499866760E+03 0.  0.
          2    1    1    2  501    0 -0.30727805054E+01 -0.52857075925E+03 -0.13555573920E+04  0.14549681552E+04  0.00000000000E+00 0. -1.
          1    1    1    2  502    0 -0.31751330297E+02 -0.16407417536E+01  0.17719182616E+04  0.17722034772E+04  0.00000000000E+00 0. -1.
         22    1    3    3    0    0 -0.28087039572E+02  0.77276751199E+02  0.67592727152E+01  0.82500095972E+02  0.00000000000E+00 0. -1.
         22    1    3    3    0    0  0.62911150375E+02  0.45293474980E+03  0.24197933035E+03  0.51736031616E+03  0.00000000000E+00 0. -1.
</event>
<event>
 7    1  0.4402832E-005  0.6487291E+03  0.7818608E-02  0.1203367E+00
          2   -1    0    0  502    0  0.00000000000E+00  0.00000000000E+00  0.29514213421E+04  0.29514213421E+04  0.00000000000E+00 0. -1.
          1   -1    0    0  501    0 -0.00000000000E+00 -0.00000000000E+00 -0.64971462369E+03  0.64971462369E+03  0.00000000000E+00 0. -1.
         25    2    1    2    0    0  0.49713734851E+03 -0.38175452818E+03  0.43670951803E+03  0.77409452162E+03  0.12500024875E+03 0.  0.
          2    1    1    2  501    0 -0.51153555967E+03  0.41212830173E+03 -0.25655531788E+03  0.70522265777E+03  0.00000000000E+00 0. -1.
          1    1    1    2  502    0  0.14398211160E+02 -0.30373773552E+02  0.21215525183E+04  0.21218187864E+04  0.00000000000E+00 0. -1.
         22    1    3    3    0    0  0.40967854660E+03 -0.31354824871E+03  0.41259344329E+03  0.66059243506E+03  0.00000000000E+00 0. -1.
         22    1    3    3    0    0  0.87458801910E+02 -0.68206279472E+02  0.24116074733E+02  0.11350208655E+03  0.00000000000E+00 0. -1.
</event>
<event>
 7    1  0.4402832E-005  0.4892013E+03  0.7818608E-02  0.1110106E+00
          2   -1    0    0  502    0  0.00000000000E+00  0.00000000000E+00  0.22871339969E+04  0.22871339969E+04  0.00000000000E+00 0. -1.
          1   -1    0    0  501    0 -0.00000000000E+00 -0.00000000000E+00 -0.20546419162E+03  0.20546419162E+03  0.00000000000E+00 0. -1.
         25    2    1    2    0    0 -0.55615114553E+03  0.16084560275E+03  0.86817965970E+03  0.10509688648E+04  0.12499691494E+03 0.  0.
          2    1    1    2  501    0  0.43184869979E+03 -0.11338751640E+03  0.34830806969E+03  0.56627602792E+03  0.00000000000E+00 0. -1.
          1    1    1    2  502    0  0.12430244574E+03 -0.47458086353E+02  0.86518207588E+03  0.87535329576E+03  0.00000000000E+00 0. -1.
         22    1    3    3    0    0 -0.45400934086E+03  0.11609624794E+03  0.77492801268E+03  0.90560269722E+03  0.00000000000E+00 0.  1.
         22    1    3    3    0    0 -0.10214180466E+03  0.44749354809E+02  0.93251647026E+02  0.14536616762E+03  0.00000000000E+00 0.  1.
</event>
<event>
 7    1  0.4402832E-005  0.1304774E+04  0.7818608E-02  0.1133524E+00
          2   -1    0    0  502    0  0.00000000000E+00  0.00000000000E+00  0.31071608750E+04  0.31071608750E+04  0.00000000000E+00 0. -1.
          1   -1    0    0  501    0 -0.00000000000E+00 -0.00000000000E+00 -0.25739757269E+04  0.25739757269E+04  0.00000000000E+00 0. -1.
         25    2    1    2    0    0  0.12377077328E+04  0.29306379536E+03  0.12712312112E+04  0.18026261365E+04  0.12500150311E+03 0.  0.
          2    1    1    2  501    0 -0.12721690785E+04 -0.30722394795E+03 -0.21225012013E+04  0.24935541037E+04  0.00000000000E+00 0. -1.
          1    1    1    2  502    0  0.34461345721E+02  0.14160152588E+02  0.13844551382E+04  0.13849563618E+04  0.00000000000E+00 0. -1.
         22    1    3    3    0    0  0.62334637670E+03  0.14289582450E+03  0.72702972165E+03  0.96827276022E+03  0.00000000000E+00 0.  1.
         22    1    3    3    0    0  0.61436135607E+03  0.15016797086E+03  0.54420148951E+03  0.83435337627E+03  0.00000000000E+00 0.  1.
</event>
<event>
 7    1  0.4402832E-005  0.2952998E+03  0.7818608E-02  0.1108748E+00
          2   -1    0    0  502    0  0.00000000000E+00  0.00000000000E+00  0.47504067499E+03  0.47504067499E+03  0.00000000000E+00 0. -1.
          1   -1    0    0  501    0 -0.00000000000E+00 -0.00000000000E+00 -0.88772865115E+03  0.88772865115E+03  0.00000000000E+00 0. -1.
         25    2    1    2    0    0 -0.19096209757E+03  0.22215700217E+03  0.24892480722E+03  0.40423855018E+03  0.12499995791E+03 0.  0.
          2    1    1    2  501    0  0.17611667325E+03  0.13885401112E+03 -0.52738034567E+03  0.57308598657E+03  0.00000000000E+00 0. -1.
          1    1    1    2  502    0  0.14845424322E+02 -0.36101101329E+03 -0.13423243770E+03  0.38544478939E+03  0.00000000000E+00 0. -1.
         22    1    3    3    0    0 -0.17552288420E+03  0.22568709944E+03  0.19014599760E+03  0.34336343739E+03  0.00000000000E+00 0. -1.
         22    1    3    3    0    0 -0.15439213370E+02 -0.35300972693E+01  0.58778809625E+02  0.60875112790E+02  0.00000000000E+00 0. -1.
</event>
<event>
 7    1  0.4402832E-005  0.7121916E+03  0.7818608E-02  0.1070403E+00
          2   -1    0    0  502    0  0.00000000000E+00  0.00000000000E+00  0.19404883634E+04  0.19404883634E+04  0.00000000000E+00 0. -1.
          1   -1    0    0  501    0 -0.00000000000E+00 -0.00000000000E+00 -0.20131079776E+04  0.20131079776E+04  0.00000000000E+00 0. -1.
         25    2    1    2    0    0  0.24369887433E+03  0.74957856604E+03 -0.78027276186E+03  0.11161155584E+04  0.12502475267E+03 0.  0.
          2    1    1    2  501    0 -0.12065968641E+03 -0.65621207029E+03 -0.95647634191E+03  0.11661989683E+04  0.00000000000E+00 0. -1.
          1    1    1    2  502    0 -0.12303918792E+03 -0.93366495750E+02  0.16641294897E+04  0.16712818142E+04  0.00000000000E+00 0. -1.
         22    1    3    3    0    0  0.33679008470E+01 -0.21480127751E+01  0.23647603103E+01  0.46420691855E+01  0.00000000000E+00 0. -1.
         22    1    3    3    0    0  0.24033097348E+03  0.75172657882E+03 -0.78263752217E+03  0.11114734892E+04  0.00000000000E+00 0. -1.
</event>
<event>
 7    1  0.4402832E-005  0.8821207E+03  0.7818608E-02  0.1159066E+00
          2   -1    0    0  502    0  0.00000000000E+00  0.00000000000E+00  0.45781781441E+04  0.45781781441E+04  0.00000000000E+00 0. -1.
          1   -1    0    0  501    0 -0.00000000000E+00 -0.00000000000E+00 -0.12788670702E+04  0.12788670702E+04  0.00000000000E+00 0. -1.
         25    2    1    2    0    0  0.27435212839E+03  0.81229280704E+03  0.15930755093E+04  0.18134504957E+04  0.12499770962E+03 0.  0.
          2    1    1    2  501    0  0.16216833547E+02  0.37260385560E+02 -0.10981907313E+04  0.10989423116E+04  0.00000000000E+00 0. -1.
          1    1    1    2  502    0 -0.29056896194E+03 -0.84955319260E+03  0.28044262959E+04  0.29446524070E+04  0.00000000000E+00 0. -1.
         22    1    3    3    0    0  0.20439909496E+03  0.72681117552E+03  0.13596777200E+04  0.15552353446E+04  0.00000000000E+00 0.  1.
         22    1    3    3    0    0  0.69953033438E+02  0.85481631515E+02  0.23339778929E+03  0.25821515110E+03  0.00000000000E+00 0.  1.
</event>
<event>
 7    1  0.4402832E-005  0.4615327E+03  0.7818608E-02  0.1189846E+00
          2   -1    0    0  502    0  0.00000000000E+00  0.00000000000E+00  0.52399000093E+03  0.52399000093E+03  0.00000000000E+00 0. -1.
          1   -1    0    0  501    0 -0.00000000000E+00 -0.00000000000E+00 -0.22005634257E+04  0.22005634257E+04  0.00000000000E+00 0. -1.
         25    2    1    2    0    0 -0.43763400635E+03 -0.20787312818E+03 -0.51244317901E+03  0.71621158261E+03  0.12500503354E+03 0.  0.
          2    1    1    2  501    0  0.38969438647E+03  0.23435313449E+03 -0.15516809461E+04  0.16169405880E+04  0.00000000000E+00 0. -1.
          1    1    1    2  502    0  0.47939619878E+02 -0.26480006309E+02  0.38755070036E+03  0.39140125605E+03  0.00000000000E+00 0. -1.
         22    1    3    3    0    0 -0.27581326393E+03 -0.17323166537E+03 -0.27210388944E+03  0.42440863928E+03  0.00000000000E+00 0.  1.
         22    1    3    3    0    0 -0.16182074242E+03 -0.34641462813E+02 -0.24033928957E+03  0.29180294333E+03  0.00000000000E+00 0.  1.
</event>
<event>
 7    1  0.4402832E-005  0.1520555E+03  0.7818608E-02  0.1267038E+00
          2   -1    0    0  502    0  0.00000000000E+00  0.00000000000E+00  0.94458838987E+03  0.94458838987E+03  0.00000000000E+00 0. -1.
          1   -1    0    0  501    0 -0.00000000000E+00 -0.00000000000E+00 -0.34941332153E+03  0.34941332153E+03  0.00000000000E+00 0. -1.
         25    2    1    2    0    0 -0.16061210807E+03  0.78665788091E+02 -0.94623976124E+02  0.23782695042E+03  0.12499362389E+03 0.  0.
          2    1    1    2  501    0  0.14525940172E+03 -0.55560455396E+01 -0.15243382990E+03  0.21063531500E+03  0.00000000000E+00 0. -1.
          1    1    1    2  502    0  0.15352706347E+02 -0.73109742551E+02  0.84223287436E+03  0.84553944598E+03  0.00000000000E+00 0. -1.
         22    1    3    3    0    0 -0.50305370323E+02  0.82396509185E+02 -0.82137183403E+02  0.12675303510E+03  0.00000000000E+00 0. -1.
         22    1    3    3    0    0 -0.11030673774E+03 -0.37307210939E+01 -0.12486792721E+02  0.11107391532E+03  0.00000000000E+00 0. -1.
</event>
<event>
 7    1  0.4402832E-005  0.1009555E+03  0.7818608E-02  0.1347739E+00
          2   -1    0    0  502    0  0.00000000000E+00  0.00000000000E+00  0.65292352245E+03  0.65292352245E+03  0.00000000000E+00 0. -1.
          1   -1    0    0  501    0 -0.00000000000E+00 -0.00000000000E+00 -0.56930331179E+03  0.56930331179E+03  0.00000000000E+00 0. -1.
         25    2    1    2    0    0 -0.32545734667E+02 -0.37492371238E+02 -0.56810446380E+02  0.14600388980E+03  0.12499922509E+03 0.  0.
          2    1    1    2  501    0 -0.28049439761E+02 -0.46023789784E+02 -0.46194260287E+03  0.46507626110E+03  0.00000000000E+00 0. -1.
          1    1    1    2  502    0  0.60595174429E+02  0.83516161022E+02  0.60237325990E+03  0.61114668334E+03  0.00000000000E+00 0. -1.
         22    1    3    3    0    0 -0.74064978964E+02  0.60572975313E+01 -0.30279186780E+02  0.80244259074E+02  0.00000000000E+00 0. -1.
         22    1    3    3    0    0  0.41519244297E+02 -0.43549668769E+02 -0.26531259601E+02  0.65759630724E+02  0.00000000000E+00 0. -1.
</event>
<event>
 7    1  0.4402832E-005  0.2474566E+03  0.7818608E-02  0.1147555E+00
          2   -1    0    0  502    0  0.00000000000E+00  0.00000000000E+00  0.26977851554E+03  0.26977851554E+03  0.00000000000E+00 0. -1.
          1   -1    0    0  501    0 -0.00000000000E+00 -0.00000000000E+00 -0.14477893591E+04  0.14477893591E+04  0.00000000000E+00 0. -1.
         25    2    1    2    0    0 -0.35477808148E+03 -0.20703185455E+02 -0.55699617493E+03  0.67243324365E+03  0.12500247716E+03 0.  0.
          2    1    1    2  501    0  0.20383896103E+03  0.89532206495E+02 -0.78254075598E+03  0.81359472270E+03  0.00000000000E+00 0. -1.
          1    1    1    2  502    0  0.15093912044E+03 -0.68829021040E+02  0.16152608738E+03  0.23153990827E+03  0.00000000000E+00 0. -1.
         22    1    3    3    0    0 -0.10534910150E+03 -0.56968596265E+02 -0.23262632281E+03  0.26164644124E+03  0.00000000000E+00 0.  1.
         22    1    3    3    0    0 -0.24942897997E+03  0.36265410811E+02 -0.32436985212E+03  0.41078680241E+03  0.00000000000E+00 0.  1.
</event>
<event>
 7    1  0.4402832E-005  0.2519228E+03  0.7818608E-02  0.1223650E+00
          2   -1    0    0  502    0  0.00000000000E+00  0.00000000000E+00  0.28884916912E+03  0.28884916912E+03  0.00000000000E+00 0. -1.
          1   -1    0    0  501    0 -0.00000000000E+00 -0.00000000000E+00 -0.30239054973E+04  0.30239054973E+04  0.00000000000E+00 0. -1.
         25    2    1    2    0    0 -0.55785178735E+02  0.18545438331E+03 -0.10144021447E+04  0.10402600231E+04  0.12499556006E+03 0.  0.
          2    1    1    2  501    0  0.18713701726E+02  0.67237453723E+02 -0.19367109669E+04  0.19379681233E+04  0.00000000000E+00 0. -1.
          1    1    1    2  502    0  0.37071477009E+02 -0.25269183704E+03  0.21605678341E+03  0.33452651998E+03  0.00000000000E+00 0. -1.
         22    1    3    3    0    0  0.23433058424E+00  0.12963799010E+03 -0.82326853482E+03  0.83341294915E+03  0.00000000000E+00 0.  1.
         22    1    3    3    0    0 -0.56019509319E+02  0.55816393215E+02 -0.19113360985E+03  0.20684707392E+03  0.00000000000E+00 0.  1.
</event>
<event>
 7    1  0.4402832E-005  0.2059459E+03  0.7818608E-02  0.1252135E+00
          2   -1    0    0  502    0  0.00000000000E+00  0.00000000000E+00  0.12094685131E+04  0.12094685131E+04  0.00000000000E+00 0. -1.
          1   -1    0    0  501    0 -0.00000000000E+00 -0.00000000000E+00 -0.19702114892E+03  0.19702114892E+03  0.00000000000E+00 0. -1.
         25    2    1    2    0    0 -0.12365620404E+03  0.97929583094E+02  0.26494390378E+03  0.33271644486E+03  0.12499560189E+03 0.  0.
          2    1    1    2  501    0  0.15437472160E+03 -0.15391928003E+03 -0.88542022846E+02  0.23529213595E+03  0.00000000000E+00 0. -1.
          1    1    1    2  502    0 -0.30718517556E+02  0.55989696931E+02  0.83604548325E+03  0.83848108121E+03  0.00000000000E+00 0. -1.
         22    1    3    3    0    0 -0.44241118913E+02  0.10910773350E+03  0.18635592082E+03  0.22043208328E+03  0.00000000000E+00 0. -1.
         22    1    3    3    0    0 -0.79415085127E+02 -0.11178150405E+02  0.78587982952E+02  0.11228436159E+03  0.00000000000E+00 0. -1.
</event>
<event>
 7    1  0.4402832E-005  0.7626704E+03  0.7818608E-02  0.1089127E+00
          2   -1    0    0  502    0  0.00000000000E+00  0.00000000000E+00  0.17181499490E+04  0.17181499490E+04  0.00000000000E+00 0. -1.
          1   -1    0    0  501    0 -0.00000000000E+00 -0.00000000000E+00 -0.21748988654E+04  0.21748988654E+04  0.00000000000E+00 0. -1.
         25    2    1    2    0    0  0.17402158821E+03 -0.67435034054E+03 -0.28512665772E+03  0.76285974498E+03  0.12500353845E+03 0.  0.
          2    1    1    2  501    0 -0.61517635114E+02 -0.93672552946E+02 -0.15469132124E+04  0.15509672638E+04  0.00000000000E+00 0. -1.
          1    1    1    2  502    0 -0.11250395310E+03  0.76802289348E+03  0.13752909536E+04  0.15792218057E+04  0.00000000000E+00 0. -1.
         22    1    3    3    0    0 -0.17160744858E+02 -0.23807352468E+02 -0.85490118394E+01  0.30567414006E+02  0.00000000000E+00 0. -1.
         22    1    3    3    0    0  0.19118233307E+03 -0.65054298807E+03 -0.27657764588E+03  0.73229233098E+03  0.00000000000E+00 0. -1.
</event>
<event>
 7    1  0.4402832E-005  0.1112557E+04  0.7818608E-02  0.1091135E+00
          2   -1    0    0  502    0  0.00000000000E+00  0.00000000000E+00  0.26158262098E+04  0.26158262098E+04  0.00000000000E+00 0. -1.
          1   -1    0    0  501    0 -0.00000000000E+00 -0.00000000000E+00 -0.18908075817E+04  0.18908075817E+04  0.00000000000E+00 0. -1.
         25    2    1    2    0    0  0.62648242003E+03 -0.96712537989E+03  0.10576367759E+04  0.15690865476E+04  0.12500128482E+03 0.  0.
          2    1    1    2  501    0 -0.46615629550E+02  0.58512625941E+02 -0.14109172470E+04  0.14128992258E+04  0.00000000000E+00 0. -1.
          1    1    1    2  502    0 -0.57986679048E+03  0.90861275395E+03  0.10782990993E+04  0.15246480180E+04  0.00000000000E+00 0. -1.
         22    1    3    3    0    0  0.61699964187E+02 -0.16152525918E+03  0.19488893094E+03  0.26053596745E+03  0.00000000000E+00 0.  1.
         22    1    3    3    0    0  0.56478245584E+03 -0.80560012072E+03  0.86274784495E+03  0.13085505802E+04  0.00000000000E+00 0.  1.
</event>
<event>
 7    1  0.4402832E-005  0.2501348E+03  0.7818608E-02  0.1153446E+00
          2   -1    0    0  502    0  0.00000000000E+00  0.00000000000E+00  0.90452618234E+03  0.90452618234E+03  0.00000000000E+00 0. -1.
          1   -1    0    0  501    0 -0.00000000000E+00 -0.00000000000E+00 -0.17596342427E+03  0.17596342427E+03  0.00000000000E+00 0. -1.
         25    2    1    2    0    0 -0.93291744916E+02 -0.22772475456E+03  0.27074814104E+03  0.38664095766E+03  0.12499904302E+03 0.  0.
          2    1    1    2  501    0 -0.55908008348E+02  0.26188895779E+03  0.69802267693E+02  0.27673794136E+03  0.00000000000E+00 0. -1.
          1    1    1    2  502    0  0.14919975326E+03 -0.34164203233E+02  0.38801234934E+03  0.41711070760E+03  0.00000000000E+00 0. -1.
         22    1    3    3    0    0  0.24853987134E+02 -0.16469815036E+02  0.11483605741E+02  0.31950722756E+02  0.00000000000E+00 0. -1.
         22    1    3    3    0    0 -0.11814573205E+03 -0.21125493952E+03  0.25926453530E+03  0.35469023490E+03  0.00000000000E+00 0. -1.
</event>
<event>
 7    1  0.4829290E-005  0.4689901E+03  0.7818608E-02  0.1163185E+00
          2   -1    0    0  502    0  0.00000000000E+00  0.00000000000E+00  0.26809896224E+04  0.26809896224E+04  0.00000000000E+00 0. -1.
          1   -1    0    0  501    0 -0.00000000000E+00 -0.00000000000E+00 -0.77591478582E+03  0.77591478582E+03  0.00000000000E+00 0. -1.
         25    2    1    2    0    0 -0.38153362759E+03 -0.23505191461E+03 -0.11701767440E+03  0.47972318553E+03  0.12499554820E+03 0.  0.
          2    1    1    2  501    0  0.37480834241E+03  0.30760239051E+03 -0.35376391250E+03  0.60020782232E+03  0.00000000000E+00 0. -1.
          1    1    1    2  502    0  0.67252851849E+01 -0.72550475898E+02  0.23758564235E+04  0.23769734004E+04  0.00000000000E+00 0. -1.
         22    1    3    3    0    0 -0.29116472498E+03 -0.23550986375E+03 -0.86600850214E+02  0.38437156536E+03  0.00000000000E+00 0.  1.
         22    1    3    3    0    0 -0.90368902608E+02  0.45794914097E+00 -0.30416824184E+02  0.95351620172E+02  0.00000000000E+00 0.  1.
</event>
<event>
 7    1  0.4402832E-005  0.5943888E+03  0.7818608E-02  0.1132819E+00
          2   -1    0    0  502    0  0.00000000000E+00  0.00000000000E+00  0.29854859378E+04  0.29854859378E+04  0.00000000000E+00 0. -1.
          1   -1    0    0  501    0 -0.00000000000E+00 -0.00000000000E+00 -0.25923297198E+04  0.25923297198E+04  0.00000000000E+00 0. -1.
         25    2    1    2    0    0 -0.35496188194E+03 -0.43156507087E+03 -0.20220166955E+03  0.60724833408E+03  0.12497470164E+03 0.  0.
          2    1    1    2  501    0 -0.79646214218E+02  0.21482168562E+02 -0.21547315384E+04  0.21563100440E+04  0.00000000000E+00 0. -1.
          1    1    1    2  502    0  0.43460809616E+03  0.41008290231E+03  0.27500894260E+04  0.28142572795E+04  0.00000000000E+00 0. -1.
         22    1    3    3    0    0 -0.41428720055E+02 -0.10226093135E+03 -0.17896759050E+01  0.11034871937E+03  0.00000000000E+00 0.  1.
         22    1    3    3    0    0 -0.31353316188E+03 -0.32930413952E+03 -0.20041199365E+03  0.49689961472E+03  0.00000000000E+00 0.  1.
</event>
<event>
 7    1  0.4402832E-005  0.1079588E+04  0.7818608E-02  0.1106245E+00
          2   -1    0    0  502    0  0.00000000000E+00  0.00000000000E+00  0.11013904271E+04  0.11013904271E+04  0.00000000000E+00 0. -1.
          1   -1    0    0  501    0 -0.00000000000E+00 -0.00000000000E+00 -0.24369488735E+04  0.24369488735E+04  0.00000000000E+00 0. -1.
         25    2    1    2    0    0 -0.88870416019E+03  0.60913709991E+03 -0.95329347063E+03  0.14440359030E+04  0.12501262808E+03 0.  0.
          2    1    1    2  501    0  0.92719619783E+03 -0.55883272417E+03 -0.99973894543E+03  0.14735890750E+04  0.00000000000E+00 0. -1.
          1    1    1    2  502    0 -0.38492037646E+02 -0.50304375739E+02  0.61747396964E+03  0.62071432267E+03  0.00000000000E+00 0. -1.
         22    1    3    3    0    0 -0.77236207439E+03  0.56881307387E+03 -0.87325879448E+03  0.12971786342E+04  0.00000000000E+00 0.  1.
         22    1    3    3    0    0 -0.11634208579E+03  0.40324026036E+02 -0.80034676144E+02  0.14685726876E+03  0.00000000000E+00 0.  1.
</event>
<event>
 7    1  0.4402832E-005  0.9504583E+02  0.7818608E-02  0.1352296E+00
          2   -1    0    0  502    0  0.00000000000E+00  0.00000000000E+00  0.34128756732E+04  0.34128756732E+04  0.00000000000E+00 0. -1.
          1   -1    0    0  501    0 -0.00000000000E+00 -0.00000000000E+00 -0.43634850635E+03  0.43634850635E+03  0.00000000000E+00 0. -1.
         25    2    1    2    0    0  0.26164358078E+02 -0.10672319924E+03  0.53649737182E+03  0.56172217840E+03  0.12501184282E+03 0.  0.
          2    1    1    2  501    0  0.39637835545E+02  0.38224218712E+02 -0.42115567754E+03  0.42474033671E+03  0.00000000000E+00 0. -1.
          1    1    1    2  502    0 -0.65802193623E+02  0.68498980531E+02  0.28611854726E+04  0.28627616644E+04  0.00000000000E+00 0. -1.
         22    1    3    3    0    0  0.17726182107E+02  0.25111181669E+02  0.15448324563E+03  0.15751146675E+03  0.00000000000E+00 0. -1.
         22    1    3    3    0    0  0.84381759714E+01 -0.13183438091E+03  0.38201412619E+03  0.40421071165E+03  0.00000000000E+00 0. -1.
</event>
<event>
 7    1  0.4402832E-005  0.4047368E+03  0.7818608E-02  0.1118857E+00
          2   -1    0    0  502    0  0.00000000000E+00  0.00000000000E+00  0.27805861979E+04  0.27805861979E+04  0.00000000000E+00 0. -1.
          1   -1    0    0  501    0 -0.00000000000E+00 -0.00000000000E+00 -0.20877830061E+04  0.20877830061E+04  0.00000000000E+00 0. -1.
         25    2    1    2    0    0 -0.47550215164E+03  0.26515460097E+03  0.17294928113E+04  0.18174649542E+04  0.12499686734E+03 0.  0.
          2    1    1    2  501    0  0.36320389713E+03 -0.17502794016E+03 -0.20186113753E+04  0.20584809291E+04  0.00000000000E+00 0. -1.
          1    1    1    2  502    0  0.11229825451E+03 -0.90126660815E+02  0.98192175577E+03  0.99242332067E+03  0.00000000000E+00 0. -1.
         22    1    3    3    0    0 -0.30326227086E+03  0.23453733233E+03  0.12141982977E+04  0.12732844424E+04  0.00000000000E+00 0. -1.
         22    1    3    3    0    0 -0.17223988078E+03  0.30617268644E+02  0.51529451361E+03  0.54418051181E+03  0.00000000000E+00 0. -1.
</event>
<event>
 7    1  0.4402832E-005  0.4785593E+03  0.7818608E-02  0.1071918E+00
          2   -1    0    0  502    0  0.00000000000E+00  0.00000000000E+00  0.13561603746E+04  0.13561603746E+04  0.00000000000E+00 0. -1.
          1   -1    0    0  501    0 -0.00000000000E+00 -0.00000000000E+00 -0.16080219340E+04  0.16080219340E+04  0.00000000000E+00 0. -1.
         25    2    1    2    0    0  0.58248917491E+03  0.11296701913E+03 -0.64546783204E+03  0.88561177984E+03  0.12499726434E+03 0.  0.
          2    1    1    2  501    0 -0.37901390244E+03 -0.20932618498E+03 -0.77539256005E+03  0.88808930414E+03  0.00000000000E+00 0. -1.
          1    1    1    2  502    0 -0.20347527247E+03  0.96359165853E+02  0.11689988327E+04  0.11904812246E+04  0.00000000000E+00 0. -1.
         22    1    3    3    0    0  0.18161748299E+03 -0.22979546596E+02 -0.19335267130E+03  0.26626720637E+03  0.00000000000E+00 0.  1.
         22    1    3    3    0    0  0.40087169193E+03  0.13594656572E+03 -0.45211516074E+03  0.61934457347E+03  0.00000000000E+00 0.  1.
</event>
<event>
 7    1  0.4453611E-005  0.6809160E+03  0.7818608E-02  0.1133070E+00
          2   -1    0    0  502    0  0.00000000000E+00  0.00000000000E+00  0.12867460307E+04  0.12867460307E+04  0.00000000000E+00 0. -1.
          1   -1    0    0  501    0 -0.00000000000E+00 -0.00000000000E+00 -0.11786097705E+04  0.11786097705E+04  0.00000000000E+00 0. -1.
         25    2    1    2    0    0 -0.64356388525E+03 -0.13329993759E+03 -0.43269113522E+03  0.79673735771E+03  0.12500180367E+03 0.  0.
          2    1    1    2  501    0  0.68461864292E+03  0.19219198824E+03 -0.33767480413E+03  0.78718785555E+03  0.00000000000E+00 0. -1.
          1    1    1    2  502    0 -0.41054757673E+02 -0.58892050646E+02  0.87850219957E+03  0.88143058797E+03  0.00000000000E+00 0. -1.
         22    1    3    3    0    0 -0.30319031001E+03 -0.33518848341E+02 -0.26641572585E+03  0.40500026699E+03  0.00000000000E+00 0. -1.
         22    1    3    3    0    0 -0.34037357523E+03 -0.99781089249E+02 -0.16627540937E+03  0.39173709073E+03  0.00000000000E+00 0. -1.
</event>
<event>
 7    1  0.4402832E-005  0.5029655E+03  0.7818608E-02  0.1184427E+00
          2   -1    0    0  502    0  0.00000000000E+00  0.00000000000E+00  0.20823472626E+03  0.20823472626E+03  0.00000000000E+00 0. -1.
          1   -1    0    0  501    0 -0.00000000000E+00 -0.00000000000E+00 -0.15325314855E+04  0.15325314855E+04  0.00000000000E+00 0. -1.
         25    2    1    2    0    0  0.38855503379E+03 -0.29123899414E+03 -0.40448279644E+03  0.64422898264E+03  0.12501793254E+03 0.  0.
          2    1    1    2  501    0  0.53241902491E+02 -0.37183580809E+01 -0.16589721032E+03  0.17427108412E+03  0.00000000000E+00 0. -1.
          1    1    1    2  502    0 -0.44179693628E+03  0.29495735222E+03 -0.75391675244E+03  0.92226614496E+03  0.00000000000E+00 0. -1.
         22    1    3    3    0    0  0.34614061533E+03 -0.19792435192E+03 -0.32880567878E+03  0.51681771357E+03  0.00000000000E+00 0.  1.
         22    1    3    3    0    0  0.42414418460E+02 -0.93314642224E+02 -0.75677117667E+02  0.12741126907E+03  0.00000000000E+00 0.  1.
</event>
<event>
 7    1  0.4402832E-005  0.8613018E+02  0.7818608E-02  0.1374525E+00
          2   -1    0    0  502    0  0.00000000000E+00  0.00000000000E+00  0.41125140039E+03  0.41125140039E+03  0.00000000000E+00 0. -1.
          1   -1    0    0  501    0 -0.00000000000E+00 -0.00000000000E+00 -0.19920622319E+03  0.19920622319E+03  0.00000000000E+00 0. -1.
         25    2    1    2    0    0 -0.21049447405E+02  0.33545040157E+02 -0.38921526550E+02  0.13677423676E+03  0.12499583056E+03 0.  0.
          2    1    1    2  501    0 -0.38009134639E+02  0.33188841510E+02 -0.99769083856E+02  0.11180368335E+03  0.00000000000E+00 0. -1.
          1    1    1    2  502    0  0.59058582044E+02 -0.66733881667E+02  0.35073578761E+03  0.36187970347E+03  0.00000000000E+00 0. -1.
         22    1    3    3    0    0  0.40679180360E+02 -0.17489063248E+02  0.64123784560E+01  0.44741274518E+02  0.00000000000E+00 0.  1.
         22    1    3    3    0    0 -0.61728627765E+02  0.51034103405E+02 -0.45333905006E+02  0.92032962243E+02  0.00000000000E+00 0.  1.
</event>
<event>
 7    1  0.4402832E-005  0.1607537E+03  0.7818608E-02  0.1243540E+00
          2   -1    0    0  502    0  0.00000000000E+00  0.00000000000E+00  0.18504073225E+04  0.18504073225E+04  0.00000000000E+00 0. -1.
          1   -1    0    0  501    0 -0.00000000000E+00 -0.00000000000E+00 -0.21277829648E+03  0.21277829648E+03  0.00000000000E+00 0. -1.
         25    2    1    2    0    0 -0.17809618760E+03 -0.12076692603E+03  0.93553319894E+03  0.96806816996E+03  0.12502284953E+03 0.  0.
          2    1    1    2  501    0  0.40541779982E+02  0.79429563346E+02 -0.18027856388E+03  0.20112944104E+03  0.00000000000E+00 0. -1.
          1    1    1    2  502    0  0.13755440762E+03  0.41337362681E+02  0.88237439098E+03  0.89398800801E+03  0.00000000000E+00 0. -1.
         22    1    3    3    0    0  0.42680987472E+01  0.32420573165E+01  0.20270822453E+03  0.20277907164E+03  0.00000000000E+00 0.  1.
         22    1    3    3    0    0 -0.18236428635E+03 -0.12400898334E+03  0.73282497441E+03  0.76528909832E+03  0.00000000000E+00 0.  1.
</event>
<event>
 7    1  0.4402832E-005  0.1576758E+04  0.7818608E-02  0.1077990E+00
          2   -1    0    0  502    0  0.00000000000E+00  0.00000000000E+00  0.26833208315E+04  0.26833208315E+04  0.00000000000E+00 0. -1.
          1   -1    0    0  501    0 -0.00000000000E+00 -0.00000000000E+00 -0.12495679133E+04  0.12495679133E+04  0.00000000000E+00 0. -1.
         25    2    1    2    0    0  0.10944718577E+04  0.11753304361E+04  0.75224188966E+03  0.17778533001E+04  0.12499686031E+03 0.  0.
          2    1    1    2  501    0 -0.12664541065E+02 -0.61628449799E+02 -0.30769805378E+03  0.31406456139E+03  0.00000000000E+00 0. -1.
          1    1    1    2  502    0 -0.10818073166E+04 -0.11137019863E+04  0.98920908227E+03  0.18409708832E+04  0.00000000000E+00 0. -1.
         22    1    3    3    0    0  0.74095009428E+03  0.77948747606E+03  0.43918182706E+03  0.11616748447E+04  0.00000000000E+00 0.  1.
         22    1    3    3    0    0  0.35352176339E+03  0.39584296000E+03  0.31306006260E+03  0.61617845546E+03  0.00000000000E+00 0.  1.
</event>
<event>
 7    1  0.4402832E-005  0.3063311E+03  0.7818608E-02  0.1133568E+00
          2   -1    0    0  502    0  0.00000000000E+00  0.00000000000E+00  0.22174678893E+03  0.22174678893E+03  0.00000000000E+00 0. -1.
          1   -1    0    0  501    0 -0.00000000000E+00 -0.00000000000E+00 -0.10766127339E+04  0.10766127339E+04  0.00000000000E+00 0. -1.
         25    2    1    2    0    0 -0.25764337086E+03 -0.25067147839E+03 -0.18710111825E+03  0.42408493031E+03  0.12499961214E+03 0.  0.
          2    1    1    2  501    0 -0.83794728952E+01  0.15838533958E+03 -0.54408836753E+03  0.56673475546E+03  0.00000000000E+00 0. -1.
          1    1    1    2  502    0  0.26602284375E+03  0.92286138818E+02 -0.12367645916E+03  0.30753983704E+03  0.00000000000E+00 0. -1.
         22    1    3    3    0    0 -0.11572472256E+03 -0.54113427513E+02 -0.19206392716E+02  0.12918730576E+03  0.00000000000E+00 0. -1.
         22    1    3    3    0    0 -0.14191864830E+03 -0.19655805088E+03 -0.16789472553E+03  0.29489762454E+03  0.00000000000E+00 0. -1.
</event>
<event>
 7    1  0.4402832E-005  0.1873947E+03  0.7818608E-02  0.1177491E+00
          2   -1    0    0  502    0  0.00000000000E+00  0.00000000000E+00  0.16805853797E+04  0.16805853797E+04  0.00000000000E+00 0. -1.
          1   -1    0    0  501    0 -0.00000000000E+00 -0.00000000000E+00 -0.13460705290E+03  0.13460705290E+03  0.00000000000E+00 0. -1.
         25    2    1    2    0    0  0.25032891458E+03 -0.74163534777E+02  0.29410358626E+03  0.41265801358E+03  0.12499968543E+03 0.  0.
          2    1    1    2  501    0 -0.13759196053E+03 -0.71026726336E+02  0.18968847289E+02  0.15600051482E+03  0.00000000000E+00 0. -1.
          1    1    1    2  502    0 -0.11273695405E+03  0.14519026111E+03  0.12329058933E+04  0.12465339042E+04  0.00000000000E+00 0. -1.
         22    1    3    3    0    0  0.12792867848E+03 -0.19074949065E+02  0.59504132095E+02  0.14237395196E+03  0.00000000000E+00 0.  1.
         22    1    3    3    0    0  0.12240023609E+03 -0.55088585711E+02  0.23459945416E+03  0.27028406162E+03  0.00000000000E+00 0.  1.
</event>
<event>
 7    1  0.4402832E-005  0.3407415E+03  0.7818608E-02  0.1189320E+00
          2   -1    0    0  502    0  0.00000000000E+00  0.00000000000E+00  0.16800482555E+04  0.16800482555E+04  0.00000000000E+00 0. -1.
          1   -1    0    0  501    0 -0.00000000000E+00 -0.00000000000E+00 -0.11185939676E+03  0.11185939676E+03  0.00000000000E+00 0. -1.
         25    2    1    2    0    0  0.17835172312E+03 -0.27419654497E+03  0.45308359641E+03  0.57263010264E+03  0.12500962641E+03 0.  0.
          2    1    1    2  501    0 -0.25164744773E+03  0.26023495496E+03  0.61497819542E+03  0.71361533796E+03  0.00000000000E+00 0. -1.
          1    1    1    2  502    0  0.73295724613E+02  0.13961590013E+02  0.50012706693E+03  0.50566221168E+03  0.00000000000E+00 0. -1.
         22    1    3    3    0    0  0.11134856610E+03 -0.10807782832E+03  0.29678151340E+03  0.33490086122E+03  0.00000000000E+00 0. -1.
         22    1    3    3    0    0  0.67003157020E+02 -0.16611871665E+03  0.15630208300E+03  0.23772924141E+03  0.00000000000E+00 0. -1.
</event>
<event>
 7    1  0.4402832E-005  0.1403953E+03  0.7818608E-02  0.1254816E+00
          2   -1    0    0  502    0  0.00000000000E+00  0.00000000000E+00  0.19994579845E+04  0.19994579845E+04  0.00000000000E+00 0. -1.
          1   -1    0    0  501    0 -0.00000000000E+00 -0.00000000000E+00 -0.33092874402E+03  0.33092874402E+03  0.00000000000E+00 0. -1.
         25    2    1    2    0    0 -0.59412878918E+01  0.20683416949E+03  0.97931988031E+03  0.10087163504E+04  0.12500229974E+03 0.  0.
          2    1    1    2  501    0 -0.26791216659E+02 -0.87195369818E+02 -0.30572039149E+03  0.31903880576E+03  0.00000000000E+00 0. -1.
          1    1    1    2  502    0  0.32732504551E+02 -0.11963879967E+03  0.99492975167E+03  0.10026315724E+04  0.00000000000E+00 0. -1.
         22    1    3    3    0    0  0.32633070960E+02  0.15298140942E+01  0.11963320504E+03  0.12401355329E+03  0.00000000000E+00 0.  1.
         22    1    3    3    0    0 -0.38574358852E+02  0.20530435540E+03  0.85968667528E+03  0.88470279708E+03  0.00000000000E+00 0.  1.
</event>
<event>
 7    1  0.4402832E-005  0.2811908E+03  0.7818608E-02  0.1159314E+00
          2   -1    0    0  502    0  0.00000000000E+00  0.00000000000E+00  0.32585365801E+03  0.32585365801E+03  0.00000000000E+00 0. -1.
          1   -1    0    0  501    0 -0.00000000000E+00 -0.00000000000E+00 -0.61383841249E+03  0.61383841249E+03  0.00000000000E+00 0. -1.
         25    2    1    2    0    0 -0.15165497914E+03  0.35387125180E+03 -0.28356683669E+03  0.49422631395E+03  0.12500161191E+03 0.  0.
          2    1    1    2  501    0  0.46470051436E+02 -0.11831350066E+03 -0.10865931512E+03  0.16722558680E+03  0.00000000000E+00 0. -1.
          1    1    1    2  502    0  0.10518492770E+03 -0.23555775115E+03  0.10424139734E+03  0.27824016975E+03  0.00000000000E+00 0. -1.
         22    1    3    3    0    0 -0.12886004843E+03  0.14524372571E+03 -0.15129378537E+03  0.24615129784E+03  0.00000000000E+00 0.  1.
         22    1    3    3    0    0 -0.22794930707E+02  0.20862752610E+03 -0.13227305132E+03  0.24807501611E+03  0.00000000000E+00 0.  1.
</event>
<event>
 7    1  0.4402832E-005  0.3473250E+03  0.7818608E-02  0.1242509E+00
          2   -1    0    0  502    0  0.00000000000E+00  0.00000000000E+00  0.93032263724E+03  0.93032263724E+03  0.00000000000E+00 0. -1.
          1   -1    0    0  501    0 -0.00000000000E+00 -0.00000000000E+00 -0.86016082315E+03  0.86016082315E+03  0.00000000000E+00 0. -1.
         25    2    1    2    0    0 -0.22779026402E+01  0.32353833017E+03  0.56691171751E+02  0.35145601256E+03  0.12500079951E+03 0.  0.
          2    1    1    2  501    0  0.28947833125E+02  0.30024771205E+02 -0.66881355721E+03  0.67011270562E+03  0.00000000000E+00 0. -1.
          1    1    1    2  502    0 -0.26669930484E+02 -0.35356310138E+03  0.68228419954E+03  0.76891474221E+03  0.00000000000E+00 0. -1.
         22    1    3    3    0    0  0.27257546040E+02  0.43454830016E+02  0.47125572979E+02  0.69657129545E+02  0.00000000000E+00 0. -1.
         22    1    3    3    0    0 -0.29535448680E+02  0.28008350016E+03  0.95655987729E+01  0.28179888302E+03  0.00000000000E+00 0. -1.
</event>
<event>
 7    1  0.4402832E-005  0.1960546E+04  0.7818608E-02  0.1111784E+00
          2   -1    0    0  502    0  0.00000000000E+00  0.00000000000E+00  0.24894490419E+04  0.24894490419E+04  0.00000000000E+00 0. -1.
          1   -1    0    0  501    0 -0.00000000000E+00 -0.00000000000E+00 -0.20926117386E+04  0.20926117386E+04  0.00000000000E+00 0. -1.
         25    2    1    2    0    0 -0.12303493360E+04  0.15410595851E+04 -0.48245608889E+03  0.20339648718E+04  0.12500035331E+03 0.  0.
          2    1    1    2  501    0  0.12000627584E+04 -0.15292722759E+04  0.29886684019E+03  0.19667602056E+04  0.00000000000E+00 0. -1.
          1    1    1    2  502    0  0.30286577625E+02 -0.11787309212E+02  0.58042655197E+03  0.58133570308E+03  0.00000000000E+00 0. -1.
         22    1    3    3    0    0 -0.15026989962E+03  0.21794337262E+03 -0.25759001856E+02  0.26597722192E+03  0.00000000000E+00 0.  1.
         22    1    3    3    0    0 -0.10800794364E+04  0.13231162125E+04 -0.45669708703E+03  0.17679876499E+04  0.00000000000E+00 0.  1.
</event>
<event>
 7    1  0.4402832E-005  0.3329746E+03  0.7818608E-02  0.1169363E+00
          2   -1    0    0  502    0  0.00000000000E+00  0.00000000000E+00  0.27175917853E+04  0.27175917853E+04  0.00000000000E+00 0. -1.
          1   -1    0    0  501    0 -0.00000000000E+00 -0.00000000000E+00 -0.50817138526E+03  0.50817138526E+03  0.00000000000E+00 0. -1.
         25    2    1    2    0    0 -0.12318064129E+03  0.34558110912E+03  0.19468944953E+04  0.19851003960E+04  0.12500253189E+03 0.  0.
          2    1    1    2  501    0 -0.14787902850E+02 -0.94429431920E+02 -0.45662660322E+03  0.46652272662E+03  0.00000000000E+00 0. -1.
          1    1    1    2  502    0  0.13796854414E+03 -0.25115167720E+03  0.71915250792E+03  0.77414004791E+03  0.00000000000E+00 0. -1.
         22    1    3    3    0    0 -0.14282952447E+03  0.32364585531E+03  0.18602416246E+04  0.18935801580E+04  0.00000000000E+00 0.  1.
         22    1    3    3    0    0  0.19648883177E+02  0.21935253814E+02  0.86652870736E+02  0.91520238072E+02  0.00000000000E+00 0.  1.
</event>
<event>
 7    1  0.4402832E-005  0.7987221E+03  0.7818608E-02  0.1118908E+00
          2   -1    0    0  502    0  0.00000000000E+00  0.00000000000E+00  0.15796601595E+04  0.15796601595E+04  0.00000000000E+00 0. -1.
          1   -1    0    0  501    0 -0.00000000000E+00 -0.00000000000E+00 -0.15714445732E+04  0.15714445732E+04  0.00000000000E+00 0. -1.
         25    2    1    2    0    0  0.60408329151E+02 -0.85412929735E+03  0.12133209724E+04  0.14902881660E+04  0.12500005090E+03 0.  0.
          2    1    1    2  501    0 -0.19401918571E+02  0.79383382744E+03 -0.13107092342E+04  0.15324840216E+04  0.00000000000E+00 0. -1.
          1    1    1    2  502    0 -0.41006410580E+02  0.60295469905E+02  0.10560384800E+03  0.12833254502E+03  0.00000000000E+00 0. -1.
         22    1    3    3    0    0 -0.27064427018E+02 -0.31011265839E+03  0.37920367539E+03  0.49060959177E+03  0.00000000000E+00 0.  1.
         22    1    3    3    0    0  0.87472756169E+02 -0.54401663896E+03  0.83411729705E+03  0.99967857423E+03  0.00000000000E+00 0.  1.
</event>
<event>
 7    1  0.4402832E-005  0.1678880E+03  0.7818608E-02  0.1219461E+00
          2   -1    0    0  502    0  0.00000000000E+00  0.00000000000E+00  0.56985108754E+03  0.56985108754E+03  0.00000000000E+00 0. -1.
          1   -1    0    0  501    0 -0.00000000000E+00 -0.00000000000E+00 -0.38682216912E+03  0.38682216912E+03  0.00000000000E+00 0. -1.
         25    2    1    2    0    0  0.72297265181E+02 -0.21447044948E+02  0.20215513358E+03  0.24935709122E+03  0.12500156246E+03 0.  0.
          2    1    1    2  501    0 -0.14309135633E+03  0.10488371518E+03 -0.33168742157E+03  0.37615459002E+03  0.00000000000E+00 0. -1.
          1    1    1    2  502    0  0.70794091151E+02 -0.83436670235E+02  0.31256120641E+03  0.33116157542E+03  0.00000000000E+00 0. -1.
         22    1    3    3    0    0  0.31614875177E+02 -0.24325084409E+02  0.20464557962E+03  0.20849705831E+03  0.00000000000E+00 0. -1.
         22    1    3    3    0    0  0.40682390004E+02  0.28780394618E+01 -0.24904460476E+01  0.40860032906E+02  0.00000000000E+00 0. -1.
</event>
<event>
 7    1  0.4402832E-005  0.2841958E+03  0.7818608E-02  0.1102854E+00
          2   -1    0    0  502    0  0.00000000000E+00  0.00000000000E+00  0.16858940253E+04  0.16858940253E+04  0.00000000000E+00 0. -1.
          1   -1    0    0  501    0 -0.00000000000E+00 -0.00000000000E+00 -0.98218310900E+03  0.98218310900E+03  0.00000000000E+00 0. -1.
         25    2    1    2    0    0 -0.22338524248E+03 -0.45214613983E+03  0.39041880805E+03  0.64991402615E+03  0.12499718950E+03 0.  0.
          2    1    1    2  501    0  0.14721267615E+03  0.20372522633E+03 -0.81886482071E+03  0.85657173339E+03  0.00000000000E+00 0. -1.
          1    1    1    2  502    0  0.76172566325E+02  0.24842091351E+03  0.11321569290E+04  0.11615913748E+04  0.00000000000E+00 0. -1.
         22    1    3    3    0    0 -0.41357561139E+02 -0.44878267781E+02  0.65239200542E+01  0.61376447561E+02  0.00000000000E+00 0. -1.
         22    1    3    3    0    0 -0.18202768134E+03 -0.40726787205E+03  0.38389488799E+03  0.58853757859E+03  0.00000000000E+00 0. -1.
</event>
<event>
 7    1  0.4402832E-005  0.1238713E+03  0.7818608E-02  0.1260523E+00
          2   -1    0    0  502    0  0.00000000000E+00  0.00000000000E+00  0.72554097410E+02  0.72554097410E+02  0.00000000000E+00 0. -1.
          1   -1    0    0  501    0 -0.00000000000E+00 -0.00000000000E+00 -0.15896500008E+04  0.15896500008E+04  0.00000000000E+00 0. -1.
         25    2    1    2    0    0 -0.17460332049E+03  0.60556482461E+02 -0.29878114630E+03  0.37289176244E+03  0.12499874405E+03 0.  0.
          2    1    1    2  501    0  0.96136597412E+02  0.17558994829E+02 -0.11601213299E+04  0.11642302452E+04  0.00000000000E+00 0. -1.
          1    1    1    2  502    0  0.78466723080E+02 -0.78115477290E+02 -0.58193427182E+02  0.12508209061E+03  0.00000000000E+00 0. -1.
         22    1    3    3    0    0 -0.38281463457E+02 -0.38038364523E+02 -0.58786020563E+02  0.79800901208E+02  0.00000000000E+00 0.  1.
         22    1    3    3    0    0 -0.13632185703E+03  0.98594846984E+02 -0.23999512574E+03  0.29309086123E+03  0.00000000000E+00 0.  1.
</event>
<event>
 7    1  0.4402832E-005  0.1248121E+04  0.7818608E-02  0.1108979E+00
          2   -1    0    0  502    0  0.00000000000E+00  0.00000000000E+00  0.34293864772E+04  0.34293864772E+04  0.00000000000E+00 0. -1.
          1   -1    0    0  501    0 -0.00000000000E+00 -0.00000000000E+00 -0.86928046573E+03  0.86928046573E+03  0.00000000000E+00 0. -1.
         25    2    1    2    0    0  0.67929327704E+03 -0.10597679005E+04  0.16453895509E+03  0.12756349472E+04  0.12499636685E+03 0.  0.
          2    1    1    2  501    0 -0.70104166538E+03  0.10115392810E+04  0.89550730649E+03  0.15220395755E+04  0.00000000000E+00 0. -1.
          1    1    1    2  502    0  0.21748388336E+02  0.48228619502E+02  0.15000597499E+04  0.15009924201E+04  0.00000000000E+00 0. -1.
         22    1    3    3    0    0  0.37540134789E+03 -0.63417683790E+03  0.39906538922E+02  0.73803723861E+03  0.00000000000E+00 0. -1.
         22    1    3    3    0    0  0.30389192915E+03 -0.42559106258E+03  0.12463241617E+03  0.53759770862E+03  0.00000000000E+00 0. -1.
</event>
<event>
 7    1  0.4402832E-005  0.3290941E+03  0.7818608E-02  0.1243351E+00
          2   -1    0    0  502    0  0.00000000000E+00  0.00000000000E+00  0.41435557065E+03  0.41435557065E+03  0.00000000000E+00 0. -1.
          1   -1    0    0  501    0 -0.00000000000E+00 -0.00000000000E+00 -0.87770497240E+03  0.87770497240E+03  0.00000000000E+00 0. -1.
         25    2    1    2    0    0 -0.14491411954E+03  0.30281268037E+03  0.64616037822E+02  0.36399965635E+03  0.12499958419E+03 0.  0.
          2    1    1    2  501    0  0.43309014812E+02  0.53993316926E+01 -0.59506967922E+03  0.59666803724E+03  0.00000000000E+00 0. -1.
          1    1    1    2  502    0  0.10160510472E+03 -0.30821201207E+03  0.67104239640E+02  0.33139284945E+03  0.00000000000E+00 0. -1.
         22    1    3    3    0    0 -0.33359898260E+02  0.12386935331E+03 -0.31753758265E+02  0.13215445761E+03  0.00000000000E+00 0.  1.
         22    1    3    3    0    0 -0.11155422128E+03  0.17894332706E+03  0.96369796087E+02  0.23184519875E+03  0.00000000000E+00 0.  1.
</event>
<event>
 7    1  0.4402832E-005  0.1892031E+03  0.7818608E-02  0.1231616E+00
          2   -1    0    0  502    0  0.00000000000E+00  0.00000000000E+00  0.30023400060E+04  0.30023400060E+04  0.00000000000E+00 0. -1.
          1   -1    0    0  501    0 -0.00000000000E+00 -0.00000000000E+00 -0.40975743512E+02  0.40975743512E+02  0.00000000000E+00 0. -1.
         25    2    1    2    0    0  0.16729267723E+03 -0.19559040309E+02  0.10374065402E+04  0.10583979911E+04  0.12499832805E+03 0.  0.
          2    1    1    2  501    0 -0.18985523320E+03 -0.62976362438E+02  0.31151354605E+03  0.37020497183E+03  0.00000000000E+00 0. -1.
          1    1    1    2  502    0  0.22562555965E+02  0.82535402747E+02  0.16124441762E+04  0.16147127865E+04  0.00000000000E+00 0. -1.
         22    1    3    3    0    0  0.77211746202E+02  0.36834885027E+02  0.25882585044E+03  0.27259729155E+03  0.00000000000E+00 0. -1.
         22    1    3    3    0    0  0.90080931028E+02 -0.56393925336E+02  0.77858068981E+03  0.78580069960E+03  0.00000000000E+00 0. -1.
</event>
<event>
 7    1  0.4402832E-005  0.8929736E+03  0.7818608E-02  0.1091471E+00
          2   -1    0    0  502    0  0.00000000000E+00  0.00000000000E+00  0.92961972653E+03  0.92961972653E+03  0.00000000000E+00 0. -1.
          1   -1    0    0  501    0 -0.00000000000E+00 -0.00000000000E+00 -0.16380999788E+04  0.16380999788E+04  0.00000000000E+00 0. -1.
         25    2    1    2    0    0 -0.22814327323E+02  0.92746430449E+03  0.26209634135E+03  0.97212706182E+03  0.12500401010E+03 0.  0.
          2    1    1    2  501    0  0.23273601480E+02 -0.89829999496E+02 -0.71333861623E+03  0.71934906043E+03  0.00000000000E+00 0. -1.
          1    1    1    2  502    0 -0.45927415732E+00 -0.83763430499E+03 -0.25723797736E+03  0.87624358305E+03  0.00000000000E+00 0. -1.
         22    1    3    3    0    0 -0.22851597139E+02  0.32200680940E+03  0.15171334193E+03  0.35668966751E+03  0.00000000000E+00 0.  1.
         22    1    3    3    0    0  0.37269816233E-01  0.60545749509E+03  0.11038299942E+03  0.61543739431E+03  0.00000000000E+00 0.  1.
</event>
<event>
 7    1  0.4402832E-005  0.8257668E+02  0.7818608E-02  0.1391571E+00
          2   -1    0    0  502    0  0.00000000000E+00  0.00000000000E+00  0.30731165978E+03  0.30731165978E+03  0.00000000000E+00 0. -1.
          1   -1    0    0  501    0 -0.00000000000E+00 -0.00000000000E+00 -0.86767289729E+03  0.86767289729E+03  0.00000000000E+00 0. -1.
         25    2    1    2    0    0  0.58246886276E+02 -0.33761971841E+02  0.14072357873E+03  0.19990134374E+03  0.12499940446E+03 0.  0.
          2    1    1    2  501    0 -0.82746337192E+02 -0.49689095734E+01 -0.83213345819E+03  0.83625219797E+03  0.00000000000E+00 0. -1.
          1    1    1    2  502    0  0.24499450916E+02  0.38730881414E+02  0.13104864194E+03  0.13883101535E+03  0.00000000000E+00 0. -1.
         22    1    3    3    0    0  0.36185294692E+02  0.46497422972E+01 -0.13912742462E+02  0.39045615096E+02  0.00000000000E+00 0. -1.
         22    1    3    3    0    0  0.22061591584E+02 -0.38411714138E+02  0.15463632119E+03  0.16085572865E+03  0.00000000000E+00 0. -1.
</event>
<event>
 7    1  0.4402832E-005  0.2222459E+03  0.7818608E-02  0.1139811E+00
          2   -1    0    0  502    0  0.00000000000E+00  0.00000000000E+00  0.62455314243E+03  0.62455314243E+03  0.00000000000E+00 0. -1.
          1   -1    0    0  501    0 -0.00000000000E+00 -0.00000000000E+00 -0.49115096676E+03  0.49115096676E+03  0.00000000000E+00 0. -1.
         25    2    1    2    0    0 -0.20366944302E+03 -0.86143633297E+02  0.27068901433E+03  0.37121363017E+03  0.12500019668E+03 0.  0.
          2    1    1    2  501    0  0.19927983854E+03 -0.11647704036E+03 -0.36987619004E+03  0.43599053997E+03  0.00000000000E+00 0. -1.
          1    1    1    2  502    0  0.43896044740E+01  0.20262067365E+03  0.23258935138E+03  0.30849993905E+03  0.00000000000E+00 0. -1.
         22    1    3    3    0    0 -0.81265448984E+02 -0.10137133380E+03  0.15308766039E+03  0.20078857607E+03  0.00000000000E+00 0.  1.
         22    1    3    3    0    0 -0.12240399403E+03  0.15227700507E+02  0.11760135394E+03  0.17042505410E+03  0.00000000000E+00 0.  1.
</event>
<event>
 7    1  0.4402832E-005  0.5914906E+03  0.7818608E-02  0.1167281E+00
          2   -1    0    0  502    0  0.00000000000E+00  0.00000000000E+00  0.14384733407E+04  0.14384733407E+04  0.00000000000E+00 0. -1.
          1   -1    0    0  501    0 -0.00000000000E+00 -0.00000000000E+00 -0.48223065662E+03  0.48223065662E+03  0.00000000000E+00 0. -1.
         25    2    1    2    0    0  0.29784291417E+03  0.53868824362E+03  0.35264934661E+03  0.72033473403E+03  0.12500056819E+03 0.  0.
          2    1    1    2  501    0  0.17554897316E+02 -0.52235644040E+02 -0.20113811317E+03  0.20855041956E+03  0.00000000000E+00 0. -1.
          1    1    1    2  502    0 -0.31539781148E+03 -0.48645259958E+03  0.80473145066E+03  0.99181884375E+03  0.00000000000E+00 0. -1.
         22    1    3    3    0    0  0.31124259076E+02  0.62281881257E+02 -0.13331982647E+01  0.69638564414E+02  0.00000000000E+00 0. -1.
         22    1    3    3    0    0  0.26671865509E+03  0.47640636237E+03  0.35398254488E+03  0.65069616962E+03  0.00000000000E+00 0. -1.
</event>
<event>
 7    1  0.4402832E-005  0.1472844E+04  0.7818608E-02  0.1101979E+00
          2   -1    0    0  502    0  0.00000000000E+00  0.00000000000E+00  0.17749572542E+04  0.17749572542E+04  0.00000000000E+00 0. -1.
          1   -1    0    0  501    0 -0.00000000000E+00 -0.00000000000E+00 -0.20182349656E+04  0.20182349656E+04  0.00000000000E+00 0. -1.
         25    2    1    2    0    0 -0.14882467025E+04 -0.23336404039E+03 -0.74441583227E+03  0.16849679564E+04  0.12500023930E+03 0.  0.
          2    1    1    2  501    0  0.47490016714E+02 -0.12274141167E+02 -0.39221765024E+03  0.39527286953E+03  0.00000000000E+00 0. -1.
          1    1    1    2  502    0  0.14407566858E+04  0.24563818156E+03  0.89335577117E+03  0.17129513939E+04  0.00000000000E+00 0. -1.
         22    1    3    3    0    0 -0.29678184586E+03  0.21988467139E+01 -0.13313753378E+03  0.32528434002E+03  0.00000000000E+00 0. -1.
         22    1    3    3    0    0 -0.11914648567E+04 -0.23556288710E+03 -0.61127829849E+03  0.13596836164E+04  0.00000000000E+00 0. -1.
</event>
<event>
 7    1  0.4402832E-005  0.3311510E+03  0.7818608E-02  0.1210335E+00
          2   -1    0    0  502    0  0.00000000000E+00  0.00000000000E+00  0.20181240718E+04  0.20181240718E+04  0.00000000000E+00 0. -1.
          1   -1    0    0  501    0 -0.00000000000E+00 -0.00000000000E+00 -0.11071461297E+03  0.11071461297E+03  0.00000000000E+00 0. -1.
         25    2    1    2    0    0 -0.36162441338E+03 -0.10105772364E+03  0.56728944792E+03  0.69168453428E+03  0.12500118951E+03 0.  0.
          2    1    1    2  501    0  0.50738588068E+02  0.34048057719E+02  0.13392655901E+01  0.61118476632E+02  0.00000000000E+00 0. -1.
          1    1    1    2  502    0  0.31088582531E+03  0.67009665917E+02  0.13387807453E+04  0.13760356738E+04  0.00000000000E+00 0. -1.
         22    1    3    3    0    0 -0.25909238649E+03 -0.12062161756E+03  0.36048414411E+03  0.46002962678E+03  0.00000000000E+00 0.  1.
         22    1    3    3    0    0 -0.10253202689E+03  0.19563893928E+02  0.20680530381E+03  0.23165490750E+03  0.00000000000E+00 0.  1.
</event>
<event>
 7    1  0.4402832E-005  0.7973670E+03  0.7818608E-02  0.1175357E+00
          2   -1    0    0  502    0  0.00000000000E+00  0.00000000000E+00  0.15054714111E+04  0.15054714111E+04  0.00000000000E+00 0. -1.
          1   -1    0    0  501    0 -0.00000000000E+00 -0.00000000000E+00 -0.13876441318E+04  0.13876441318E+04  0.00000000000E+00 0. -1.
         25    2    1    2    0    0  0.52920656867E+03 -0.60150219930E+03  0.33873698549E+03  0.87876792612E+03  0.12500333812E+03 0.  0.
          2    1    1    2  501    0  0.23037401158E+02  0.29309432167E+02 -0.94088365366E+03  0.94162190628E+03  0.00000000000E+00 0. -1.
          1    1    1    2  502    0 -0.55224396983E+03  0.57219276714E+03  0.71997394745E+03  0.10727257105E+04  0.00000000000E+00 0. -1.
         22    1    3    3    0    0  0.29302890468E+03 -0.27311506539E+03  0.11614646537E+03  0.41707047287E+03  0.00000000000E+00 0.  1.
         22    1    3    3    0    0  0.23617766398E+03 -0.32838713392E+03  0.22259052012E+03  0.46169745325E+03  0.00000000000E+00 0.  1.
</event>
<event>
 7    1  0.4402832E-005  0.2052652E+03  0.7818608E-02  0.1170364E+00
          2   -1    0    0  502    0  0.00000000000E+00  0.00000000000E+00  0.89482800661E+03  0.89482800661E+03  0.00000000000E+00 0. -1.
          1   -1    0    0  501    0 -0.00000000000E+00 -0.00000000000E+00 -0.12001168774E+03  0.12001168774E+03  0.00000000000E+00 0. -1.
         25    2    1    2    0    0  0.15398392795E+03  0.25589236253E+03  0.33106227252E+03  0.46305410231E+03  0.12499968847E+03 0.  0.
          2    1    1    2  501    0 -0.14707790056E+02 -0.15257495044E+03  0.18427214579E+03  0.23969075557E+03  0.00000000000E+00 0. -1.
          1    1    1    2  502    0 -0.13927613789E+03 -0.10331741208E+03  0.25948190057E+03  0.31209483647E+03  0.00000000000E+00 0. -1.
         22    1    3    3    0    0  0.11667365470E+03  0.83475318546E+02  0.11330775392E+03  0.18281005882E+03  0.00000000000E+00 0.  1.
         22    1    3    3    0    0  0.37310273253E+02  0.17241704398E+03  0.21775451860E+03  0.28024404349E+03  0.00000000000E+00 0.  1.
</event>
<event>
 7    1  0.4402832E-005  0.2447148E+03  0.7818608E-02  0.1162288E+00
          2   -1    0    0  502    0  0.00000000000E+00  0.00000000000E+00  0.39491739626E+03  0.39491739626E+03  0.00000000000E+00 0. -1.
          1   -1    0    0  501    0 -0.00000000000E+00 -0.00000000000E+00 -0.15455579872E+04  0.15455579872E+04  0.00000000000E+00 0. -1.
         25    2    1    2    0    0  0.29287076636E+03  0.70349746585E+01  0.90589483050E+02  0.33113662169E+03  0.12498892403E+03 0.  0.
          2    1    1    2  501    0 -0.89388271660E+02 -0.10916982506E+03 -0.13497621809E+04  0.13571168921E+04  0.00000000000E+00 0. -1.
          1    1    1    2  502    0 -0.20348249470E+03  0.10213485040E+03  0.10853210691E+03  0.25222186968E+03  0.00000000000E+00 0. -1.
         22    1    3    3    0    0  0.22575061026E+03 -0.31720321793E+02  0.10713047692E+03  0.25188579939E+03  0.00000000000E+00 0.  1.
         22    1    3    3    0    0  0.67120156099E+02  0.38755296451E+02 -0.16540993870E+02  0.79250822305E+02  0.00000000000E+00 0.  1.
</event>
<event>
 7    1  0.4402832E-005  0.3077621E+03  0.7818608E-02  0.1132479E+00
          2   -1    0    0  502    0  0.00000000000E+00  0.00000000000E+00  0.12007184091E+04  0.12007184091E+04  0.00000000000E+00 0. -1.
          1   -1    0    0  501    0 -0.00000000000E+00 -0.00000000000E+00 -0.22942080577E+03  0.22942080577E+03  0.00000000000E+00 0. -1.
         25    2    1    2    0    0  0.37089730076E+03 -0.31974860096E+02  0.44349798775E+02  0.39519490011E+03  0.12499962012E+03 0.  0.
          2    1    1    2  501    0 -0.88240790043E+02  0.13344676903E+03  0.32169935548E+03  0.35928394413E+03  0.00000000000E+00 0. -1.
          1    1    1    2  502    0 -0.28265651072E+03 -0.10147190893E+03  0.60524844909E+03  0.67566037066E+03  0.00000000000E+00 0. -1.
         22    1    3    3    0    0  0.23168490711E+03 -0.76777446376E+02  0.66324627288E+01  0.24416523507E+03  0.00000000000E+00 0.  1.
         22    1    3    3    0    0  0.13921239365E+03  0.44802586281E+02  0.37717336047E+02  0.15102966504E+03  0.00000000000E+00 0.  1.
</event>
<event>
 7    1  0.4402832E-005  0.2777635E+03  0.7818608E-02  0.1171309E+00
          2   -1    0    0  502    0  0.00000000000E+00  0.00000000000E+00  0.16974957396E+04  0.16974957396E+04  0.00000000000E+00 0. -1.
          1   -1    0    0  501    0 -0.00000000000E+00 -0.00000000000E+00 -0.86989840232E+03  0.86989840232E+03  0.00000000000E+00 0. -1.
         25    2    1    2    0    0 -0.12451739077E+03 -0.27195970426E+03  0.41389865067E+03  0.52574060737E+03  0.12499772746E+03 0.  0.
          2    1    1    2  501    0 -0.76390768155E+02  0.81984390505E+02 -0.79442627983E+03  0.80229053579E+03  0.00000000000E+00 0. -1.
          1    1    1    2  502    0  0.20090815892E+03  0.18997531375E+03  0.12081249664E+04  0.12393629988E+04  0.00000000000E+00 0. -1.
         22    1    3    3    0    0 -0.40971743143E+02 -0.65333642073E+02  0.20982578309E+03  0.22354871454E+03  0.00000000000E+00 0. -1.
         22    1    3    3    0    0 -0.83545647624E+02 -0.20662606218E+03  0.20407286758E+03  0.30219189283E+03  0.00000000000E+00 0. -1.
</event>
<event>
 7    1  0.4402832E-005  0.2900305E+03  0.7818608E-02  0.1123598E+00
          2   -1    0    0  502    0  0.00000000000E+00  0.00000000000E+00  0.18916325204E+04  0.18916325204E+04  0.00000000000E+00 0. -1.
          1   -1    0    0  501    0 -0.00000000000E+00 -0.00000000000E+00 -0.88453159311E+03  0.88453159311E+03  0.00000000000E+00 0. -1.
         25    2    1    2    0    0 -0.15910730282E+03 -0.26929792601E+03  0.45000381974E+03  0.56210701914E+03  0.12499742564E+03 0.  0.
          2    1    1    2  501    0 -0.11351504048E+03  0.15161277415E+03 -0.80140486710E+03  0.82348154728E+03  0.00000000000E+00 0. -1.
          1    1    1    2  502    0  0.27262234331E+03  0.11768515187E+03  0.13585019746E+04  0.13905755471E+04  0.00000000000E+00 0. -1.
         22    1    3    3    0    0 -0.12028699512E+03 -0.26211052124E+03  0.34344726499E+03  0.44847174980E+03  0.00000000000E+00 0. -1.
         22    1    3    3    0    0 -0.38820307706E+02 -0.71874047759E+01  0.10655655475E+03  0.11363526934E+03  0.00000000000E+00 0. -1.
</event>
<event>
 7    1  0.4402832E-005  0.3508686E+03  0.7818608E-02  0.1169126E+00
          2   -1    0    0  502    0  0.00000000000E+00  0.00000000000E+00  0.57657352596E+03  0.57657352596E+03  0.00000000000E+00 0. -1.
          1   -1    0    0  501    0 -0.00000000000E+00 -0.00000000000E+00 -0.63767004497E+03  0.63767004497E+03  0.00000000000E+00 0. -1.
         25    2    1    2    0    0 -0.20761535870E+03  0.34496544177E+03 -0.41605875793E+03  0.59231327808E+03  0.12499934461E+03 0.  0.
          2    1    1    2  501    0 -0.22686088837E+02 -0.88077300243E+02 -0.38382049209E+02  0.98719051587E+02  0.00000000000E+00 0. -1.
          1    1    1    2  502    0  0.23030144753E+03 -0.25688814152E+03  0.39334428813E+03  0.52321124127E+03  0.00000000000E+00 0. -1.
         22    1    3    3    0    0 -0.36062045847E+02  0.55973150773E+01 -0.14481467974E+02  0.39262119166E+02  0.00000000000E+00 0.  1.
         22    1    3    3    0    0 -0.17155331285E+03  0.33936812669E+03 -0.40157728996E+03  0.55305115891E+03  0.00000000000E+00 0.  1.
</event>
<event>
 7    1  0.4402832E-005  0.4703607E+03  0.7818608E-02  0.1227552E+00
          2   -1    0    0  502    0  0.00000000000E+00  0.00000000000E+00  0.35423872216E+03  0.35423872216E+03  0.00000000000E+00 0. -1.
          1   -1    0    0  501    0 -0.00000000000E+00 -0.00000000000E+00 -0.22889079008E+04  0.22889079008E+04  0.00000000000E+00 0. -1.
         25    2    1    2    0    0 -0.45524423251E+03 -0.82956088414E+02 -0.28098861295E+02  0.48015196171E+03  0.12500934560E+03 0.  0.
          2    1    1    2  501    0  0.45619762288E+03  0.11883728865E+03 -0.20042412921E+04  0.20589370387E+04  0.00000000000E+00 0. -1.
          1    1    1    2  502    0 -0.95339037214E+00 -0.35881200231E+02  0.97670974810E+02  0.10405762252E+03  0.00000000000E+00 0. -1.
         22    1    3    3    0    0 -0.35096814258E+03 -0.86160438415E+02 -0.69321061381E+02  0.36797780885E+03  0.00000000000E+00 0. -1.
         22    1    3    3    0    0 -0.10427608993E+03  0.32043500010E+01  0.41222200087E+02  0.11217415286E+03  0.00000000000E+00 0. -1.
</event>
<event>
 7    1  0.4402832E-005  0.1590591E+03  0.7818608E-02  0.1259965E+00
          2   -1    0    0  502    0  0.00000000000E+00  0.00000000000E+00  0.27802958914E+03  0.27802958914E+03  0.00000000000E+00 0. -1.
          1   -1    0    0  501    0 -0.00000000000E+00 -0.00000000000E+00 -0.19663837430E+04  0.19663837430E+04  0.00000000000E+00 0. -1.
         25    2    1    2    0    0 -0.11758352229E+03 -0.10394637052E+03 -0.64673580444E+02  0.21077826826E+03  0.12495628718E+03 0.  0.
          2    1    1    2  501    0  0.59341518638E+02 -0.48320067653E+02 -0.17952984571E+04  0.17969287117E+04  0.00000000000E+00 0. -1.
          1    1    1    2  502    0  0.58242003652E+02  0.15226643817E+03  0.17161788368E+03  0.23670635222E+03  0.00000000000E+00 0. -1.
         22    1    3    3    0    0 -0.49769721918E+02 -0.40795839472E+02 -0.93703008029E+02  0.11367312546E+03  0.00000000000E+00 0. -1.
         22    1    3    3    0    0 -0.67813800372E+02 -0.63150531046E+02  0.29029427585E+02  0.97105142800E+02  0.00000000000E+00 0. -1.
</event>
<event>
 7    1  0.4402832E-005  0.2878908E+03  0.7818608E-02  0.1166647E+00
          2   -1    0    0  502    0  0.00000000000E+00  0.00000000000E+00  0.36199176900E+03  0.36199176900E+03  0.00000000000E+00 0. -1.
          1   -1    0    0  501    0 -0.00000000000E+00 -0.00000000000E+00 -0.14699468515E+04  0.14699468515E+04  0.00000000000E+00 0. -1.
         25    2    1    2    0    0  0.34626505875E+03 -0.48462519037E+02  0.10450828619E+03  0.38573980213E+03  0.12500042560E+03 0.  0.
          2    1    1    2  501    0 -0.25802507032E+03  0.12071703198E+03 -0.12815689179E+04  0.13128474512E+04  0.00000000000E+00 0. -1.
          1    1    1    2  502    0 -0.88239988436E+02 -0.72254512941E+02  0.69105549211E+02  0.13335136719E+03  0.00000000000E+00 0. -1.
         22    1    3    3    0    0  0.31569365826E+03 -0.74027414379E+02  0.67194597299E+02  0.33114597665E+03  0.00000000000E+00 0.  1.
         22    1    3    3    0    0  0.30571400495E+02  0.25564895342E+02  0.37313688890E+02  0.54593825481E+02  0.00000000000E+00 0.  1.
</event>
<event>
 7    1  0.4402832E-005  0.8695847E+02  0.7818608E-02  0.1399669E+00
          2   -1    0    0  502    0  0.00000000000E+00  0.00000000000E+00  0.50213465294E+03  0.50213465294E+03  0.00000000000E+00 0. -1.
          1   -1    0    0  501    0 -0.00000000000E+00 -0.00000000000E+00 -0.14982082410E+03  0.14982082410E+03  0.00000000000E+00 0. -1.
         25    2    1    2    0    0  0.56539164741E+02  0.26679960559E+02  0.10877576664E+03  0.17710164438E+03  0.12499731033E+03 0.  0.
          2    1    1    2  501    0  0.63663820466E+01  0.40300223916E+02 -0.10592555800E+03  0.11351150914E+03  0.00000000000E+00 0. -1.
          1    1    1    2  502    0 -0.62905546787E+02 -0.66980184476E+02  0.34946362019E+03  0.36134232352E+03  0.00000000000E+00 0. -1.
         22    1    3    3    0    0  0.59045445970E+02 -0.20675801255E+02  0.47071484339E+01  0.62737633791E+02  0.00000000000E+00 0.  1.
         22    1    3    3    0    0 -0.25062812288E+01  0.47355761815E+02  0.10406861821E+03  0.11436401059E+03  0.00000000000E+00 0.  1.
</event>
<event>
 7    1  0.4402832E-005  0.5629297E+03  0.7818608E-02  0.1145936E+00
          2   -1    0    0  502    0  0.00000000000E+00  0.00000000000E+00  0.17838290875E+04  0.17838290875E+04  0.00000000000E+00 0. -1.
          1   -1    0    0  501    0 -0.00000000000E+00 -0.00000000000E+00 -0.99563177004E+03  0.99563177004E+03  0.00000000000E+00 0. -1.
         25    2    1    2    0    0  0.43337668832E+03 -0.29290324878E+03 -0.16093401337E+03  0.56136670722E+03  0.12500062477E+03 0.  0.
          2    1    1    2  501    0 -0.47023964852E+03  0.35746454379E+03 -0.49584148549E+03  0.77121009189E+03  0.00000000000E+00 0. -1.
          1    1    1    2  502    0  0.36862960200E+02 -0.64561295007E+02  0.14449728163E+04  0.14468840584E+04  0.00000000000E+00 0. -1.
         22    1    3    3    0    0  0.37337770920E+03 -0.21352260206E+03 -0.16764548045E+03  0.46163602809E+03  0.00000000000E+00 0. -1.
         22    1    3    3    0    0  0.59998979119E+02 -0.79380646722E+02  0.67114670798E+01  0.99730679130E+02  0.00000000000E+00 0. -1.
</event>
<event>
 7    1  0.5534878E-005  0.3422722E+03  0.7818608E-02  0.1200727E+00
          2   -1    0    0  502    0  0.00000000000E+00  0.00000000000E+00  0.28049541343E+04  0.28049541343E+04  0.00000000000E+00 0. -1.
          1   -1    0    0  501    0 -0.00000000000E+00 -0.00000000000E+00 -0.48048937371E+03  0.48048937371E+03  0.00000000000E+00 0. -1.
         25    2    1    2    0    0  0.26276860652E+03 -0.25531540578E+03 -0.61099587681E+02  0.39190670625E+03  0.12499763915E+03 0.  0.
          2    1    1    2  501    0 -0.62151445663E+02 -0.20853482662E+02 -0.23850935921E+03  0.24735477430E+03  0.00000000000E+00 0. -1.
          1    1    1    2  502    0 -0.20061716085E+03  0.27616888844E+03  0.26240737074E+04  0.26461820274E+04  0.00000000000E+00 0. -1.
         22    1    3    3    0    0  0.57944418610E+02 -0.10106119603E+03  0.29131459887E+02  0.12008148461E+03  0.00000000000E+00 0.  1.
         22    1    3    3    0    0  0.20482418791E+03 -0.15425420975E+03 -0.90231047568E+02  0.27182522164E+03  0.00000000000E+00 0.  1.
</event>
<event>
 7    1  0.4402832E-005  0.1873819E+03  0.7818608E-02  0.1199828E+00
          2   -1    0    0  502    0  0.00000000000E+00  0.00000000000E+00  0.37975302244E+03  0.37975302244E+03  0.00000000000E+00 0. -1.
          1   -1    0    0  501    0 -0.00000000000E+00 -0.00000000000E+00 -0.49698603872E+03  0.49698603872E+03  0.00000000000E+00 0. -1.
         25    2    1    2    0    0  0.25974841584E+02  0.66456000173E+02  0.97128637260E+02  0.17363823222E+03  0.12500068463E+03 0.  0.
          2    1    1    2  501    0  0.18727190550E+03 -0.64190725164E+01 -0.38186843809E+03  0.42536510798E+03  0.00000000000E+00 0. -1.
          1    1    1    2  502    0 -0.21324674709E+03 -0.60036927657E+02  0.16750678455E+03  0.27773572095E+03  0.00000000000E+00 0. -1.
         22    1    3    3    0    0  0.28408475295E+02  0.85043147313E+02  0.16890739901E+02  0.91239659512E+02  0.00000000000E+00 0.  1.
         22    1    3    3    0    0 -0.24336337101E+01 -0.18587147140E+02  0.80237897360E+02  0.82398572709E+02  0.00000000000E+00 0.  1.
</event>
<event>
 7    1  0.4402832E-005  0.9373834E+02  0.7818608E-02  0.1312998E+00
          2   -1    0    0  502    0  0.00000000000E+00  0.00000000000E+00  0.22530006517E+03  0.22530006517E+03  0.00000000000E+00 0. -1.
          1   -1    0    0  501    0 -0.00000000000E+00 -0.00000000000E+00 -0.45372059118E+03  0.45372059118E+03  0.00000000000E+00 0. -1.
         25    2    1    2    0    0 -0.10855422991E+03  0.12930330635E+03  0.12364091725E+03  0.24375319607E+03  0.12500071324E+03 0.  0.
          2    1    1    2  501    0  0.50344117698E+02 -0.76210005471E+02 -0.34417366644E+03  0.35608707895E+03  0.00000000000E+00 0. -1.
          1    1    1    2  502    0  0.58210112216E+02 -0.53093300884E+02 -0.78877768199E+01  0.79180381321E+02  0.00000000000E+00 0. -1.
         22    1    3    3    0    0 -0.94157544038E+02  0.48893262592E+02  0.13982651157E+02  0.10701265701E+03  0.00000000000E+00 0.  1.
         22    1    3    3    0    0 -0.14396685877E+02  0.80410043763E+02  0.10965826609E+03  0.13674053907E+03  0.00000000000E+00 0.  1.
</event>
<event>
 7    1  0.4402832E-005  0.5082797E+03  0.7818608E-02  0.1047888E+00
          2   -1    0    0  502    0  0.00000000000E+00  0.00000000000E+00  0.32677042449E+04  0.32677042449E+04  0.00000000000E+00 0. -1.
          1   -1    0    0  501    0 -0.00000000000E+00 -0.00000000000E+00 -0.23944448022E+04  0.23944448022E+04  0.00000000000E+00 0. -1.
         25    2    1    2    0    0  0.73612993243E+03 -0.87243321610E+02  0.94565244803E+03  0.12080465746E+04  0.12497719483E+03 0.  0.
          2    1    1    2  501    0 -0.27130047627E+03  0.12018038967E+03 -0.22285228065E+04  0.22481906444E+04  0.00000000000E+00 0. -1.
          1    1    1    2  502    0 -0.46482945616E+03 -0.32937068060E+02  0.21561298012E+04  0.22059118281E+04  0.00000000000E+00 0. -1.
         22    1    3    3    0    0  0.14715642589E+02  0.15240273081E+02  0.43483881047E+02  0.48370073096E+02  0.00000000000E+00 0.  1.
         22    1    3    3    0    0  0.72141428984E+03 -0.10248359469E+03  0.90216856699E+03  0.11596765015E+04  0.00000000000E+00 0.  1.
</event>
<event>
 7    1  0.4402832E-005  0.5204292E+03  0.7818608E-02  0.1128339E+00
          2   -1    0    0  502    0  0.00000000000E+00  0.00000000000E+00  0.26192541540E+04  0.26192541540E+04  0.00000000000E+00 0. -1.
          1   -1    0    0  501    0 -0.00000000000E+00 -0.00000000000E+00 -0.17522790334E+04  0.17522790334E+04  0.00000000000E+00 0. -1.
         25    2    1    2    0    0 -0.77387953224E+02 -0.54300630322E+03 -0.12590517122E+04  0.13790141658E+04  0.12499645909E+03 0.  0.
          2    1    1    2  501    0  0.11290209262E+03  0.45001853463E+03 -0.30772085673E+03  0.55673664303E+03  0.00000000000E+00 0. -1.
          1    1    1    2  502    0 -0.35514139397E+02  0.92987768588E+02  0.24337476896E+04  0.24357823786E+04  0.00000000000E+00 0. -1.
         22    1    3    3    0    0 -0.42597493277E+02 -0.40357629986E+02 -0.12741348772E+03  0.14027644701E+03  0.00000000000E+00 0. -1.
         22    1    3    3    0    0 -0.34790459948E+02 -0.50264867323E+03 -0.11316382245E+04  0.12387377188E+04  0.00000000000E+00 0. -1.
</event>
<event>
 7    1  0.4402832E-005  0.2070097E+03  0.7818608E-02  0.1218780E+00
          2   -1    0    0  502    0  0.00000000000E+00  0.00000000000E+00  0.10573886909E+04  0.10573886909E+04  0.00000000000E+00 0. -1.
          1   -1    0    0  501    0 -0.00000000000E+00 -0.00000000000E+00 -0.12243079354E+04  0.12243079354E+04  0.00000000000E+00 0. -1.
         25    2    1    2    0    0  0.18052468829E+03  0.61268909294E+02 -0.76679617384E+03  0.79996354967E+03  0.12498906454E+03 0.  0.
          2    1    1    2  501    0 -0.20044609127E+03 -0.14840170428E+03 -0.40351440934E+03  0.47436861182E+03  0.00000000000E+00 0. -1.
          1    1    1    2  502    0  0.19921402982E+02  0.87132794990E+02  0.10033913387E+04  0.10073644648E+04  0.00000000000E+00 0. -1.
         22    1    3    3    0    0 -0.83506785788E+01 -0.19412287505E+02 -0.49027640199E+02  0.53388015907E+02  0.00000000000E+00 0. -1.
         22    1    3    3    0    0  0.18887536687E+03  0.80681196800E+02 -0.71776853364E+03  0.74657553376E+03  0.00000000000E+00 0. -1.
</event>
<event>
 7    1  0.1056323E-004  0.2855015E+03  0.7818608E-02  0.1154507E+00
          2   -1    0    0  502    0  0.00000000000E+00  0.00000000000E+00  0.87486106504E+03  0.87486106504E+03  0.00000000000E+00 0. -1.
          1   -1    0    0  501    0 -0.00000000000E+00 -0.00000000000E+00 -0.21324442451E+04  0.21324442451E+04  0.00000000000E+00 0. -1.
         25    2    1    2    0    0  0.16399692821E+03  0.33323511499E+03 -0.50704730072E+03  0.64082768077E+03  0.12499006740E+03 0.  0.
          2    1    1    2  501    0  0.30931153899E+02 -0.12877538767E+03 -0.15308683385E+04  0.15365863811E+04  0.00000000000E+00 0. -1.
          1    1    1    2  502    0 -0.19492808210E+03 -0.20445972732E+03  0.78033245912E+03  0.82989124832E+03  0.00000000000E+00 0. -1.
         22    1    3    3    0    0  0.31114962490E+02  0.85970862096E+02 -0.49323645204E+02  0.10388432026E+03  0.00000000000E+00 0. -1.
         22    1    3    3    0    0  0.13288196572E+03  0.24726425290E+03 -0.45772365552E+03  0.53694336051E+03  0.00000000000E+00 0. -1.
</event>
<event>
 7    1  0.4402832E-005  0.1905637E+03  0.7818608E-02  0.1211396E+00
          2   -1    0    0  502    0  0.00000000000E+00  0.00000000000E+00  0.19226414183E+03  0.19226414183E+03  0.00000000000E+00 0. -1.
          1   -1    0    0  501    0 -0.00000000000E+00 -0.00000000000E+00 -0.13379847310E+04  0.13379847310E+04  0.00000000000E+00 0. -1.
         25    2    1    2    0    0  0.83407842958E+02  0.40980700915E+02  0.10460008024E+03  0.18762293543E+03  0.12499961200E+03 0.  0.
          2    1    1    2  501    0 -0.16047571746E+03 -0.11227753668E+03 -0.12167329399E+04  0.12323951267E+04  0.00000000000E+00 0. -1.
          1    1    1    2  502    0  0.77067874498E+02  0.71296835761E+02 -0.33587729528E+02  0.11023081077E+03  0.00000000000E+00 0. -1.
         22    1    3    3    0    0  0.84827459054E+02  0.57341292953E+02  0.12490490238E+03  0.16150837850E+03  0.00000000000E+00 0. -1.
         22    1    3    3    0    0 -0.14196160968E+01 -0.16360592038E+02 -0.20304822139E+02  0.26114556932E+02  0.00000000000E+00 0. -1.
</event>
<event>
 7    1  0.4402832E-005  0.3967058E+03  0.7818608E-02  0.1181926E+00
          2   -1    0    0  502    0  0.00000000000E+00  0.00000000000E+00  0.16079490738E+04  0.16079490738E+04  0.00000000000E+00 0. -1.
          1   -1    0    0  501    0 -0.00000000000E+00 -0.00000000000E+00 -0.74750079908E+03  0.74750079908E+03  0.00000000000E+00 0. -1.
         25    2    1    2    0    0  0.39670181893E+03  0.17092341790E+02  0.14782914653E+04  0.15357847185E+04  0.12499825594E+03 0.  0.
          2    1    1    2  501    0 -0.29229012665E+01 -0.69524343191E+02 -0.30828559407E+03  0.31604142950E+03  0.00000000000E+00 0. -1.
          1    1    1    2  502    0 -0.39377891767E+03  0.52432001401E+02 -0.30955759645E+03  0.50362372491E+03  0.00000000000E+00 0. -1.
         22    1    3    3    0    0  0.34143302274E+03  0.45023607685E+02  0.13513632906E+04  0.13945559786E+04  0.00000000000E+00 0.  1.
         22    1    3    3    0    0  0.55268796196E+02 -0.27931265895E+02  0.12692817462E+03  0.14122873985E+03  0.00000000000E+00 0.  1.
</event>
<event>
 7    1  0.4402832E-005  0.4333471E+03  0.7818608E-02  0.1206636E+00
          2   -1    0    0  502    0  0.00000000000E+00  0.00000000000E+00  0.54011958294E+03  0.54011958294E+03  0.00000000000E+00 0. -1.
          1   -1    0    0  501    0 -0.00000000000E+00 -0.00000000000E+00 -0.10633016443E+04  0.10633016443E+04  0.00000000000E+00 0. -1.
         25    2    1    2    0    0  0.37377534137E+03  0.15721765037E+03  0.26222439343E+03  0.49880992560E+03  0.12499725581E+03 0.  0.
          2    1    1    2  501    0 -0.38672991541E+03 -0.20403805159E+03 -0.88871131015E+03  0.99045411138E+03  0.00000000000E+00 0. -1.
          1    1    1    2  502    0  0.12954574044E+02  0.46820401219E+02  0.10330485534E+03  0.11415719029E+03  0.00000000000E+00 0. -1.
         22    1    3    3    0    0  0.10394218363E+02  0.41755131389E+02  0.25599564382E+02  0.50068637582E+02  0.00000000000E+00 0.  1.
         22    1    3    3    0    0  0.36338112301E+03  0.11546251898E+03  0.23662482904E+03  0.44874128801E+03  0.00000000000E+00 0.  1.
</event>
<event>
 7    1  0.4402832E-005  0.3399276E+03  0.7818608E-02  0.1139350E+00
          2   -1    0    0  502    0  0.00000000000E+00  0.00000000000E+00  0.15032236712E+04  0.15032236712E+04  0.00000000000E+00 0. -1.
          1   -1    0    0  501    0 -0.00000000000E+00 -0.00000000000E+00 -0.17573454846E+03  0.17573454846E+03  0.00000000000E+00 0. -1.
         25    2    1    2    0    0 -0.23168740523E+03  0.27844336563E+03  0.15398925347E+03  0.41297456769E+03  0.12500216707E+03 0.  0.
          2    1    1    2  501    0  0.26781147615E+03 -0.15018879353E+03  0.56476777101E+03  0.64283924556E+03  0.00000000000E+00 0. -1.
          1    1    1    2  502    0 -0.36124070925E+02 -0.12825457211E+03  0.60873209824E+03  0.62314440638E+03  0.00000000000E+00 0. -1.
         22    1    3    3    0    0 -0.88009702578E+02  0.71457488582E+02  0.10852977671E+03  0.15694136757E+03  0.00000000000E+00 0.  1.
         22    1    3    3    0    0 -0.14367770265E+03  0.20698587705E+03  0.45459476752E+02  0.25603320012E+03  0.00000000000E+00 0.  1.
</event>
<event>
 7    1  0.4402832E-005  0.5188408E+03  0.7818608E-02  0.1051445E+00
          2   -1    0    0  502    0  0.00000000000E+00  0.00000000000E+00  0.11122823386E+04  0.11122823386E+04  0.00000000000E+00 0. -1.
          1   -1    0    0  501    0 -0.00000000000E+00 -0.00000000000E+00 -0.21280985653E+04  0.21280985653E+04  0.00000000000E+00 0. -1.
         25    2    1    2    0    0  0.42911546677E+03 -0.21441107645E+03 -0.34575089832E+02  0.49692361271E+03  0.12500178599E+03 0.  0.
          2    1    1    2  501    0 -0.28763707897E+03  0.45173332071E+03 -0.18007134005E+04  0.18786609148E+04  0.00000000000E+00 0. -1.
          1    1    1    2  502    0 -0.14147838780E+03 -0.23732224425E+03  0.81947226354E+03  0.86479637634E+03  0.00000000000E+00 0. -1.
         22    1    3    3    0    0  0.21451871644E+02 -0.59444889284E+01  0.26928607401E+02  0.34938082978E+02  0.00000000000E+00 0. -1.
         22    1    3    3    0    0  0.40766359513E+03 -0.20846658753E+03 -0.61503697233E+02  0.46198552973E+03  0.00000000000E+00 0. -1.
</event>
<event>
 7    1  0.4402832E-005  0.8690979E+02  0.7818608E-02  0.1471028E+00
          2   -1    0    0  502    0  0.00000000000E+00  0.00000000000E+00  0.81956141423E+02  0.81956141423E+02  0.00000000000E+00 0. -1.
          1   -1    0    0  501    0 -0.00000000000E+00 -0.00000000000E+00 -0.26525155912E+03  0.26525155912E+03  0.00000000000E+00 0. -1.
         25    2    1    2    0    0 -0.17110310984E+02  0.75849525575E+02 -0.16292014759E+03  0.21957627957E+03  0.12499941914E+03 0.  0.
          2    1    1    2  501    0  0.32359275807E+02 -0.94197585654E+02 -0.26369616930E+02  0.10303234721E+03  0.00000000000E+00 0. -1.
          1    1    1    2  502    0 -0.15248964823E+02  0.18348060079E+02  0.59943468158E+01  0.24599073775E+02  0.00000000000E+00 0. -1.
         22    1    3    3    0    0 -0.18674099762E+02 -0.12281165253E+02 -0.11902765569E+03  0.12110793467E+03  0.00000000000E+00 0.  1.
         22    1    3    3    0    0  0.15637887781E+01  0.88130690828E+02 -0.43892491902E+02  0.98468344896E+02  0.00000000000E+00 0.  1.
</event>
<event>
 7    1  0.4402832E-005  0.3675131E+03  0.7818608E-02  0.1158951E+00
          2   -1    0    0  502    0  0.00000000000E+00  0.00000000000E+00  0.70480131490E+03  0.70480131490E+03  0.00000000000E+00 0. -1.
          1   -1    0    0  501    0 -0.00000000000E+00 -0.00000000000E+00 -0.35334085342E+03  0.35334085342E+03  0.00000000000E+00 0. -1.
         25    2    1    2    0    0  0.38156624869E+03 -0.20112807577E+03 -0.57204696528E+02  0.45270619575E+03  0.12500086946E+03 0.  0.
          2    1    1    2  501    0 -0.97654733845E+02 -0.16362855827E+01  0.96034225287E+02  0.13697334375E+03  0.00000000000E+00 0. -1.
          1    1    1    2  502    0 -0.28391151485E+03  0.20276436135E+03  0.31263093273E+03  0.46846262881E+03  0.00000000000E+00 0. -1.
         22    1    3    3    0    0  0.14679569299E+03 -0.14248777494E+03 -0.50082552943E+02  0.21061814641E+03  0.00000000000E+00 0.  1.
         22    1    3    3    0    0  0.23477055570E+03 -0.58640300827E+02 -0.71221435843E+01  0.24208804934E+03  0.00000000000E+00 0.  1.
</event>
<event>
 7    1  0.4402832E-005  0.2096671E+03  0.7818608E-02  0.1304167E+00
          2   -1    0    0  502    0  0.00000000000E+00  0.00000000000E+00  0.21874187351E+03  0.21874187351E+03  0.00000000000E+00 0. -1.
          1   -1    0    0  501    0 -0.00000000000E+00 -0.00000000000E+00 -0.96081258939E+03  0.96081258939E+03  0.00000000000E+00 0. -1.
         25    2    1    2    0    0  0.15514410332E+03 -0.98875331053E+02  0.12526419564E+02  0.22277373640E+03  0.12500081022E+03 0.  0.
          2    1    1    2  501    0 -0.19242394541E+03  0.90682020729E+02 -0.83825606364E+03  0.86482566560E+03  0.00000000000E+00 0. -1.
          1    1    1    2  502    0  0.37279842089E+02  0.81933103245E+01  0.83658928196E+02  0.91955060911E+02  0.00000000000E+00 0. -1.
         22    1    3    3    0    0  0.13920479232E+03 -0.36346017472E+02 -0.28004684359E+02  0.14657172148E+03  0.00000000000E+00 0.  1.
         22    1    3    3    0    0  0.15939310992E+02 -0.62529313582E+02  0.40531103923E+02  0.76202014915E+02  0.00000000000E+00 0.  1.
</event>
<event>
 7    1  0.4402832E-005  0.2808455E+03  0.7818608E-02  0.1166662E+00
          2   -1    0    0  502    0  0.00000000000E+00  0.00000000000E+00  0.11360399552E+04  0.11360399552E+04  0.00000000000E+00 0. -1.
          1   -1    0    0  501    0 -0.00000000000E+00 -0.00000000000E+00 -0.29458862177E+04  0.29458862177E+04  0.00000000000E+00 0. -1.
         25    2    1    2    0    0  0.23900310820E+03 -0.20804742168E+03  0.16944270653E+03  0.38045982572E+03  0.12503052746E+03 0.  0.
          2    1    1    2  501    0 -0.11073634674E+03 -0.37420672377E+02 -0.28168638552E+04  0.28192879995E+04  0.00000000000E+00 0. -1.
          1    1    1    2  502    0 -0.12826676146E+03  0.24546809405E+03  0.83757488612E+03  0.88217834770E+03  0.00000000000E+00 0. -1.
         22    1    3    3    0    0  0.10490704149E+03 -0.82943528623E+02  0.45100880315E+01  0.13381127452E+03  0.00000000000E+00 0. -1.
         22    1    3    3    0    0  0.13409606670E+03 -0.12510389305E+03  0.16493261850E+03  0.24664855120E+03  0.00000000000E+00 0. -1.
</event>
<event>
 7    1  0.4402832E-005  0.1905230E+03  0.7818608E-02  0.1319084E+00
          2   -1    0    0  502    0  0.00000000000E+00  0.00000000000E+00  0.94257845878E+03  0.94257845878E+03  0.00000000000E+00 0. -1.
          1   -1    0    0  501    0 -0.00000000000E+00 -0.00000000000E+00 -0.10310655469E+04  0.10310655469E+04  0.00000000000E+00 0. -1.
         25    2    1    2    0    0 -0.10295978262E+03  0.15670402218E+03 -0.89501645370E+03  0.92294970308E+03  0.12499933846E+03 0.  0.
          2    1    1    2  501    0  0.13951959809E+03 -0.15990692744E+03 -0.29150060429E+02  0.21420940623E+03  0.00000000000E+00 0. -1.
          1    1    1    2  502    0 -0.36559815471E+02  0.32029052568E+01  0.83567942603E+03  0.83648489634E+03  0.00000000000E+00 0. -1.
         22    1    3    3    0    0 -0.87546929276E+02  0.24095436117E+02 -0.40668084781E+03  0.41669457261E+03  0.00000000000E+00 0. -1.
         22    1    3    3    0    0 -0.15412853340E+02  0.13260858606E+03 -0.48833560589E+03  0.50625513047E+03  0.00000000000E+00 0. -1.
</event>
<event>
 7    1  0.4402832E-005  0.4125222E+03  0.7818608E-02  0.1230711E+00
          2   -1    0    0  502    0  0.00000000000E+00  0.00000000000E+00  0.79353685017E+03  0.79353685017E+03  0.00000000000E+00 0. -1.
          1   -1    0    0  501    0 -0.00000000000E+00 -0.00000000000E+00 -0.31747595460E+04  0.31747595460E+04  0.00000000000E+00 0. -1.
         25    2    1    2    0    0 -0.43866540426E+03 -0.70180487012E+02 -0.16395314122E+03  0.48975374894E+03  0.12500185773E+03 0.  0.
          2    1    1    2  501    0  0.36038696662E+02  0.16440592772E+02 -0.27823418863E+04  0.27826238432E+04  0.00000000000E+00 0. -1.
          1    1    1    2  502    0  0.40262670760E+03  0.53739894240E+02  0.56507233160E+03  0.69591880406E+03  0.00000000000E+00 0. -1.
         22    1    3    3    0    0 -0.62803159670E+02 -0.15147249589E+02  0.20080077437E+02  0.67652683203E+02  0.00000000000E+00 0.  1.
         22    1    3    3    0    0 -0.37586224459E+03 -0.55033237423E+02 -0.18403321865E+03  0.42210106574E+03  0.00000000000E+00 0.  1.
</event>
<event>
 7    1  0.4402832E-005  0.1555776E+04  0.7818608E-02  0.1138963E+00
          2   -1    0    0  502    0  0.00000000000E+00  0.00000000000E+00  0.20614960657E+04  0.20614960657E+04  0.00000000000E+00 0. -1.
          1   -1    0    0  501    0 -0.00000000000E+00 -0.00000000000E+00 -0.24906827589E+04  0.24906827589E+04  0.00000000000E+00 0. -1.
         25    2    1    2    0    0 -0.69042396034E+03 -0.13730846778E+04  0.25303518082E+03  0.15625934630E+04  0.12499900216E+03 0.  0.
          2    1    1    2  501    0  0.71438232346E+03  0.13898635202E+04 -0.15030536066E+04  0.21682326566E+04  0.00000000000E+00 0. -1.
          1    1    1    2  502    0 -0.23958363114E+02 -0.16778842472E+02  0.82083173261E+03  0.82135270498E+03  0.00000000000E+00 0. -1.
         22    1    3    3    0    0 -0.12279330965E+03 -0.27559439499E+03  0.18030263553E+01  0.30171794503E+03  0.00000000000E+00 0.  1.
         22    1    3    3    0    0 -0.56763065069E+03 -0.10974902828E+04  0.25123215447E+03  0.12608755180E+04  0.00000000000E+00 0.  1.
</event>
<event>
 7    1  0.4402832E-005  0.9533213E+02  0.7818608E-02  0.1324229E+00
          2   -1    0    0  502    0  0.00000000000E+00  0.00000000000E+00  0.22483309123E+03  0.22483309123E+03  0.00000000000E+00 0. -1.
          1   -1    0    0  501    0 -0.00000000000E+00 -0.00000000000E+00 -0.17597540679E+03  0.17597540679E+03  0.00000000000E+00 0. -1.
         25    2    1    2    0    0  0.60371377976E+02  0.26564491844E+02 -0.38181762441E+02  0.14640454371E+03  0.12500427164E+03 0.  0.
          2    1    1    2  501    0 -0.93970398406E+02 -0.88040359507E+02 -0.16046109193E+02  0.12976524303E+03  0.00000000000E+00 0. -1.
          1    1    1    2  502    0  0.33599020430E+02  0.61475867663E+02  0.10308555607E+03  0.12463871128E+03  0.00000000000E+00 0. -1.
         22    1    3    3    0    0  0.68188605246E+02 -0.25466492200E+02 -0.54928603638E+02  0.91188703292E+02  0.00000000000E+00 0. -1.
         22    1    3    3    0    0 -0.78172272700E+01  0.52030984044E+02  0.16746841197E+02  0.55215840416E+02  0.00000000000E+00 0. -1.
</event>
<event>
 7    1  0.4402832E-005  0.1151872E+03  0.7818608E-02  0.1288718E+00
          2   -1    0    0  502    0  0.00000000000E+00  0.00000000000E+00  0.11315949036E+04  0.11315949036E+04  0.00000000000E+00 0. -1.
          1   -1    0    0  501    0 -0.00000000000E+00 -0.00000000000E+00 -0.58972755703E+02  0.58972755703E+02  0.00000000000E+00 0. -1.
         25    2    1    2    0    0  0.66359958107E+02 -0.43821406550E+02  0.82158513890E+03  0.83483520877E+03  0.12499490243E+03 0.  0.
          2    1    1    2  501    0 -0.71934540135E+02 -0.89963930303E+02  0.14338962891E+03  0.18392572549E+03  0.00000000000E+00 0. -1.
          1    1    1    2  502    0  0.55745820275E+01  0.13378533685E+03  0.10764738004E+03  0.17180672499E+03  0.00000000000E+00 0. -1.
         22    1    3    3    0    0  0.70765077199E+02 -0.76141754242E+02  0.73491583142E+03  0.74223078767E+03  0.00000000000E+00 0.  1.
         22    1    3    3    0    0 -0.44051190920E+01  0.32320347693E+02  0.86669307479E+02  0.92604421104E+02  0.00000000000E+00 0.  1.
</event>
<event>
 7    1  0.4402832E-005  0.2277113E+03  0.7818608E-02  0.1182295E+00
          2   -1    0    0  502    0  0.00000000000E+00  0.00000000000E+00  0.18786122822E+04  0.18786122822E+04  0.00000000000E+00 0. -1.
          1   -1    0    0  501    0 -0.00000000000E+00 -0.00000000000E+00 -0.33776003874E+03  0.33776003874E+03  0.00000000000E+00 0. -1.
         25    2    1    2    0    0  0.10770849167E+03 -0.22667869929E+03  0.11163297349E+04  0.11510003867E+04  0.12500184533E+03 0.  0.
          2    1    1    2  501    0 -0.12051776934E+03  0.71293359579E+01 -0.29193870061E+03  0.31591702245E+03  0.00000000000E+00 0. -1.
          1    1    1    2  502    0  0.12809277674E+02  0.21954936333E+03  0.71646120916E+03  0.74945491177E+03  0.00000000000E+00 0. -1.
         22    1    3    3    0    0  0.92749555113E+02 -0.17719582004E+03  0.10383885451E+04  0.10574741648E+04  0.00000000000E+00 0. -1.
         22    1    3    3    0    0  0.14958936557E+02 -0.49482879246E+02  0.77941189793E+02  0.93526221926E+02  0.00000000000E+00 0. -1.
</event>
<event>
 7    1  0.4402832E-005  0.3847696E+03  0.7818608E-02  0.1165109E+00
          2   -1    0    0  502    0  0.00000000000E+00  0.00000000000E+00  0.14988465990E+04  0.14988465990E+04  0.00000000000E+00 0. -1.
          1   -1    0    0  501    0 -0.00000000000E+00 -0.00000000000E+00 -0.47222782107E+03  0.47222782107E+03  0.00000000000E+00 0. -1.
         25    2    1    2    0    0  0.33621714897E+03 -0.86710887059E+02  0.13619010228E+03  0.39336191368E+03  0.12500040792E+03 0.  0.
          2    1    1    2  501    0  0.20216511787E+02 -0.84471790498E+02 -0.30576392692E+03  0.31786124291E+03  0.00000000000E+00 0. -1.
          1    1    1    2  502    0 -0.35643366076E+03  0.17118267756E+03  0.11961926026E+04  0.12598512635E+04  0.00000000000E+00 0. -1.
         22    1    3    3    0    0  0.73367505158E+02  0.40352114637E+01  0.81914542302E+02  0.11004120131E+03  0.00000000000E+00 0. -1.
         22    1    3    3    0    0  0.26284964381E+03 -0.90746098523E+02  0.54275559975E+02  0.28332071238E+03  0.00000000000E+00 0. -1.
</event>
<event>
 7    1  0.4402832E-005  0.1195139E+03  0.7818608E-02  0.1326469E+00
          2   -1    0    0  502    0  0.00000000000E+00  0.00000000000E+00  0.10895183305E+03  0.10895183305E+03  0.00000000000E+00 0. -1.
          1   -1    0    0  501    0 -0.00000000000E+00 -0.00000000000E+00 -0.53087481791E+03  0.53087481791E+03  0.00000000000E+00 0. -1.
         25    2    1    2    0    0 -0.76543525208E+02  0.10281517491E+03 -0.94456827038E+02  0.20242682601E+03  0.12499862509E+03 0.  0.
          2    1    1    2  501    0 -0.28756367341E+02 -0.46631353844E+02 -0.31232333957E+03  0.31709191138E+03  0.00000000000E+00 0. -1.
          1    1    1    2  502    0  0.10529989255E+03 -0.56183821062E+02 -0.15142818255E+02  0.12030791356E+03  0.00000000000E+00 0. -1.
         22    1    3    3    0    0 -0.48498762735E+02  0.29017297100E+02  0.22905817069E+02  0.60982046321E+02  0.00000000000E+00 0. -1.
         22    1    3    3    0    0 -0.28044762473E+02  0.73797877806E+02 -0.11736264411E+03  0.14144477969E+03  0.00000000000E+00 0. -1.
</event>
<event>
 7    1  0.4402832E-005  0.7214948E+03  0.7818608E-02  0.1154494E+00
          2   -1    0    0  502    0  0.00000000000E+00  0.00000000000E+00  0.20594192022E+04  0.20594192022E+04  0.00000000000E+00 0. -1.
          1   -1    0    0  501    0 -0.00000000000E+00 -0.00000000000E+00 -0.64961977162E+03  0.64961977162E+03  0.00000000000E+00 0. -1.
         25    2    1    2    0    0  0.65797959142E+03 -0.29838818147E+03  0.15537077145E+04  0.17180235854E+04  0.12499891301E+03 0.  0.
          2    1    1    2  501    0 -0.26148633873E+02 -0.45426105086E+02 -0.25750272977E+03  0.26278306246E+03  0.00000000000E+00 0. -1.
          1    1    1    2  502    0 -0.63183095755E+03  0.34381428656E+03  0.11359444592E+03  0.72823232605E+03  0.00000000000E+00 0. -1.
         22    1    3    3    0    0  0.43472492298E+03 -0.15504722746E+03  0.10916959819E+04  0.11852533561E+04  0.00000000000E+00 0. -1.
         22    1    3    3    0    0  0.22325466844E+03 -0.14334095401E+03  0.46201173259E+03  0.53277022921E+03  0.00000000000E+00 0. -1.
</event>
<event>
 7    1  0.4402832E-005  0.6855096E+03  0.7818608E-02  0.9821676E-01
          2   -1    0    0  502    0  0.00000000000E+00  0.00000000000E+00  0.46830983591E+03  0.46830983591E+03  0.00000000000E+00 0. -1.
          1   -1    0    0  501    0 -0.00000000000E+00 -0.00000000000E+00 -0.26242602139E+04  0.26242602139E+04  0.00000000000E+00 0. -1.
         25    2    1    2    0    0  0.79659447185E+03  0.53843619871E+03 -0.10957480748E+04  0.14631355781E+04  0.12500233561E+03 0.  0.
          2    1    1    2  501    0 -0.18079859934E+03 -0.57366366463E+03 -0.66609210333E+03  0.89747246406E+03  0.00000000000E+00 0. -1.
          1    1    1    2  502    0 -0.61579587251E+03  0.35227465917E+02 -0.39411019988E+03  0.73196200762E+03  0.00000000000E+00 0. -1.
         22    1    3    3    0    0  0.49752957563E+03  0.30330651768E+03 -0.74390400652E+03  0.94494639700E+03  0.00000000000E+00 0.  1.
         22    1    3    3    0    0  0.29906489622E+03  0.23512968103E+03 -0.35184406824E+03  0.51818918110E+03  0.00000000000E+00 0.  1.
</event>
<event>
 7    1  0.4402832E-005  0.1354131E+03  0.7818608E-02  0.1276946E+00
          2   -1    0    0  502    0  0.00000000000E+00  0.00000000000E+00  0.52839325084E+03  0.52839325084E+03  0.00000000000E+00 0. -1.
          1   -1    0    0  501    0 -0.00000000000E+00 -0.00000000000E+00 -0.46588884162E+03  0.46588884162E+03  0.00000000000E+00 0. -1.
         25    2    1    2    0    0  0.11995792826E+03  0.13668642285E+03  0.46859205879E+03  0.51795441972E+03  0.12500072241E+03 0.  0.
          2    1    1    2  501    0 -0.44318112918E+02 -0.12709353119E+03 -0.36646402367E+03  0.39040074468E+03  0.00000000000E+00 0. -1.
          1    1    1    2  502    0 -0.75639815343E+02 -0.95928916578E+01 -0.39623625903E+02  0.85926928057E+02  0.00000000000E+00 0. -1.
         22    1    3    3    0    0  0.68272000602E+01 -0.18822720066E+02  0.10239098501E+03  0.10433033721E+03  0.00000000000E+00 0.  1.
         22    1    3    3    0    0  0.11313072820E+03  0.15550914292E+03  0.36620107379E+03  0.41362408251E+03  0.00000000000E+00 0.  1.
</event>
<event>
 7    1  0.4402832E-005  0.4529302E+03  0.7818608E-02  0.1083095E+00
          2   -1    0    0  502    0  0.00000000000E+00  0.00000000000E+00  0.24190805938E+04  0.24190805938E+04  0.00000000000E+00 0. -1.
          1   -1    0    0  501    0 -0.00000000000E+00 -0.00000000000E+00 -0.91486120723E+03  0.91486120723E+03  0.00000000000E+00 0. -1.
         25    2    1    2    0    0 -0.54533894368E+03 -0.10385763974E+03  0.16903621496E+04  0.17835724254E+04  0.12500170756E+03 0.  0.
          2    1    1    2  501    0  0.19691965651E+03  0.55112239862E+02 -0.80931390890E+03  0.83474769436E+03  0.00000000000E+00 0. -1.
          1    1    1    2  502    0  0.34841928717E+03  0.48745399880E+02  0.62317114583E+03  0.71562168126E+03  0.00000000000E+00 0. -1.
         22    1    3    3    0    0 -0.30274842508E+03 -0.10685653272E+02  0.10397284469E+04  0.10829616961E+04  0.00000000000E+00 0.  1.
         22    1    3    3    0    0 -0.24259051860E+03 -0.93171986470E+02  0.65063370274E+03  0.70061072923E+03  0.00000000000E+00 0.  1.
</event>
<event>
 7    1  0.4402832E-005  0.3353371E+03  0.7818608E-02  0.1158902E+00
          2   -1    0    0  502    0  0.00000000000E+00  0.00000000000E+00  0.99135373535E+03  0.99135373535E+03  0.00000000000E+00 0. -1.
          1   -1    0    0  501    0 -0.00000000000E+00 -0.00000000000E+00 -0.26046981235E+04  0.26046981235E+04  0.00000000000E+00 0. -1.
         25    2    1    2    0    0 -0.22961058265E+03  0.16610623241E+03  0.70558910761E+02  0.31767114950E+03  0.12499639685E+03 0.  0.
          2    1    1    2  501    0  0.32082093489E+03 -0.10997132786E+03 -0.24658854602E+04  0.24890984046E+04  0.00000000000E+00 0. -1.
          1    1    1    2  502    0 -0.91210352235E+02 -0.56134904548E+02  0.78198216131E+03  0.78928230467E+03  0.00000000000E+00 0. -1.
         22    1    3    3    0    0 -0.20748964820E+03  0.14533044152E+03  0.10280596726E+03  0.27338975520E+03  0.00000000000E+00 0. -1.
         22    1    3    3    0    0 -0.22120934447E+02  0.20775790892E+02 -0.32247056503E+02  0.44281394300E+02  0.00000000000E+00 0. -1.
</event>
<event>
 7    1  0.4833787E-005  0.8354838E+02  0.7818608E-02  0.1319476E+00
          2   -1    0    0  502    0  0.00000000000E+00  0.00000000000E+00  0.12131874726E+04  0.12131874726E+04  0.00000000000E+00 0. -1.
          1   -1    0    0  501    0 -0.00000000000E+00 -0.00000000000E+00 -0.58630364218E+03  0.58630364218E+03  0.00000000000E+00 0. -1.
         25    2    1    2    0    0 -0.87526427655E+01 -0.32111205639E+01 -0.23333033038E+02  0.12750250059E+03  0.12500214869E+03 0.  0.
          2    1    1    2  501    0 -0.37256784975E+02  0.74781437526E+02 -0.50589629422E+03  0.51274885854E+03  0.00000000000E+00 0. -1.
          1    1    1    2  502    0  0.46009427741E+02 -0.71570316962E+02  0.11561131576E+04  0.11592397556E+04  0.00000000000E+00 0. -1.
         22    1    3    3    0    0 -0.50880104230E+02 -0.27716672948E+02  0.20991007503E+02  0.61624843706E+02  0.00000000000E+00 0.  1.
         22    1    3    3    0    0  0.42127461465E+02  0.24505552384E+02 -0.44324040540E+02  0.65877656887E+02  0.00000000000E+00 0.  1.
</event>
<event>
 7    1  0.4402832E-005  0.3082912E+03  0.7818608E-02  0.1131188E+00
          2   -1    0    0  502    0  0.00000000000E+00  0.00000000000E+00  0.19724741057E+04  0.19724741057E+04  0.00000000000E+00 0. -1.
          1   -1    0    0  501    0 -0.00000000000E+00 -0.00000000000E+00 -0.10163642644E+03  0.10163642644E+03  0.00000000000E+00 0. -1.
         25    2    1    2    0    0 -0.34008313963E+03  0.20524541825E+03  0.72396681353E+03  0.83518605808E+03  0.12500232370E+03 0.  0.
          2    1    1    2  501    0  0.25117629605E+03 -0.69520927994E+02  0.42099380159E+03  0.49513480195E+03  0.00000000000E+00 0. -1.
          1    1    1    2  502    0  0.88906843582E+02 -0.13572449025E+03  0.72587706413E+03  0.74378967210E+03  0.00000000000E+00 0. -1.
         22    1    3    3    0    0 -0.50031220337E+02  0.92385118521E+02  0.17394349919E+03  0.20321041815E+03  0.00000000000E+00 0.  1.
         22    1    3    3    0    0 -0.29005191930E+03  0.11286029973E+03  0.55002331434E+03  0.63197563993E+03  0.00000000000E+00 0.  1.
</event>
<event>
 7    1  0.4402832E-005  0.1619489E+03  0.7818608E-02  0.1253699E+00
          2   -1    0    0  502    0  0.00000000000E+00  0.00000000000E+00  0.49735775370E+03  0.49735775370E+03  0.00000000000E+00 0. -1.
          1   -1    0    0  501    0 -0.00000000000E+00 -0.00000000000E+00 -0.35342561755E+03  0.35342561755E+03  0.00000000000E+00 0. -1.
         25    2    1    2    0    0  0.85349122878E+02  0.20095806717E+03 -0.16784162036E+03  0.30243219605E+03  0.12500322456E+03 0.  0.
          2    1    1    2  501    0  0.15692137386E+02 -0.78404726352E+02 -0.87567315034E+02  0.11858152872E+03  0.00000000000E+00 0. -1.
          1    1    1    2  502    0 -0.10104126026E+03 -0.12255334081E+03  0.39934107154E+03  0.42976964649E+03  0.00000000000E+00 0. -1.
         22    1    3    3    0    0 -0.40563668968E+01  0.14627485153E+03 -0.10666590591E+03  0.18108120219E+03  0.00000000000E+00 0.  1.
         22    1    3    3    0    0  0.89405489774E+02  0.54683215636E+02 -0.61175714448E+02  0.12135099387E+03  0.00000000000E+00 0.  1.
</event>
<event>
 7    1  0.4402832E-005  0.4703330E+03  0.7818608E-02  0.1101503E+00
          2   -1    0    0  502    0  0.00000000000E+00  0.00000000000E+00  0.28486236365E+04  0.28486236365E+04  0.00000000000E+00 0. -1.
          1   -1    0    0  501    0 -0.00000000000E+00 -0.00000000000E+00 -0.18243513184E+04  0.18243513184E+04  0.00000000000E+00 0. -1.
         25    2    1    2    0    0 -0.19597759149E+03  0.34683998505E+03 -0.11080679604E+04  0.11841211353E+04  0.12499226606E+03 0.  0.
          2    1    1    2  501    0 -0.15198218729E+03 -0.28048275983E+02 -0.64931363605E+03  0.66745298636E+03  0.00000000000E+00 0. -1.
          1    1    1    2  502    0  0.34795977878E+03 -0.31879170907E+03  0.27816539145E+04  0.28214008332E+04  0.00000000000E+00 0. -1.
         22    1    3    3    0    0 -0.28909487217E+02 -0.34736351843E+01 -0.66617855484E+02  0.72703254823E+02  0.00000000000E+00 0. -1.
         22    1    3    3    0    0 -0.16706810427E+03  0.35031362024E+03 -0.10414501049E+04  0.11114178805E+04  0.00000000000E+00 0. -1.
</event>
<event>
 7    1  0.4402832E-005  0.2180683E+03  0.7818608E-02  0.1270950E+00
          2   -1    0    0  502    0  0.00000000000E+00  0.00000000000E+00  0.25987465132E+04  0.25987465132E+04  0.00000000000E+00 0. -1.
          1   -1    0    0  501    0 -0.00000000000E+00 -0.00000000000E+00 -0.79799097879E+02  0.79799097879E+02  0.00000000000E+00 0. -1.
         25    2    1    2    0    0  0.23396458846E+03 -0.11338112959E+03  0.58084456244E+03  0.64853684405E+03  0.12499969269E+03 0.  0.
          2    1    1    2  501    0 -0.39818728428E+02  0.30493729406E+02 -0.24686503923E+02  0.55900108611E+02  0.00000000000E+00 0. -1.
          1    1    1    2  502    0 -0.19414586003E+03  0.82887400182E+02  0.19627893568E+04  0.19741086584E+04  0.00000000000E+00 0. -1.
         22    1    3    3    0    0  0.17310407858E+03 -0.21779081780E+02  0.40710198677E+03  0.44291238192E+03  0.00000000000E+00 0.  1.
         22    1    3    3    0    0  0.60860509875E+02 -0.91602047809E+02  0.17374257567E+03  0.20562446213E+03  0.00000000000E+00 0.  1.
</event>
<event>
 7    1  0.4402832E-005  0.1833311E+03  0.7818608E-02  0.1174291E+00
          2   -1    0    0  502    0  0.00000000000E+00  0.00000000000E+00  0.11153462894E+04  0.11153462894E+04  0.00000000000E+00 0. -1.
          1   -1    0    0  501    0 -0.00000000000E+00 -0.00000000000E+00 -0.77045426387E+03  0.77045426387E+03  0.00000000000E+00 0. -1.
         25    2    1    2    0    0  0.18928496429E+03 -0.28422152015E+03 -0.51386353956E+03  0.62951476724E+03  0.12498973821E+03 0.  0.
          2    1    1    2  501    0 -0.11106035157E+03  0.12082377321E+03 -0.15543839320E+03  0.22603955393E+03  0.00000000000E+00 0. -1.
          1    1    1    2  502    0 -0.78224612720E+02  0.16339774694E+03  0.10141939583E+04  0.10302462321E+04  0.00000000000E+00 0. -1.
         22    1    3    3    0    0  0.18492976300E+02 -0.34451783536E+02 -0.15624938211E+03  0.16106764098E+03  0.00000000000E+00 0. -1.
         22    1    3    3    0    0  0.17079198799E+03 -0.24976973661E+03 -0.35761415745E+03  0.46844712626E+03  0.00000000000E+00 0. -1.
</event>
<event>
 7    1  0.4402832E-005  0.1603027E+03  0.7818608E-02  0.1249507E+00
          2   -1    0    0  502    0  0.00000000000E+00  0.00000000000E+00  0.27972556837E+04  0.27972556837E+04  0.00000000000E+00 0. -1.
          1   -1    0    0  501    0 -0.00000000000E+00 -0.00000000000E+00 -0.25539405137E+03  0.25539405137E+03  0.00000000000E+00 0. -1.
         25    2    1    2    0    0  0.16405806743E+03 -0.17422793121E+03  0.17513557022E+03  0.32181832440E+03  0.12499657780E+03 0.  0.
          2    1    1    2  501    0 -0.68870476788E+02  0.48485394006E+02 -0.16972910944E+03  0.18947809002E+03  0.00000000000E+00 0. -1.
          1    1    1    2  502    0 -0.95187590641E+02  0.12574253720E+03  0.25364551716E+04  0.25413533207E+04  0.00000000000E+00 0. -1.
         22    1    3    3    0    0  0.83014597818E+02 -0.89846495256E+02  0.16356855041E+03  0.20425103878E+03  0.00000000000E+00 0. -1.
         22    1    3    3    0    0  0.81043469611E+02 -0.84381435951E+02  0.11567019806E+02  0.11756728562E+03  0.00000000000E+00 0. -1.
</event>
<event>
 7    1  0.4402832E-005  0.1829076E+03  0.7818608E-02  0.1235851E+00
          2   -1    0    0  502    0  0.00000000000E+00  0.00000000000E+00  0.10893076214E+04  0.10893076214E+04  0.00000000000E+00 0. -1.
          1   -1    0    0  501    0 -0.00000000000E+00 -0.00000000000E+00 -0.90541831613E+03  0.90541831613E+03  0.00000000000E+00 0. -1.
         25    2    1    2    0    0 -0.29422751518E+02  0.19529075681E+03 -0.23902368197E+03  0.33430656728E+03  0.12499752951E+03 0.  0.
          2    1    1    2  501    0  0.82330280719E+02 -0.20086977898E+02 -0.60775148512E+03  0.61363150951E+03  0.00000000000E+00 0. -1.
          1    1    1    2  502    0 -0.52907529201E+02 -0.17520377891E+03  0.10306644724E+04  0.10467878607E+04  0.00000000000E+00 0. -1.
         22    1    3    3    0    0 -0.26862126554E+02  0.18593886893E+03 -0.13871641046E+03  0.23353175235E+03  0.00000000000E+00 0.  1.
         22    1    3    3    0    0 -0.25606249645E+01  0.93518878752E+01 -0.10030727151E+03  0.10077481494E+03  0.00000000000E+00 0.  1.
</event>
<event>
 7    1  0.4402832E-005  0.3607046E+03  0.7818608E-02  0.1178345E+00
          2   -1    0    0  502    0  0.00000000000E+00  0.00000000000E+00  0.80694706413E+03  0.80694706413E+03  0.00000000000E+00 0. -1.
          1   -1    0    0  501    0 -0.00000000000E+00 -0.00000000000E+00 -0.16585863210E+04  0.16585863210E+04  0.00000000000E+00 0. -1.
         25    2    1    2    0    0 -0.29642688965E+03  0.15034591480E+03 -0.63035461366E+03  0.72349434473E+03  0.12499733152E+03 0.  0.
          2    1    1    2  501    0  0.36822025219E+03 -0.11579911913E+03 -0.94143507463E+03  0.10174947616E+04  0.00000000000E+00 0. -1.
          1    1    1    2  502    0 -0.71793362545E+02 -0.34546795665E+02  0.72015043145E+03  0.72454427878E+03  0.00000000000E+00 0. -1.
         22    1    3    3    0    0 -0.20341867491E+03  0.12890847905E+03 -0.33132100130E+03  0.40959755758E+03  0.00000000000E+00 0. -1.
         22    1    3    3    0    0 -0.93008214739E+02  0.21437435747E+02 -0.29903361236E+03  0.31389678715E+03  0.00000000000E+00 0. -1.
</event>
<event>
 7    1  0.4402832E-005  0.8931045E+03  0.7818608E-02  0.1134951E+00
          2   -1    0    0  502    0  0.00000000000E+00  0.00000000000E+00  0.10063363156E+04  0.10063363156E+04  0.00000000000E+00 0. -1.
          1   -1    0    0  501    0 -0.00000000000E+00 -0.00000000000E+00 -0.17714308711E+04  0.17714308711E+04  0.00000000000E+00 0. -1.
         25    2    1    2    0    0  0.89227175615E+03  0.16865311376E+03  0.35254039589E+03  0.98209175439E+03  0.12500689468E+03 0.  0.
          2    1    1    2  501    0 -0.34652963497E+02 -0.40750331850E+02 -0.90011687889E+03  0.90170494791E+03  0.00000000000E+00 0. -1.
          1    1    1    2  502    0 -0.85761879265E+03 -0.12790278191E+03 -0.21751807249E+03  0.89397048441E+03  0.00000000000E+00 0. -1.
         22    1    3    3    0    0  0.34673679587E+03  0.12535124237E+03  0.12334971861E+03  0.38878592137E+03  0.00000000000E+00 0.  1.
         22    1    3    3    0    0  0.54553496028E+03  0.43301871390E+02  0.22919067728E+03  0.59330583303E+03  0.00000000000E+00 0.  1.
</event>
<event>
 7    1  0.4402832E-005  0.3250579E+03  0.7818608E-02  0.1240615E+00
          2   -1    0    0  502    0  0.00000000000E+00  0.00000000000E+00  0.64647621469E+03  0.64647621469E+03  0.00000000000E+00 0. -1.
          1   -1    0    0  501    0 -0.00000000000E+00 -0.00000000000E+00 -0.14827742376E+04  0.14827742376E+04  0.00000000000E+00 0. -1.
         25    2    1    2    0    0 -0.30389161515E+03  0.50425530538E+02  0.24213950345E+03  0.41127773239E+03  0.12499994455E+03 0.  0.
          2    1    1    2  501    0 -0.39321607196E+02 -0.22747403720E+02 -0.13050017975E+04  0.13057922211E+04  0.00000000000E+00 0. -1.
          1    1    1    2  502    0  0.34321322235E+03 -0.27678126818E+02  0.22656427110E+03  0.41218049886E+03  0.00000000000E+00 0. -1.
         22    1    3    3    0    0 -0.20452891806E+03 -0.53097482786E-01  0.91933462186E+02  0.22424059091E+03  0.00000000000E+00 0.  1.
         22    1    3    3    0    0 -0.99362697092E+02  0.50478628021E+02  0.15020604127E+03  0.18703714148E+03  0.00000000000E+00 0.  1.
</event>
<event>
 7    1  0.4402832E-005  0.2641552E+03  0.7818608E-02  0.1144922E+00
          2   -1    0    0  502    0  0.00000000000E+00  0.00000000000E+00  0.87787914532E+03  0.87787914532E+03  0.00000000000E+00 0. -1.
          1   -1    0    0  501    0 -0.00000000000E+00 -0.00000000000E+00 -0.29884636449E+03  0.29884636449E+03  0.00000000000E+00 0. -1.
         25    2    1    2    0    0  0.30382431655E+03 -0.14272941599E+03  0.34879483053E+03  0.49996679769E+03  0.12501225328E+03 0.  0.
          2    1    1    2  501    0 -0.25626506865E+03 -0.10418790826E+02 -0.12624731487E+03  0.28586486515E+03  0.00000000000E+00 0. -1.
          1    1    1    2  502    0 -0.47559247895E+02  0.15314820682E+03  0.35648526517E+03  0.39089384696E+03  0.00000000000E+00 0. -1.
         22    1    3    3    0    0  0.84427307410E+02 -0.26863536582E+01  0.32891625107E+02  0.90647921844E+02  0.00000000000E+00 0. -1.
         22    1    3    3    0    0  0.21939700914E+03 -0.14004306233E+03  0.31590320542E+03  0.40931887585E+03  0.00000000000E+00 0. -1.
</event>
<event>
 7    1  0.4402832E-005  0.6468773E+03  0.7818608E-02  0.1251312E+00
          2   -1    0    0  502    0  0.00000000000E+00  0.00000000000E+00  0.68077671336E+03  0.68077671336E+03  0.00000000000E+00 0. -1.
          1   -1    0    0  501    0 -0.00000000000E+00 -0.00000000000E+00 -0.15296609671E+04  0.15296609671E+04  0.00000000000E+00 0. -1.
         25    2    1    2    0    0  0.17330912537E+03  0.61668965649E+03 -0.89557389350E+03  0.11081607345E+04  0.12500171797E+03 0.  0.
          2    1    1    2  501    0 -0.18685739302E+03 -0.63207346550E+03 -0.32161980777E+03  0.73339747195E+03  0.00000000000E+00 0. -1.
          1    1    1    2  502    0  0.13548267649E+02  0.15383809013E+02  0.36830944755E+03  0.36887947394E+03  0.00000000000E+00 0. -1.
         22    1    3    3    0    0 -0.16048388862E+02  0.70923398453E+02 -0.13174165208E+03  0.15047771305E+03  0.00000000000E+00 0.  1.
         22    1    3    3    0    0  0.18935751423E+03  0.54576625803E+03 -0.76383224142E+03  0.95768302148E+03  0.00000000000E+00 0.  1.
</event>
<event>
 7    1  0.4402832E-005  0.1150433E+03  0.7818608E-02  0.1285702E+00
          2   -1    0    0  502    0  0.00000000000E+00  0.00000000000E+00  0.66641446890E+03  0.66641446890E+03  0.00000000000E+00 0. -1.
          1   -1    0    0  501    0 -0.00000000000E+00 -0.00000000000E+00 -0.68987243284E+02  0.68987243284E+02  0.00000000000E+00 0. -1.
         25    2    1    2    0    0  0.26482076707E+02  0.55537548654E+02  0.10385641844E+03  0.17376957434E+03  0.12499595841E+03 0.  0.
          2    1    1    2  501    0 -0.13584769212E+03 -0.19842826012E+02  0.17182100001E+03  0.21993360190E+03  0.00000000000E+00 0. -1.
          1    1    1    2  502    0  0.10936561541E+03 -0.35694722642E+02  0.32174980716E+03  0.34169853594E+03  0.00000000000E+00 0. -1.
         22    1    3    3    0    0 -0.22958583496E+02 -0.20870916256E+02 -0.54852763864E+01  0.31508410917E+02  0.00000000000E+00 0.  1.
         22    1    3    3    0    0  0.49440660203E+02  0.76408464910E+02  0.10934169483E+03  0.14226116343E+03  0.00000000000E+00 0.  1.
</event>
<event>
 7    1  0.4402832E-005  0.5350120E+03  0.7818608E-02  0.1111178E+00
          2   -1    0    0  502    0  0.00000000000E+00  0.00000000000E+00  0.97146756237E+03  0.97146756237E+03  0.00000000000E+00 0. -1.
          1   -1    0    0  501    0 -0.00000000000E+00 -0.00000000000E+00 -0.39111238454E+03  0.39111238454E+03  0.00000000000E+00 0. -1.
         25    2    1    2    0    0  0.46010555490E+03  0.35698673582E+03  0.11613015721E+03  0.60682884853E+03  0.12497354438E+03 0.  0.
          2    1    1    2  501    0 -0.34992355495E+03 -0.30941107546E+03  0.41902835881E+03  0.62750814609E+03  0.00000000000E+00 0. -1.
          1    1    1    2  502    0 -0.11018199996E+03 -0.47575660364E+02  0.45196661809E+02  0.12824295229E+03  0.00000000000E+00 0. -1.
         22    1    3    3    0    0  0.40669682138E+03  0.25392767933E+03  0.89610676480E+02  0.48776187243E+03  0.00000000000E+00 0.  1.
         22    1    3    3    0    0  0.53408733518E+02  0.10305905649E+03  0.26519480733E+02  0.11906697611E+03  0.00000000000E+00 0.  1.
</event>
<event>
 7    1  0.4402832E-005  0.5611245E+03  0.7818608E-02  0.1222014E+00
          2   -1    0    0  502    0  0.00000000000E+00  0.00000000000E+00  0.16130835836E+04  0.16130835836E+04  0.00000000000E+00 0. -1.
          1   -1    0    0  501    0 -0.00000000000E+00 -0.00000000000E+00 -0.51379943579E+03  0.51379943579E+03  0.00000000000E+00 0. -1.
         25    2    1    2    0    0 -0.46655040989E+03 -0.34095951586E+03  0.90909867753E+02  0.59817423355E+03  0.12500053281E+03 0.  0.
          2    1    1    2  501    0  0.43678304264E+03  0.32956248400E+03  0.28069257657E+02  0.54788570015E+03  0.00000000000E+00 0. -1.
          1    1    1    2  502    0  0.29767367251E+02  0.11397031859E+02  0.98030502237E+03  0.98082308567E+03  0.00000000000E+00 0. -1.
         22    1    3    3    0    0 -0.47163979683E+03 -0.32286067378E+03  0.82159422109E+02  0.57743682188E+03  0.00000000000E+00 0.  1.
         22    1    3    3    0    0  0.50893869307E+01 -0.18098842073E+02  0.87504456441E+01  0.20737411668E+02  0.00000000000E+00 0.  1.
</event>
<event>
 7    1  0.4402832E-005  0.4324850E+03  0.7818608E-02  0.1130221E+00
          2   -1    0    0  502    0  0.00000000000E+00  0.00000000000E+00  0.29609077820E+04  0.29609077820E+04  0.00000000000E+00 0. -1.
          1   -1    0    0  501    0 -0.00000000000E+00 -0.00000000000E+00 -0.33357018981E+03  0.33357018981E+03  0.00000000000E+00 0. -1.
         25    2    1    2    0    0 -0.32248040678E+03 -0.30774865636E+03  0.18143399930E+04  0.18724735559E+04  0.12499903640E+03 0.  0.
          2    1    1    2  501    0  0.10377352841E+03 -0.54122031923E+02 -0.25106769723E+03  0.27700745140E+03  0.00000000000E+00 0. -1.
          1    1    1    2  502    0  0.21870687837E+03  0.36187068829E+03  0.10640652965E+04  0.11449969646E+04  0.00000000000E+00 0. -1.
         22    1    3    3    0    0 -0.25572058282E+03 -0.28613617922E+03  0.13742807665E+04  0.14268547770E+04  0.00000000000E+00 0.  1.
         22    1    3    3    0    0 -0.66759823959E+02 -0.21612477148E+02  0.44005922650E+03  0.44561877888E+03  0.00000000000E+00 0.  1.
</event>
<event>
 7    1  0.4402832E-005  0.2107853E+03  0.7818608E-02  0.1339374E+00
          2   -1    0    0  502    0  0.00000000000E+00  0.00000000000E+00  0.31686271916E+03  0.31686271916E+03  0.00000000000E+00 0. -1.
          1   -1    0    0  501    0 -0.00000000000E+00 -0.00000000000E+00 -0.70558178452E+03  0.70558178452E+03  0.00000000000E+00 0. -1.
         25    2    1    2    0    0  0.85551686510E+01  0.21639426063E+03  0.23688058457E+03  0.34443712743E+03  0.12499942586E+03 0.  0.
          2    1    1    2  501    0 -0.34876335575E+02 -0.20762584475E+03 -0.61181982700E+03  0.64703040957E+03  0.00000000000E+00 0. -1.
          1    1    1    2  502    0  0.26321166924E+02 -0.87684158734E+01 -0.13779822927E+02  0.30976966686E+02  0.00000000000E+00 0. -1.
         22    1    3    3    0    0  0.31426128115E+02  0.19799589684E+03  0.14346935052E+03  0.24652267894E+03  0.00000000000E+00 0. -1.
         22    1    3    3    0    0 -0.22870959464E+02  0.18398363785E+02  0.93411234048E+02  0.97914448490E+02  0.00000000000E+00 0. -1.
</event>
<event>
 7    1  0.4402832E-005  0.5447237E+03  0.7818608E-02  0.1175554E+00
          2   -1    0    0  502    0  0.00000000000E+00  0.00000000000E+00  0.23031544641E+04  0.23031544641E+04  0.00000000000E+00 0. -1.
          1   -1    0    0  501    0 -0.00000000000E+00 -0.00000000000E+00 -0.77712106899E+03  0.77712106899E+03  0.00000000000E+00 0. -1.
         25    2    1    2    0    0  0.55312285804E+03 -0.46692968450E+02 -0.36627614964E+03  0.67669131073E+03  0.12501113085E+03 0.  0.
          2    1    1    2  501    0 -0.52007427949E+03  0.89963948306E+02  0.17607488665E+02  0.52809165098E+03  0.00000000000E+00 0. -1.
          1    1    1    2  502    0 -0.33048578552E+02 -0.43270979856E+02  0.18747020560E+04  0.18754925713E+04  0.00000000000E+00 0. -1.
         22    1    3    3    0    0  0.55429660864E+03 -0.57161960223E+02 -0.36486633971E+03  0.66606280927E+03  0.00000000000E+00 0. -1.
         22    1    3    3    0    0 -0.11737505971E+01  0.10468991773E+02 -0.14098099270E+01  0.10628501458E+02  0.00000000000E+00 0. -1.
</event>
<event>
 7    1  0.4402832E-005  0.3724517E+03  0.7818608E-02  0.1095113E+00
          2   -1    0    0  502    0  0.00000000000E+00  0.00000000000E+00  0.12274063732E+04  0.12274063732E+04  0.00000000000E+00 0. -1.
          1   -1    0    0  501    0 -0.00000000000E+00 -0.00000000000E+00 -0.14587064359E+04  0.14587064359E+04  0.00000000000E+00 0. -1.
         25    2    1    2    0    0 -0.34882104456E+03  0.20653431448E+03 -0.44066204300E+03  0.61167046029E+03  0.12500068666E+03 0.  0.
          2    1    1    2  501    0  0.37569999720E+03  0.38462166365E+01 -0.88408824768E+03  0.96061298709E+03  0.00000000000E+00 0. -1.
          1    1    1    2  502    0 -0.26878952638E+02 -0.21038053112E+03  0.10934502280E+04  0.11138293617E+04  0.00000000000E+00 0. -1.
         22    1    3    3    0    0 -0.17352740883E+03  0.89437710407E+02 -0.30111395966E+03  0.35885997598E+03  0.00000000000E+00 0.  1.
         22    1    3    3    0    0 -0.17529363573E+03  0.11709660408E+03 -0.13954808333E+03  0.25281048430E+03  0.00000000000E+00 0.  1.
</event>
<event>
 7    1  0.4402832E-005  0.4337553E+03  0.7818608E-02  0.1098385E+00
          2   -1    0    0  502    0  0.00000000000E+00  0.00000000000E+00  0.96930359158E+03  0.96930359158E+03  0.00000000000E+00 0. -1.
          1   -1    0    0  501    0 -0.00000000000E+00 -0.00000000000E+00 -0.14706685154E+04  0.14706685154E+04  0.00000000000E+00 0. -1.
         25    2    1    2    0    0  0.53919297994E+03 -0.14155526667E+03  0.24785602234E+02  0.57184444419E+03  0.12499911651E+03 0.  0.
          2    1    1    2  501    0 -0.17133394171E+03 -0.33096045758E+02 -0.11280231192E+04  0.11414406797E+04  0.00000000000E+00 0. -1.
          1    1    1    2  502    0 -0.36785903824E+03  0.17465131243E+03  0.60187259317E+03  0.72668698307E+03  0.00000000000E+00 0. -1.
         22    1    3    3    0    0  0.38010403563E+02 -0.31169448288E+02 -0.26931473561E+02  0.56050241336E+02  0.00000000000E+00 0. -1.
         22    1    3    3    0    0  0.50118257638E+03 -0.11038581838E+03  0.51717075795E+02  0.51579420285E+03  0.00000000000E+00 0. -1.
</event>
<event>
 7    1  0.4402832E-005  0.1159817E+03  0.7818608E-02  0.1297519E+00
          2   -1    0    0  502    0  0.00000000000E+00  0.00000000000E+00  0.18243283740E+04  0.18243283740E+04  0.00000000000E+00 0. -1.
          1   -1    0    0  501    0 -0.00000000000E+00 -0.00000000000E+00 -0.15788845781E+03  0.15788845781E+03  0.00000000000E+00 0. -1.
         25    2    1    2    0    0  0.14604738321E+03  0.23568162229E+02 -0.75770553215E+01  0.19382382676E+03  0.12499987056E+03 0.  0.
          2    1    1    2  501    0 -0.99155923872E+02  0.32843745315E+02 -0.80162019340E+01  0.10476100581E+03  0.00000000000E+00 0. -1.
          1    1    1    2  502    0 -0.46891459336E+02 -0.56411907543E+02  0.16820331735E+04  0.16836319993E+04  0.00000000000E+00 0. -1.
         22    1    3    3    0    0  0.30963980165E+02 -0.31024227779E+02  0.38530750894E+02  0.58359999498E+02  0.00000000000E+00 0. -1.
         22    1    3    3    0    0  0.11508340304E+03  0.54592390008E+02 -0.46107806216E+02  0.13546382726E+03  0.00000000000E+00 0. -1.
</event>
<event>
 7    1  0.4402832E-005  0.3994375E+03  0.7818608E-02  0.1131022E+00
          2   -1    0    0  502    0  0.00000000000E+00  0.00000000000E+00  0.21019642792E+04  0.21019642792E+04  0.00000000000E+00 0. -1.
          1   -1    0    0  501    0 -0.00000000000E+00 -0.00000000000E+00 -0.26379020045E+03  0.26379020045E+03  0.00000000000E+00 0. -1.
         25    2    1    2    0    0  0.31924622208E+03  0.15355400313E+03  0.31072124168E+03  0.48751289712E+03  0.12499661051E+03 0.  0.
          2    1    1    2  501    0 -0.33470863028E+03 -0.27808156619E+03  0.10157393434E+03  0.44685175258E+03  0.00000000000E+00 0. -1.
          1    1    1    2  502    0  0.15462408205E+02  0.12452756307E+03  0.14258789028E+04  0.14313898300E+04  0.00000000000E+00 0. -1.
         22    1    3    3    0    0  0.29195505355E+03  0.12969871687E+03  0.31775861039E+03  0.45058855392E+03  0.00000000000E+00 0. -1.
         22    1    3    3    0    0  0.27291168527E+02  0.23855286255E+02 -0.70373687111E+01  0.36924343194E+02  0.00000000000E+00 0. -1.
</event>
<event>
 7    1  0.4402832E-005  0.4793335E+03  0.7818608E-02  0.1268878E+00
          2   -1    0    0  502    0  0.00000000000E+00  0.00000000000E+00  0.13299330287E+04  0.13299330287E+04  0.00000000000E+00 0. -1.
          1   -1    0    0  501    0 -0.00000000000E+00 -0.00000000000E+00 -0.62277967916E+03  0.62277967916E+03  0.00000000000E+00 0. -1.
         25    2    1    2    0    0 -0.24161026003E+03  0.43713023105E+03 -0.16677392765E+03  0.54120078021E+03  0.12500553949E+03 0.  0.
          2    1    1    2  501    0  0.14449851149E+02 -0.18251081268E+02 -0.21847137383E+03  0.21970808212E+03  0.00000000000E+00 0. -1.
          1    1    1    2  502    0  0.22716040888E+03 -0.41887914979E+03  0.10923986510E+04  0.11918038455E+04  0.00000000000E+00 0. -1.
         22    1    3    3    0    0  0.13901998931E+02  0.42686037205E+02 -0.14504832218E+02  0.47177892112E+02  0.00000000000E+00 0. -1.
         22    1    3    3    0    0 -0.25551225896E+03  0.39444419385E+03 -0.15226909543E+03  0.49402288810E+03  0.00000000000E+00 0. -1.
</event>
<event>
 7    1  0.4402832E-005  0.2003421E+03  0.7818608E-02  0.1219907E+00
          2   -1    0    0  502    0  0.00000000000E+00  0.00000000000E+00  0.39690507841E+03  0.39690507841E+03  0.00000000000E+00 0. -1.
          1   -1    0    0  501    0 -0.00000000000E+00 -0.00000000000E+00 -0.22068014020E+03  0.22068014020E+03  0.00000000000E+00 0. -1.
         25    2    1    2    0    0 -0.38669220505E+02  0.20520264071E+03  0.13388172023E+03  0.27776303715E+03  0.12499822969E+03 0.  0.
          2    1    1    2  501    0  0.90772621590E+02 -0.94969360555E+01 -0.63619794054E+02  0.11125348903E+03  0.00000000000E+00 0. -1.
          1    1    1    2  502    0 -0.52103401086E+02 -0.19570570466E+03  0.10596301204E+03  0.22856869243E+03  0.00000000000E+00 0. -1.
         22    1    3    3    0    0 -0.73589757605E+02  0.16614996719E+03  0.13330791555E+03  0.22537139208E+03  0.00000000000E+00 0.  1.
         22    1    3    3    0    0  0.34920537100E+02  0.39052673529E+02  0.57380467069E+00  0.52391645068E+02  0.00000000000E+00 0.  1.
</event>
<event>
 7    1  0.4402832E-005  0.3481961E+03  0.7818608E-02  0.1083107E+00
          2   -1    0    0  502    0  0.00000000000E+00  0.00000000000E+00  0.12205430592E+04  0.12205430592E+04  0.00000000000E+00 0. -1.
          1   -1    0    0  501    0 -0.00000000000E+00 -0.00000000000E+00 -0.98524756076E+03  0.98524756076E+03  0.00000000000E+00 0. -1.
         25    2    1    2    0    0 -0.77498876499E+02 -0.55606203890E+03  0.42508052088E+03  0.71521186714E+03  0.12499399467E+03 0.  0.
          2    1    1    2  501    0 -0.63739810508E+02  0.33071590719E+03 -0.77650267941E+03  0.84639954268E+03  0.00000000000E+00 0. -1.
          1    1    1    2  502    0  0.14123868701E+03  0.22534613170E+03  0.58671765693E+03  0.64417921011E+03  0.00000000000E+00 0. -1.
         22    1    3    3    0    0 -0.10421800746E+03 -0.42623194434E+03  0.35987812704E+03  0.56749214072E+03  0.00000000000E+00 0. -1.
         22    1    3    3    0    0  0.26719130958E+02 -0.12983009455E+03  0.65202393844E+02  0.14771972642E+03  0.00000000000E+00 0. -1.
</event>
<event>
 7    1  0.4402832E-005  0.3384822E+03  0.7818608E-02  0.1196979E+00
          2   -1    0    0  502    0  0.00000000000E+00  0.00000000000E+00  0.15871649956E+04  0.15871649956E+04  0.00000000000E+00 0. -1.
          1   -1    0    0  501    0 -0.00000000000E+00 -0.00000000000E+00 -0.56400663229E+03  0.56400663229E+03  0.00000000000E+00 0. -1.
         25    2    1    2    0    0 -0.93130065021E+01 -0.38986711047E+03  0.21749502512E+03  0.46369264201E+03  0.12499473741E+03 0.  0.
          2    1    1    2  501    0 -0.22594601262E+02  0.32863148010E+03 -0.37823516718E+03  0.50156854707E+03  0.00000000000E+00 0. -1.
          1    1    1    2  502    0  0.31907607764E+02  0.61235630375E+02  0.11838985054E+04  0.11859104389E+04  0.00000000000E+00 0. -1.
         22    1    3    3    0    0 -0.62005481242E+02 -0.16349165956E+03  0.69576102614E+02  0.18818883204E+03  0.00000000000E+00 0.  1.
         22    1    3    3    0    0  0.52692474740E+02 -0.22637545092E+03  0.14791892251E+03  0.27550380997E+03  0.00000000000E+00 0.  1.
</event>
<event>
 7    1  0.4402832E-005  0.2885814E+03  0.7818608E-02  0.1167147E+00
          2   -1    0    0  502    0  0.00000000000E+00  0.00000000000E+00  0.15686704400E+04  0.15686704400E+04  0.00000000000E+00 0. -1.
          1   -1    0    0  501    0 -0.00000000000E+00 -0.00000000000E+00 -0.32466560047E+03  0.32466560047E+03  0.00000000000E+00 0. -1.
         25    2    1    2    0    0 -0.58627106427E+02  0.29969448991E+03  0.55459555189E+03  0.64533286636E+03  0.12499742935E+03 0.  0.
          2    1    1    2  501    0  0.15643656257E+03 -0.24286205296E+03 -0.20004362795E+03  0.35138558303E+03  0.00000000000E+00 0. -1.
          1    1    1    2  502    0 -0.97809456140E+02 -0.56832436945E+02  0.88945291561E+03  0.89661759111E+03  0.00000000000E+00 0. -1.
         22    1    3    3    0    0 -0.82690806539E+01  0.18306762667E+03  0.21356853193E+03  0.28141366608E+03  0.00000000000E+00 0. -1.
         22    1    3    3    0    0 -0.50358025773E+02  0.11662686324E+03  0.34102701996E+03  0.36391920028E+03  0.00000000000E+00 0. -1.
</event>
<event>
 7    1  0.4402832E-005  0.2948876E+03  0.7818608E-02  0.1187676E+00
          2   -1    0    0  502    0  0.00000000000E+00  0.00000000000E+00  0.77007129590E+03  0.77007129590E+03  0.00000000000E+00 0. -1.
          1   -1    0    0  501    0 -0.00000000000E+00 -0.00000000000E+00 -0.19114064466E+04  0.19114064466E+04  0.00000000000E+00 0. -1.
         25    2    1    2    0    0 -0.22728159286E+03 -0.24034360366E+03  0.13827514497E+03  0.37969296725E+03  0.12499905355E+03 0.  0.
          2    1    1    2  501    0  0.14117995731E+03  0.25753325641E+03 -0.17747673258E+04  0.17989036159E+04  0.00000000000E+00 0. -1.
          1    1    1    2  502    0  0.86101635551E+02 -0.17189652750E+02  0.49515703021E+03  0.50288115929E+03  0.00000000000E+00 0. -1.
         22    1    3    3    0    0 -0.22371980821E+02 -0.82089326477E+01 -0.20758285502E+02  0.31603773794E+02  0.00000000000E+00 0. -1.
         22    1    3    3    0    0 -0.20490961204E+03 -0.23213467102E+03  0.15903343047E+03  0.34808919346E+03  0.00000000000E+00 0. -1.
</event>
<event>
 7    1  0.4402832E-005  0.9532044E+02  0.7818608E-02  0.1411361E+00
          2   -1    0    0  502    0  0.00000000000E+00  0.00000000000E+00  0.18673367886E+02  0.18673367886E+02  0.00000000000E+00 0. -1.
          1   -1    0    0  501    0 -0.00000000000E+00 -0.00000000000E+00 -0.23504815844E+04  0.23504815844E+04  0.00000000000E+00 0. -1.
         25    2    1    2    0    0  0.46616423061E+02 -0.87112037800E+02 -0.12492664204E+04  0.12593858466E+04  0.12499809341E+03 0.  0.
          2    1    1    2  501    0 -0.13510938064E+02  0.94659956348E+02 -0.10689125809E+04  0.10731808601E+04  0.00000000000E+00 0. -1.
          1    1    1    2  502    0 -0.33105484997E+02 -0.75479185479E+01 -0.13629215162E+02  0.36588245616E+02  0.00000000000E+00 0. -1.
         22    1    3    3    0    0  0.82751248651E+02 -0.25569743610E+02 -0.76537615502E+03  0.77026115027E+03  0.00000000000E+00 0.  1.
         22    1    3    3    0    0 -0.36134825591E+02 -0.61542294190E+02 -0.48389026541E+03  0.48912469632E+03  0.00000000000E+00 0.  1.
</event>
<event>
 7    1  0.4402832E-005  0.1861631E+04  0.7818608E-02  0.9972694E-01
          2   -1    0    0  502    0  0.00000000000E+00  0.00000000000E+00  0.23138437613E+04  0.23138437613E+04  0.00000000000E+00 0. -1.
          1   -1    0    0  501    0 -0.00000000000E+00 -0.00000000000E+00 -0.35293463645E+04  0.35293463645E+04  0.00000000000E+00 0. -1.
         25    2    1    2    0    0  0.17918439524E+04 -0.11075004967E+03 -0.97555404489E+03  0.20470225271E+04  0.12500083546E+03 0.  0.
          2    1    1    2  501    0 -0.19201674704E+04 -0.63055999829E+01 -0.15542863710E+04  0.24704025983E+04  0.00000000000E+00 0. -1.
          1    1    1    2  502    0  0.12832351800E+03  0.11705564965E+03  0.13143378126E+04  0.13257650003E+04  0.00000000000E+00 0. -1.
         22    1    3    3    0    0  0.15104850939E+04 -0.13883389978E+03 -0.82156186420E+03  0.17250518738E+04  0.00000000000E+00 0. -1.
         22    1    3    3    0    0  0.28135885853E+03  0.28083850112E+02 -0.15399218069E+03  0.32197065336E+03  0.00000000000E+00 0. -1.
</event>
<event>
 7    1  0.4402832E-005  0.1852906E+03  0.7818608E-02  0.1177072E+00
          2   -1    0    0  502    0  0.00000000000E+00  0.00000000000E+00  0.67864224862E+03  0.67864224862E+03  0.00000000000E+00 0. -1.
          1   -1    0    0  501    0 -0.00000000000E+00 -0.00000000000E+00 -0.56250646405E+03  0.56250646405E+03  0.00000000000E+00 0. -1.
         25    2    1    2    0    0 -0.46654734641E+01  0.22096915085E+03  0.33408949555E+03  0.41963184733E+03  0.12500385587E+03 0.  0.
          2    1    1    2  501    0 -0.12805066111E+03 -0.91432732408E+02 -0.47736770851E+03  0.50262992897E+03  0.00000000000E+00 0. -1.
          1    1    1    2  502    0  0.13271613457E+03 -0.12953641844E+03  0.25941399752E+03  0.31888693637E+03  0.00000000000E+00 0. -1.
         22    1    3    3    0    0  0.39469772271E+02  0.21621801672E+02  0.95728735254E+02  0.10577975224E+03  0.00000000000E+00 0. -1.
         22    1    3    3    0    0 -0.44135245735E+02  0.19934734918E+03  0.23836076030E+03  0.31385209509E+03  0.00000000000E+00 0. -1.
</event>
<event>
 7    1  0.4402832E-005  0.3919605E+03  0.7818608E-02  0.1172747E+00
          2   -1    0    0  502    0  0.00000000000E+00  0.00000000000E+00  0.10301423666E+04  0.10301423666E+04  0.00000000000E+00 0. -1.
          1   -1    0    0  501    0 -0.00000000000E+00 -0.00000000000E+00 -0.56793489422E+03  0.56793489422E+03  0.00000000000E+00 0. -1.
         25    2    1    2    0    0  0.44348871505E+03 -0.14796109690E+02  0.34221468824E+03  0.57414521906E+03  0.12502269585E+03 0.  0.
          2    1    1    2  501    0 -0.78117612588E+02 -0.47570245277E+00 -0.38923747745E+03  0.39699924627E+03  0.00000000000E+00 0. -1.
          1    1    1    2  502    0 -0.36537110246E+03  0.15271812142E+02  0.50923026163E+03  0.62693279554E+03  0.00000000000E+00 0. -1.
         22    1    3    3    0    0  0.37426195986E+03 -0.40993672913E+01  0.22245000956E+03  0.43539961663E+03  0.00000000000E+00 0. -1.
         22    1    3    3    0    0  0.69226755189E+02 -0.10696742398E+02  0.11976467868E+03  0.13874560242E+03  0.00000000000E+00 0. -1.
</event>
<event>
 7    1  0.4402832E-005  0.4873919E+03  0.7818608E-02  0.1250266E+00
          2   -1    0    0  502    0  0.00000000000E+00  0.00000000000E+00  0.54185370316E+03  0.54185370316E+03  0.00000000000E+00 0. -1.
          1   -1    0    0  501    0 -0.00000000000E+00 -0.00000000000E+00 -0.54731605438E+03  0.54731605438E+03  0.00000000000E+00 0. -1.
         25    2    1    2    0    0  0.48380843529E+03 -0.15434436441E+02  0.31683525513E+02  0.50093945552E+03  0.12501067325E+03 0.  0.
          2    1    1    2  501    0 -0.48999546274E+03 -0.11352758224E+02 -0.11689626555E+03  0.50387416636E+03  0.00000000000E+00 0. -1.
          1    1    1    2  502    0  0.61870274516E+01  0.26787194666E+02  0.79750388813E+02  0.84356135655E+02  0.00000000000E+00 0. -1.
         22    1    3    3    0    0  0.30343347296E+03  0.45593611510E+02 -0.56640972705E+01  0.30689205256E+03  0.00000000000E+00 0. -1.
         22    1    3    3    0    0  0.18037496232E+03 -0.61028047951E+02  0.37347622784E+02  0.19404740296E+03  0.00000000000E+00 0. -1.
</event>
<event>
 7    1  0.4402832E-005  0.2212868E+03  0.7818608E-02  0.1134885E+00
          2   -1    0    0  502    0  0.00000000000E+00  0.00000000000E+00  0.98110714499E+03  0.98110714499E+03  0.00000000000E+00 0. -1.
          1   -1    0    0  501    0 -0.00000000000E+00 -0.00000000000E+00 -0.15345836147E+04  0.15345836147E+04  0.00000000000E+00 0. -1.
         25    2    1    2    0    0 -0.48481234306E+02 -0.23019173420E+03  0.45901296407E+03  0.53071349388E+03  0.12500098734E+03 0.  0.
          2    1    1    2  501    0 -0.17948815446E+03  0.12942898489E+03 -0.14578857368E+04  0.14745842401E+04  0.00000000000E+00 0. -1.
          1    1    1    2  502    0  0.22796938876E+03  0.10076274932E+03  0.44539630304E+03  0.51039302564E+03  0.00000000000E+00 0. -1.
         22    1    3    3    0    0 -0.35165129265E+02 -0.60053784725E+02  0.44913634654E+02  0.82826794903E+02  0.00000000000E+00 0.  1.
         22    1    3    3    0    0 -0.13316105041E+02 -0.17013794948E+03  0.41409932941E+03  0.44788669898E+03  0.00000000000E+00 0.  1.
</event>
<event>
 7    1  0.4402832E-005  0.1541802E+03  0.7818608E-02  0.1199520E+00
          2   -1    0    0  502    0  0.00000000000E+00  0.00000000000E+00  0.24553574169E+04  0.24553574169E+04  0.00000000000E+00 0. -1.
          1   -1    0    0  501    0 -0.00000000000E+00 -0.00000000000E+00 -0.76602800263E+02  0.76602800263E+02  0.00000000000E+00 0. -1.
         25    2    1    2    0    0 -0.41627573497E+02  0.12073761573E+03  0.85106128310E+02  0.19792487083E+03  0.12498309762E+03 0.  0.
          2    1    1    2  501    0  0.14744045875E+03 -0.17628427409E+01  0.30242326158E+03  0.33645449267E+03  0.00000000000E+00 0. -1.
          1    1    1    2  502    0 -0.10581288525E+03 -0.11897477299E+03  0.19912252268E+04  0.19975808537E+04  0.00000000000E+00 0. -1.
         22    1    3    3    0    0  0.20300911724E+02  0.12314181297E+02 -0.22783570047E+02  0.32906794768E+02  0.00000000000E+00 0.  1.
         22    1    3    3    0    0 -0.61928485220E+02  0.10842343444E+03  0.10788969836E+03  0.16501807606E+03  0.00000000000E+00 0.  1.
</event>
<event>
 7    1  0.4402832E-005  0.1643121E+03  0.7818608E-02  0.1294479E+00
          2   -1    0    0  502    0  0.00000000000E+00  0.00000000000E+00  0.13052014461E+04  0.13052014461E+04  0.00000000000E+00 0. -1.
          1   -1    0    0  501    0 -0.00000000000E+00 -0.00000000000E+00 -0.55294787784E+02  0.55294787784E+02  0.00000000000E+00 0. -1.
         25    2    1    2    0    0  0.97019579932E+01  0.20713164611E+03  0.86864424090E+03  0.90175699737E+03  0.12500087298E+03 0.  0.
          2    1    1    2  501    0  0.54297104962E+01 -0.15606583370E+03  0.13389620750E+03  0.20570420654E+03  0.00000000000E+00 0. -1.
          1    1    1    2  502    0 -0.15131668489E+02 -0.51065812409E+02  0.24736620988E+03  0.25303502995E+03  0.00000000000E+00 0. -1.
         22    1    3    3    0    0 -0.20945597114E+02  0.20285380955E+03  0.81193802034E+03  0.83715693568E+03  0.00000000000E+00 0.  1.
         22    1    3    3    0    0  0.30647555107E+02  0.42778365529E+01  0.56706220564E+02  0.64600061689E+02  0.00000000000E+00 0.  1.
</event>
<event>
 7    1  0.4402832E-005  0.8500172E+03  0.7818608E-02  0.1071678E+00
          2   -1    0    0  502    0  0.00000000000E+00  0.00000000000E+00  0.17184653669E+04  0.17184653669E+04  0.00000000000E+00 0. -1.
          1   -1    0    0  501    0 -0.00000000000E+00 -0.00000000000E+00 -0.10372938784E+04  0.10372938784E+04  0.00000000000E+00 0. -1.
         25    2    1    2    0    0 -0.10205614074E+03 -0.86936316844E+03  0.88208904917E+03  0.12489654021E+04  0.12500284224E+03 0.  0.
          2    1    1    2  501    0 -0.10164592529E+03  0.76420798182E+02 -0.58772510316E+03  0.60132589284E+03  0.00000000000E+00 0. -1.
          1    1    1    2  502    0  0.20370206603E+03  0.79294237026E+03  0.38680754245E+03  0.90546795038E+03  0.00000000000E+00 0. -1.
         22    1    3    3    0    0  0.17958628278E+02 -0.12034409810E+03  0.83814994949E+02  0.14775035585E+03  0.00000000000E+00 0.  1.
         22    1    3    3    0    0 -0.12001476902E+03 -0.74901907034E+03  0.79827405422E+03  0.11012150463E+04  0.00000000000E+00 0.  1.
</event>
<event>
 7    1  0.4402832E-005  0.4280661E+02  0.7818608E-02  0.1490781E+00
          2   -1    0    0  502    0  0.00000000000E+00  0.00000000000E+00  0.13134756660E+04  0.13134756660E+04  0.00000000000E+00 0. -1.
          1   -1    0    0  501    0 -0.00000000000E+00 -0.00000000000E+00 -0.14991998502E+02  0.14991998502E+02  0.00000000000E+00 0. -1.
         25    2    1    2    0    0  0.10522132944E+02 -0.17227610416E+01  0.10144904105E+04  0.10222186584E+04  0.12500603747E+03 0.  0.
          2    1    1    2  501    0 -0.95395531865E+01  0.43848070859E+02  0.44930694764E+02  0.63501367899E+02  0.00000000000E+00 0. -1.
          1    1    1    2  502    0 -0.98257975787E+00 -0.42125309817E+02  0.23906256226E+03  0.24274763823E+03  0.00000000000E+00 0. -1.
         22    1    3    3    0    0 -0.38580798584E+02  0.21706190301E+02  0.16038083190E+03  0.16637802727E+03  0.00000000000E+00 0.  1.
         22    1    3    3    0    0  0.49102931528E+02 -0.23428951342E+02  0.85410957859E+03  0.85584063113E+03  0.00000000000E+00 0.  1.
</event>
<event>
 7    1  0.4402832E-005  0.3800377E+03  0.7818608E-02  0.1121259E+00
          2   -1    0    0  502    0  0.00000000000E+00  0.00000000000E+00  0.22903350209E+04  0.22903350209E+04  0.00000000000E+00 0. -1.
          1   -1    0    0  501    0 -0.00000000000E+00 -0.00000000000E+00 -0.12378952447E+03  0.12378952447E+03  0.00000000000E+00 0. -1.
         25    2    1    2    0    0 -0.34528077701E+03  0.24258257641E+03  0.44667690752E+03  0.62707575790E+03  0.12505448849E+03 0.  0.
          2    1    1    2  501    0  0.29986315755E+03 -0.10086921799E+03  0.90507220857E+03  0.95877432961E+03  0.00000000000E+00 0. -1.
          1    1    1    2  502    0  0.45417619459E+02 -0.14171335842E+03  0.81479638030E+03  0.82827445781E+03  0.00000000000E+00 0. -1.
         22    1    3    3    0    0 -0.54853023824E+02 -0.76976571639E+01  0.41118956181E+02  0.68984612095E+02  0.00000000000E+00 0.  1.
         22    1    3    3    0    0 -0.29042775318E+03  0.25028023357E+03  0.40555795133E+03  0.55809114581E+03  0.00000000000E+00 0.  1.
</event>
<event>
 7    1  0.4402832E-005  0.2973318E+03  0.7818608E-02  0.1313961E+00
          2   -1    0    0  502    0  0.00000000000E+00  0.00000000000E+00  0.21009716712E+04  0.21009716712E+04  0.00000000000E+00 0. -1.
          1   -1    0    0  501    0 -0.00000000000E+00 -0.00000000000E+00 -0.37219870530E+03  0.37219870530E+03  0.00000000000E+00 0. -1.
         25    2    1    2    0    0 -0.29622933206E+03 -0.10964502577E+03 -0.74898838020E+02  0.34786218089E+03  0.12499764842E+03 0.  0.
          2    1    1    2  501    0  0.23677133411E+02 -0.67616906122E+01 -0.14862154965E+03  0.15064757591E+03  0.00000000000E+00 0. -1.
          1    1    1    2  502    0  0.27255219865E+03  0.11640671639E+03  0.19522933536E+04  0.19746606197E+04  0.00000000000E+00 0. -1.
         22    1    3    3    0    0 -0.87587804022E+02 -0.53261706222E+02  0.31124290904E+02  0.10713148112E+03  0.00000000000E+00 0.  1.
         22    1    3    3    0    0 -0.20864152804E+03 -0.56383319551E+02 -0.10602312892E+03  0.24073069977E+03  0.00000000000E+00 0.  1.
</event>
<event>
 7    1  0.4402832E-005  0.1698017E+03  0.7818608E-02  0.1183476E+00
          2   -1    0    0  502    0  0.00000000000E+00  0.00000000000E+00  0.24771116240E+04  0.24771116240E+04  0.00000000000E+00 0. -1.
          1   -1    0    0  501    0 -0.00000000000E+00 -0.00000000000E+00 -0.22309162239E+04  0.22309162239E+04  0.00000000000E+00 0. -1.
         25    2    1    2    0    0  0.15909064508E+03  0.26803152671E+03 -0.97852867871E+03  0.10345503047E+04  0.12500090110E+03 0.  0.
          2    1    1    2  501    0 -0.12248081304E+03 -0.10260091115E+03 -0.12162149659E+04  0.12266651295E+04  0.00000000000E+00 0. -1.
          1    1    1    2  502    0 -0.36609832033E+02 -0.16543061557E+03  0.24409390446E+04  0.24468124137E+04  0.00000000000E+00 0. -1.
         22    1    3    3    0    0  0.12562546871E+03  0.10419669572E+03 -0.39122645905E+03  0.42390665488E+03  0.00000000000E+00 0. -1.
         22    1    3    3    0    0  0.33465176362E+02  0.16383483100E+03 -0.58730221966E+03  0.61064364984E+03  0.00000000000E+00 0. -1.
</event>
<event>
 7    1  0.4402832E-005  0.7459660E+02  0.7818608E-02  0.1359603E+00
          2   -1    0    0  502    0  0.00000000000E+00  0.00000000000E+00  0.15178030946E+03  0.15178030946E+03  0.00000000000E+00 0. -1.
          1   -1    0    0  501    0 -0.00000000000E+00 -0.00000000000E+00 -0.21536504017E+03  0.21536504017E+03  0.00000000000E+00 0. -1.
         25    2    1    2    0    0  0.27368520273E+02 -0.11437140720E+03 -0.91197734226E+01  0.17186813182E+03  0.12500251910E+03 0.  0.
          2    1    1    2  501    0  0.19103777534E+02  0.67565688705E+02 -0.94794691667E+02  0.11796656380E+03  0.00000000000E+00 0. -1.
          1    1    1    2  502    0 -0.46472297806E+02  0.46805718496E+02  0.40329734380E+02  0.77310654004E+02  0.00000000000E+00 0. -1.
         22    1    3    3    0    0 -0.28334597109E+02  0.54639939052E+01 -0.25752116006E+02  0.38676557519E+02  0.00000000000E+00 0. -1.
         22    1    3    3    0    0  0.55703117382E+02 -0.11983540111E+03  0.16632342584E+02  0.13319157430E+03  0.00000000000E+00 0. -1.
</event>
<event>
 7    1  0.4402832E-005  0.7268942E+03  0.7818608E-02  0.1224884E+00
          2   -1    0    0  502    0  0.00000000000E+00  0.00000000000E+00  0.22218456532E+04  0.22218456532E+04  0.00000000000E+00 0. -1.
          1   -1    0    0  501    0 -0.00000000000E+00 -0.00000000000E+00 -0.13352086639E+04  0.13352086639E+04  0.00000000000E+00 0. -1.
         25    2    1    2    0    0 -0.56844056302E+03  0.44902004700E+03  0.19101645197E+04  0.20467283445E+04  0.12499899038E+03 0.  0.
          2    1    1    2  501    0 -0.20847510625E+02  0.11644638325E+02 -0.69158897631E+03  0.69200110438E+03  0.00000000000E+00 0. -1.
          1    1    1    2  502    0  0.58928807364E+03 -0.46066468532E+03 -0.33193855417E+03  0.81832486812E+03  0.00000000000E+00 0. -1.
         22    1    3    3    0    0 -0.13080560496E+03  0.45396174369E+02  0.41003541973E+03  0.43278165901E+03  0.00000000000E+00 0. -1.
         22    1    3    3    0    0 -0.43763495805E+03  0.40362387263E+03  0.15001291000E+04  0.16139466855E+04  0.00000000000E+00 0. -1.
</event>
<event>
 7    1  0.4800310E-005  0.1619664E+04  0.7818608E-02  0.1098999E+00
          2   -1    0    0  502    0  0.00000000000E+00  0.00000000000E+00  0.21508847285E+04  0.21508847285E+04  0.00000000000E+00 0. -1.
          1   -1    0    0  501    0 -0.00000000000E+00 -0.00000000000E+00 -0.30733897854E+04  0.30733897854E+04  0.00000000000E+00 0. -1.
         25    2    1    2    0    0 -0.76948270701E+03  0.14335694664E+04 -0.15492144434E+04  0.22500922677E+04  0.12499907965E+03 0.  0.
          2    1    1    2  501    0  0.79761297180E+03 -0.13967186303E+04 -0.62208421916E+03  0.17245283879E+04  0.00000000000E+00 0. -1.
          1    1    1    2  502    0 -0.28130264783E+02 -0.36850836170E+02  0.12487936057E+04  0.12496538583E+04  0.00000000000E+00 0. -1.
         22    1    3    3    0    0 -0.38522951646E+03  0.75009646665E+03 -0.88609927638E+03  0.12232000725E+04  0.00000000000E+00 0.  1.
         22    1    3    3    0    0 -0.38425319055E+03  0.68347299977E+03 -0.66311516704E+03  0.10268921952E+04  0.00000000000E+00 0.  1.
</event>
<event>
 7    1  0.4402832E-005  0.8727525E+03  0.7818608E-02  0.1115603E+00
          2   -1    0    0  502    0  0.00000000000E+00  0.00000000000E+00  0.12819204405E+04  0.12819204405E+04  0.00000000000E+00 0. -1.
          1   -1    0    0  501    0 -0.00000000000E+00 -0.00000000000E+00 -0.39937851644E+04  0.39937851644E+04  0.00000000000E+00 0. -1.
         25    2    1    2    0    0  0.85919896365E+03  0.34341217675E+03 -0.47449200510E+03  0.10473405235E+04  0.12499890828E+03 0.  0.
          2    1    1    2  501    0 -0.52340171258E+02 -0.45821478448E+02 -0.30466659297E+04  0.30474599896E+04  0.00000000000E+00 0. -1.
          1    1    1    2  502    0 -0.80685879239E+03 -0.29759069830E+03  0.80929321082E+03  0.11809050917E+04  0.00000000000E+00 0. -1.
         22    1    3    3    0    0  0.83871808594E+03  0.31765992229E+03 -0.47404679817E+03  0.10144339411E+04  0.00000000000E+00 0.  1.
         22    1    3    3    0    0  0.20480877705E+02  0.25752254462E+02 -0.44520693225E+00  0.32906582482E+02  0.00000000000E+00 0.  1.
</event>
<event>
 7    1  0.4402832E-005  0.2426450E+03  0.7818608E-02  0.1146891E+00
          2   -1    0    0  502    0  0.00000000000E+00  0.00000000000E+00  0.14763653511E+03  0.14763653511E+03  0.00000000000E+00 0. -1.
          1   -1    0    0  501    0 -0.00000000000E+00 -0.00000000000E+00 -0.10024306105E+04  0.10024306105E+04  0.00000000000E+00 0. -1.
         25    2    1    2    0    0 -0.25189654189E+03 -0.11086607234E+03 -0.14028181957E+03  0.33323722362E+03  0.12499961798E+03 0.  0.
          2    1    1    2  501    0  0.56879752160E+02  0.16075825616E+03 -0.19151123985E+03  0.25642752995E+03  0.00000000000E+00 0. -1.
          1    1    1    2  502    0  0.19501678973E+03 -0.49892183825E+02 -0.52300101601E+03  0.56040239207E+03  0.00000000000E+00 0. -1.
         22    1    3    3    0    0 -0.23650069612E+03 -0.13582522290E+03 -0.13032363425E+03  0.30226696824E+03  0.00000000000E+00 0. -1.
         22    1    3    3    0    0 -0.15395845765E+02  0.24959150566E+02 -0.99581853179E+01  0.30970255385E+02  0.00000000000E+00 0. -1.
</event>
<event>
 7    1  0.4402832E-005  0.6437133E+03  0.7818608E-02  0.1210484E+00
          2   -1    0    0  502    0  0.00000000000E+00  0.00000000000E+00  0.18551988235E+04  0.18551988235E+04  0.00000000000E+00 0. -1.
          1   -1    0    0  501    0 -0.00000000000E+00 -0.00000000000E+00 -0.33862596948E+03  0.33862596948E+03  0.00000000000E+00 0. -1.
         25    2    1    2    0    0  0.20427856948E+03  0.63144305496E+03  0.11900716673E+04  0.13683375441E+04  0.12500798174E+03 0.  0.
          2    1    1    2  501    0 -0.18012798751E+03 -0.61139973874E+03  0.16149502079E+03  0.65752290771E+03  0.00000000000E+00 0. -1.
          1    1    1    2  502    0 -0.24150581970E+02 -0.20043316221E+02  0.16500616593E+03  0.16796434124E+03  0.00000000000E+00 0. -1.
         22    1    3    3    0    0  0.54519717324E+02  0.30927808303E+03  0.64998684463E+03  0.72187826564E+03  0.00000000000E+00 0.  1.
         22    1    3    3    0    0  0.14975885216E+03  0.32216497193E+03  0.54008482269E+03  0.64645927841E+03  0.00000000000E+00 0.  1.
</event>
<event>
 7    1  0.4402832E-005  0.3193545E+03  0.7818608E-02  0.1115323E+00
          2   -1    0    0  502    0  0.00000000000E+00  0.00000000000E+00  0.43020328342E+03  0.43020328342E+03  0.00000000000E+00 0. -1.
          1   -1    0    0  501    0 -0.00000000000E+00 -0.00000000000E+00 -0.59765514029E+03  0.59765514029E+03  0.00000000000E+00 0. -1.
         25    2    1    2    0    0  0.40982526188E+03  0.88914195157E+02  0.12139677852E+02  0.43776112648E+03  0.12499981081E+03 0.  0.
          2    1    1    2  501    0 -0.13745778190E+03 -0.13229711702E+03 -0.24116934679E+03  0.30750580939E+03  0.00000000000E+00 0. -1.
          1    1    1    2  502    0 -0.27236747998E+03  0.43382921867E+02  0.61577812062E+02  0.28259148784E+03  0.00000000000E+00 0. -1.
         22    1    3    3    0    0  0.10659217194E+03  0.43334591679E+02  0.56056603543E+02  0.12799265899E+03  0.00000000000E+00 0. -1.
         22    1    3    3    0    0  0.30323308994E+03  0.45579603478E+02 -0.43916925691E+02  0.30976846748E+03  0.00000000000E+00 0. -1.
</event>
<event>
 7    1  0.4402832E-005  0.6284294E+03  0.7818608E-02  0.1149131E+00
          2   -1    0    0  502    0  0.00000000000E+00  0.00000000000E+00  0.84480576543E+03  0.84480576543E+03  0.00000000000E+00 0. -1.
          1   -1    0    0  501    0 -0.00000000000E+00 -0.00000000000E+00 -0.97620279606E+03  0.97620279606E+03  0.00000000000E+00 0. -1.
         25    2    1    2    0    0  0.41024167715E+03  0.48773830894E+03 -0.23142365461E+03  0.68946718293E+03  0.12498478607E+03 0.  0.
          2    1    1    2  501    0 -0.35161330129E+03 -0.51368036288E+03 -0.32464065807E+03  0.70206195291E+03  0.00000000000E+00 0. -1.
          1    1    1    2  502    0 -0.58628375860E+02  0.25942053940E+02  0.42466728205E+03  0.42947942566E+03  0.00000000000E+00 0. -1.
         22    1    3    3    0    0  0.34271785478E+03  0.41539132437E+03 -0.14405418580E+03  0.55745590749E+03  0.00000000000E+00 0.  1.
         22    1    3    3    0    0  0.67523822366E+02  0.72346984566E+02 -0.87369468812E+02  0.13201127544E+03  0.00000000000E+00 0.  1.
</event>
<event>
 7    1  0.4402832E-005  0.4516145E+03  0.7818608E-02  0.1163112E+00
          2   -1    0    0  502    0  0.00000000000E+00  0.00000000000E+00  0.78844255601E+03  0.78844255601E+03  0.00000000000E+00 0. -1.
          1   -1    0    0  501    0 -0.00000000000E+00 -0.00000000000E+00 -0.14955902541E+04  0.14955902541E+04  0.00000000000E+00 0. -1.
         25    2    1    2    0    0  0.37490632299E+03 -0.29247691965E+03 -0.75135893929E+03  0.89792166102E+03  0.12500221649E+03 0.  0.
          2    1    1    2  501    0 -0.37251471597E+03  0.21678505740E+03 -0.59928332989E+03  0.73817578138E+03  0.00000000000E+00 0. -1.
          1    1    1    2  502    0 -0.23916070230E+01  0.75691862251E+02  0.64349457106E+03  0.64793536775E+03  0.00000000000E+00 0. -1.
         22    1    3    3    0    0  0.50914635737E+02 -0.37672108783E+01 -0.13315656465E+03  0.14260842443E+03  0.00000000000E+00 0. -1.
         22    1    3    3    0    0  0.32399168725E+03 -0.28870970877E+03 -0.61820237464E+03  0.75531323659E+03  0.00000000000E+00 0. -1.
</event>
<event>
 7    1  0.4402832E-005  0.4333577E+03  0.7818608E-02  0.1165273E+00
          2   -1    0    0  502    0  0.00000000000E+00  0.00000000000E+00  0.18259429649E+04  0.18259429649E+04  0.00000000000E+00 0. -1.
          1   -1    0    0  501    0 -0.00000000000E+00 -0.00000000000E+00 -0.12763535739E+04  0.12763535739E+04  0.00000000000E+00 0. -1.
         25    2    1    2    0    0  0.40297779032E+03 -0.22630265594E+03  0.40939294270E+03  0.62994564860E+03  0.12499978831E+03 0.  0.
          2    1    1    2  501    0 -0.45316889076E+01  0.76840379199E+02 -0.11300738869E+04  0.11326923545E+04  0.00000000000E+00 0. -1.
          1    1    1    2  502    0 -0.39844610141E+03  0.14946227674E+03  0.12702703352E+04  0.13396585357E+04  0.00000000000E+00 0. -1.
         22    1    3    3    0    0  0.50155503723E+01  0.63060471806E+01  0.35539754091E+02  0.36441680771E+02  0.00000000000E+00 0.  1.
         22    1    3    3    0    0  0.39796223995E+03 -0.23260870312E+03  0.37385318861E+03  0.59350396783E+03  0.00000000000E+00 0.  1.
</event>
<event>
 7    1  0.4402832E-005  0.1510824E+04  0.7818608E-02  0.1122365E+00
          2   -1    0    0  502    0  0.00000000000E+00  0.00000000000E+00  0.39400521275E+04  0.39400521275E+04  0.00000000000E+00 0. -1.
          1   -1    0    0  501    0 -0.00000000000E+00 -0.00000000000E+00 -0.93267565424E+03  0.93267565424E+03  0.00000000000E+00 0. -1.
         25    2    1    2    0    0  0.14947222867E+04 -0.21636336639E+03  0.18124671907E+04  0.23625558226E+04  0.12499950779E+03 0.  0.
          2    1    1    2  501    0 -0.15004298140E+04  0.17988690187E+03  0.21130659680E+03  0.15258766012E+04  0.00000000000E+00 0. -1.
          1    1    1    2  502    0  0.57075272972E+01  0.36476464519E+02  0.98360268578E+03  0.98429535801E+03  0.00000000000E+00 0. -1.
         22    1    3    3    0    0  0.73296106845E+03 -0.52449462498E+02  0.93105453077E+03  0.11861051443E+04  0.00000000000E+00 0. -1.
         22    1    3    3    0    0  0.76176121821E+03 -0.16391390390E+03  0.88141265995E+03  0.11764506783E+04  0.00000000000E+00 0. -1.
</event>
<event>
 7    1  0.4402832E-005  0.3083604E+03  0.7818608E-02  0.1154085E+00
          2   -1    0    0  502    0  0.00000000000E+00  0.00000000000E+00  0.88364483726E+03  0.88364483726E+03  0.00000000000E+00 0. -1.
          1   -1    0    0  501    0 -0.00000000000E+00 -0.00000000000E+00 -0.21497954173E+03  0.21497954173E+03  0.00000000000E+00 0. -1.
         25    2    1    2    0    0  0.23672583747E+03  0.27240252121E+03  0.10529833715E+03  0.39617502850E+03  0.12499863088E+03 0.  0.
          2    1    1    2  501    0 -0.12322834065E+03  0.58064920843E+00  0.14739738720E+03  0.19212379042E+03  0.00000000000E+00 0. -1.
          1    1    1    2  502    0 -0.11349749682E+03 -0.27298317041E+03  0.41596957118E+03  0.51032556007E+03  0.00000000000E+00 0. -1.
         22    1    3    3    0    0  0.33814488381E+02  0.12668023272E+03  0.49901713425E+02  0.14029070529E+03  0.00000000000E+00 0. -1.
         22    1    3    3    0    0  0.20291134908E+03  0.14572228848E+03  0.55396623723E+02  0.25588432321E+03  0.00000000000E+00 0. -1.
</event>
<event>
 7    1  0.4402832E-005  0.5366100E+03  0.7818608E-02  0.1178200E+00
          2   -1    0    0  502    0  0.00000000000E+00  0.00000000000E+00  0.14113064669E+04  0.14113064669E+04  0.00000000000E+00 0. -1.
          1   -1    0    0  501    0 -0.00000000000E+00 -0.00000000000E+00 -0.10712840939E+04  0.10712840939E+04  0.00000000000E+00 0. -1.
         25    2    1    2    0    0  0.43119837500E+03 -0.35759970061E+03  0.69872952808E+03  0.90424440943E+03  0.12500165640E+03 0.  0.
          2    1    1    2  501    0 -0.51950222598E+02  0.13371126671E+02 -0.86000234327E+03  0.86167374515E+03  0.00000000000E+00 0. -1.
          1    1    1    2  502    0 -0.37924815240E+03  0.34422857394E+03  0.50129518814E+03  0.71667240624E+03  0.00000000000E+00 0. -1.
         22    1    3    3    0    0  0.27658498060E+02 -0.29929706119E+02  0.11089348548E+02  0.42234505733E+02  0.00000000000E+00 0. -1.
         22    1    3    3    0    0  0.40353987694E+03 -0.32766999449E+03  0.68764017953E+03  0.86200990370E+03  0.00000000000E+00 0. -1.
</event>
<event>
 7    1  0.4402832E-005  0.8203309E+03  0.7818608E-02  0.1018115E+00
          2   -1    0    0  502    0  0.00000000000E+00  0.00000000000E+00  0.27728448232E+04  0.27728448232E+04  0.00000000000E+00 0. -1.
          1   -1    0    0  501    0 -0.00000000000E+00 -0.00000000000E+00 -0.67551515912E+03  0.67551515912E+03  0.00000000000E+00 0. -1.
         25    2    1    2    0    0  0.35765315388E+03  0.68351124736E+03 -0.59552422689E+02  0.78375793234E+03  0.12500640670E+03 0.  0.
          2    1    1    2  501    0 -0.23754380082E+03 -0.94223779476E+03  0.74567519427E+03  0.12248553443E+04  0.00000000000E+00 0. -1.
          1    1    1    2  502    0 -0.12010935306E+03  0.25872654739E+03  0.14112068925E+04  0.14397467056E+04  0.00000000000E+00 0. -1.
         22    1    3    3    0    0  0.33541874588E+03  0.53625850663E+03 -0.44638663088E+02  0.63409110644E+03  0.00000000000E+00 0. -1.
         22    1    3    3    0    0  0.22234407998E+02  0.14725274073E+03 -0.14913759601E+02  0.14966682590E+03  0.00000000000E+00 0. -1.
</event>
<event>
 7    1  0.4402832E-005  0.5164512E+03  0.7818608E-02  0.1092326E+00
          2   -1    0    0  502    0  0.00000000000E+00  0.00000000000E+00  0.88314770045E+03  0.88314770045E+03  0.00000000000E+00 0. -1.
          1   -1    0    0  501    0 -0.00000000000E+00 -0.00000000000E+00 -0.13986901641E+04  0.13986901641E+04  0.00000000000E+00 0. -1.
         25    2    1    2    0    0 -0.55568266646E+02 -0.49750120916E+03 -0.78658765171E+03  0.94071291929E+03  0.12500150930E+03 0.  0.
          2    1    1    2  501    0 -0.92987848850E+02  0.55319264408E+03 -0.37573976603E+03  0.67516606348E+03  0.00000000000E+00 0. -1.
          1    1    1    2  502    0  0.14855611550E+03 -0.55691434924E+02  0.64678495410E+03  0.66595888178E+03  0.00000000000E+00 0. -1.
         22    1    3    3    0    0 -0.51798656810E+02 -0.87728428396E+02 -0.11193914356E+03  0.15135967051E+03  0.00000000000E+00 0.  1.
         22    1    3    3    0    0 -0.37696098363E+01 -0.40977278076E+03 -0.67464850815E+03  0.78935324878E+03  0.00000000000E+00 0.  1.
</event>
<event>
 7    1  0.4402832E-005  0.1565070E+03  0.7818608E-02  0.1250423E+00
          2   -1    0    0  502    0  0.00000000000E+00  0.00000000000E+00  0.23780804641E+04  0.23780804641E+04  0.00000000000E+00 0. -1.
          1   -1    0    0  501    0 -0.00000000000E+00 -0.00000000000E+00 -0.95265988075E+03  0.95265988075E+03  0.00000000000E+00 0. -1.
         25    2    1    2    0    0  0.94968472390E+02 -0.17042675117E+03  0.79743881828E+03  0.83041956664E+03  0.12499479785E+03 0.  0.
          2    1    1    2  501    0 -0.83146765848E+02  0.19845124219E+02 -0.93055945511E+03  0.93447745459E+03  0.00000000000E+00 0. -1.
          1    1    1    2  502    0 -0.11821706542E+02  0.15058162695E+03  0.15585412202E+04  0.15658433237E+04  0.00000000000E+00 0. -1.
         22    1    3    3    0    0  0.98810722375E+02 -0.49689607201E+02  0.40255074176E+03  0.41746822108E+03  0.00000000000E+00 0.  1.
         22    1    3    3    0    0 -0.38422499848E+01 -0.12073714397E+03  0.39488807652E+03  0.41295134556E+03  0.00000000000E+00 0.  1.
</event>
<event>
 7    1  0.4402832E-005  0.2233692E+03  0.7818608E-02  0.1192818E+00
          2   -1    0    0  502    0  0.00000000000E+00  0.00000000000E+00  0.87214874518E+03  0.87214874518E+03  0.00000000000E+00 0. -1.
          1   -1    0    0  501    0 -0.00000000000E+00 -0.00000000000E+00 -0.20404569187E+03  0.20404569187E+03  0.00000000000E+00 0. -1.
         25    2    1    2    0    0  0.48509877657E+02 -0.27119168493E+03  0.32723185297E+03  0.44564935471E+03  0.12499809419E+03 0.  0.
          2    1    1    2  501    0 -0.86441678331E+02  0.67239903682E+02 -0.96822952393E+02  0.14617815333E+03  0.00000000000E+00 0. -1.
          1    1    1    2  502    0  0.37931800674E+02  0.20395178125E+03  0.43769415273E+03  0.48436692900E+03  0.00000000000E+00 0. -1.
         22    1    3    3    0    0 -0.24672432003E+02 -0.37859964255E+02  0.12128138393E+02  0.46788861230E+02  0.00000000000E+00 0.  1.
         22    1    3    3    0    0  0.73182309659E+02 -0.23333172067E+03  0.31510371458E+03  0.39886049348E+03  0.00000000000E+00 0.  1.
</event>
<event>
 7    1  0.4402832E-005  0.1292039E+03  0.7818608E-02  0.1246253E+00
          2   -1    0    0  502    0  0.00000000000E+00  0.00000000000E+00  0.22652936421E+03  0.22652936421E+03  0.00000000000E+00 0. -1.
          1   -1    0    0  501    0 -0.00000000000E+00 -0.00000000000E+00 -0.29162449981E+03  0.29162449981E+03  0.00000000000E+00 0. -1.
         25    2    1    2    0    0  0.18372891968E+02 -0.15716909884E+03  0.10330477214E+03  0.22657554647E+03  0.12499965409E+03 0.  0.
          2    1    1    2  501    0  0.68203058574E+02  0.83692529052E+02 -0.13570473973E+03  0.17341243612E+03  0.00000000000E+00 0. -1.
          1    1    1    2  502    0 -0.86575950542E+02  0.73476569786E+02 -0.32695168015E+02  0.11816588142E+03  0.00000000000E+00 0. -1.
         22    1    3    3    0    0  0.88221207503E+01 -0.15433716684E+03  0.36246801443E+02  0.15878167872E+03  0.00000000000E+00 0.  1.
         22    1    3    3    0    0  0.95507712177E+01 -0.28319319947E+01  0.67057970700E+02  0.67793867747E+02  0.00000000000E+00 0.  1.
</event>
<event>
 7    1  0.4402832E-005  0.1011100E+03  0.7818608E-02  0.1364764E+00
          2   -1    0    0  502    0  0.00000000000E+00  0.00000000000E+00  0.24045923793E+04  0.24045923793E+04  0.00000000000E+00 0. -1.
          1   -1    0    0  501    0 -0.00000000000E+00 -0.00000000000E+00 -0.58784889769E+02  0.58784889769E+02  0.00000000000E+00 0. -1.
         25    2    1    2    0    0  0.35840678399E+02  0.10125320783E+03  0.21068897816E+04  0.21133257498E+04  0.12499762781E+03 0.  0.
          2    1    1    2  501    0  0.30002904264E+02 -0.35660973549E+02 -0.36614824235E+02  0.59266555936E+02  0.00000000000E+00 0. -1.
          1    1    1    2  502    0 -0.65843582663E+02 -0.65592234276E+02  0.27553253219E+03  0.29078496328E+03  0.00000000000E+00 0. -1.
         22    1    3    3    0    0  0.55401430793E+02  0.94185240360E+02  0.20472375057E+04  0.20501516000E+04  0.00000000000E+00 0.  1.
         22    1    3    3    0    0 -0.19560752394E+02  0.70679674653E+01  0.59652275828E+02  0.63174149854E+02  0.00000000000E+00 0.  1.
</event>
<event>
 7    1  0.4402832E-005  0.1531805E+03  0.7818608E-02  0.1258714E+00
          2   -1    0    0  502    0  0.00000000000E+00  0.00000000000E+00  0.32027911761E+04  0.32027911761E+04  0.00000000000E+00 0. -1.
          1   -1    0    0  501    0 -0.00000000000E+00 -0.00000000000E+00 -0.36579305270E+02  0.36579305270E+02  0.00000000000E+00 0. -1.
         25    2    1    2    0    0  0.77846348094E+02  0.20261562641E+03  0.11323412957E+04  0.11597133512E+04  0.12500040455E+03 0.  0.
          2    1    1    2  501    0 -0.48917003058E+02 -0.63865769322E+02  0.59138547606E+02  0.99845267751E+02  0.00000000000E+00 0. -1.
          1    1    1    2  502    0 -0.28929345035E+02 -0.13874985709E+03  0.19747320275E+04  0.19798118624E+04  0.00000000000E+00 0. -1.
         22    1    3    3    0    0  0.11584699046E+02  0.15245552803E+03  0.90137462703E+03  0.91425002682E+03  0.00000000000E+00 0.  1.
         22    1    3    3    0    0  0.66261649048E+02  0.50160098381E+02  0.23096666862E+03  0.24546332438E+03  0.00000000000E+00 0.  1.
</event>
<event>
 7    1  0.4402832E-005  0.4748185E+03  0.7818608E-02  0.1135941E+00
          2   -1    0    0  502    0  0.00000000000E+00  0.00000000000E+00  0.98216357024E+03  0.98216357024E+03  0.00000000000E+00 0. -1.
          1   -1    0    0  501    0 -0.00000000000E+00 -0.00000000000E+00 -0.51074842930E+03  0.51074842930E+03  0.00000000000E+00 0. -1.
         25    2    1    2    0    0 -0.52853302551E+02  0.48030884060E+03  0.55538698527E+03  0.74669725271E+03  0.12494810866E+03 0.  0.
          2    1    1    2  501    0  0.98099450756E+02 -0.16101327420E+02 -0.23565232614E+03  0.25576312049E+03  0.00000000000E+00 0. -1.
          1    1    1    2  502    0 -0.45246148205E+02 -0.46420751318E+03  0.15168048182E+03  0.49045162634E+03  0.00000000000E+00 0. -1.
         22    1    3    3    0    0  0.28448363243E+02  0.12381313977E+03  0.19903824672E+03  0.23612544677E+03  0.00000000000E+00 0.  1.
         22    1    3    3    0    0 -0.81301665794E+02  0.35649570082E+03  0.35634873854E+03  0.51057180595E+03  0.00000000000E+00 0.  1.
</event>
<event>
 7    1  0.4402832E-005  0.3520241E+03  0.7818608E-02  0.1135757E+00
          2   -1    0    0  502    0  0.00000000000E+00  0.00000000000E+00  0.93317555715E+03  0.93317555715E+03  0.00000000000E+00 0. -1.
          1   -1    0    0  501    0 -0.00000000000E+00 -0.00000000000E+00 -0.34590118312E+03  0.34590118312E+03  0.00000000000E+00 0. -1.
         25    2    1    2    0    0  0.11020263628E+03 -0.32069821253E+03  0.68263539639E+03  0.77240408798E+03  0.12500010464E+03 0.  0.
          2    1    1    2  501    0  0.18645033900E+02  0.35889146223E+03 -0.41005704665E+02  0.36170732197E+03  0.00000000000E+00 0. -1.
          1    1    1    2  502    0 -0.12884767019E+03 -0.38193249696E+02 -0.54355317700E+02  0.14496533033E+03  0.00000000000E+00 0. -1.
         22    1    3    3    0    0  0.12814744076E+02 -0.78224596211E+01 -0.19891665105E+00  0.15014929506E+02  0.00000000000E+00 0. -1.
         22    1    3    3    0    0  0.97387892209E+02 -0.31287575291E+03  0.68283431304E+03  0.75738915847E+03  0.00000000000E+00 0. -1.
</event>
<event>
 7    1  0.4402832E-005  0.9515092E+03  0.7818608E-02  0.1047868E+00
          2   -1    0    0  502    0  0.00000000000E+00  0.00000000000E+00  0.14678065574E+04  0.14678065574E+04  0.00000000000E+00 0. -1.
          1   -1    0    0  501    0 -0.00000000000E+00 -0.00000000000E+00 -0.17272543666E+04  0.17272543666E+04  0.00000000000E+00 0. -1.
         25    2    1    2    0    0  0.22482262033E+03 -0.91669809473E+03 -0.40455103085E+03  0.10344891814E+04  0.12500288911E+03 0.  0.
          2    1    1    2  501    0 -0.38005574755E+03  0.88443370590E+03 -0.76945853100E+03  0.12323683631E+04  0.00000000000E+00 0. -1.
          1    1    1    2  502    0  0.15523312722E+03  0.32264388828E+02  0.91456175265E+03  0.92820337965E+03  0.00000000000E+00 0. -1.
         22    1    3    3    0    0  0.12839479554E+02 -0.12633755399E+02  0.62881521483E+01  0.19078911608E+02  0.00000000000E+00 0. -1.
         22    1    3    3    0    0  0.21198314078E+03 -0.90406433933E+03 -0.41083918300E+03  0.10154102697E+04  0.00000000000E+00 0. -1.
</event>
<event>
 7    1  0.4402832E-005  0.2763983E+03  0.7818608E-02  0.1291741E+00
          2   -1    0    0  502    0  0.00000000000E+00  0.00000000000E+00  0.16183651731E+04  0.16183651731E+04  0.00000000000E+00 0. -1.
          1   -1    0    0  501    0 -0.00000000000E+00 -0.00000000000E+00 -0.24252696715E+04  0.24252696715E+04  0.00000000000E+00 0. -1.
         25    2    1    2    0    0  0.26891518542E+03 -0.69346239141E+02  0.15537448891E+04  0.15833106459E+04  0.12500057283E+03 0.  0.
          2    1    1    2  501    0 -0.24528311859E+02  0.21291723177E+02 -0.20983915462E+04  0.20986429083E+04  0.00000000000E+00 0. -1.
          1    1    1    2  502    0 -0.24438687356E+03  0.48054515964E+02 -0.26225784135E+03  0.36168129040E+03  0.00000000000E+00 0. -1.
         22    1    3    3    0    0  0.22022531495E+03 -0.86055596939E+02  0.10179602527E+04  0.10450587693E+04  0.00000000000E+00 0. -1.
         22    1    3    3    0    0  0.48689870469E+02  0.16709357798E+02  0.53578463632E+03  0.53825187658E+03  0.00000000000E+00 0. -1.
</event>
<event>
 7    1  0.4402832E-005  0.1172539E+04  0.7818608E-02  0.1132257E+00
          2   -1    0    0  502    0  0.00000000000E+00  0.00000000000E+00  0.29771924992E+04  0.29771924992E+04  0.00000000000E+00 0. -1.
          1   -1    0    0  501    0 -0.00000000000E+00 -0.00000000000E+00 -0.28915196584E+04  0.28915196584E+04  0.00000000000E+00 0. -1.
         25    2    1    2    0    0 -0.63544006452E+03 -0.94533489973E+03 -0.74423344497E+03  0.13663634958E+04  0.12499453557E+03 0.  0.
          2    1    1    2  501    0 -0.49527282705E+01 -0.41813484702E+02 -0.17061195859E+04  0.17066390768E+04  0.00000000000E+00 0. -1.
          1    1    1    2  502    0  0.64039279279E+03  0.98714838443E+03  0.25360258717E+04  0.27957095850E+04  0.00000000000E+00 0. -1.
         22    1    3    3    0    0 -0.32459593970E+03 -0.39425549320E+03 -0.37744910259E+03  0.63503365504E+03  0.00000000000E+00 0.  1.
         22    1    3    3    0    0 -0.31084412482E+03 -0.55107940653E+03 -0.36678434238E+03  0.73132984080E+03  0.00000000000E+00 0.  1.
</event>
<event>
 7    1  0.4402832E-005  0.6127177E+02  0.7818608E-02  0.1407608E+00
          2   -1    0    0  502    0  0.00000000000E+00  0.00000000000E+00  0.74774078648E+03  0.74774078648E+03  0.00000000000E+00 0. -1.
          1   -1    0    0  501    0 -0.00000000000E+00 -0.00000000000E+00 -0.30426952669E+03  0.30426952669E+03  0.00000000000E+00 0. -1.
         25    2    1    2    0    0 -0.49798282427E+02 -0.50183993152E+02 -0.10364986170E+03  0.17710673782E+03  0.12500080260E+03 0.  0.
          2    1    1    2  501    0  0.53245996191E+02 -0.11121598823E+02 -0.15800657775E+03  0.16710746447E+03  0.00000000000E+00 0. -1.
          1    1    1    2  502    0 -0.34477137640E+01  0.61305591975E+02  0.70512769924E+03  0.70779611088E+03  0.00000000000E+00 0. -1.
         22    1    3    3    0    0 -0.11903402802E+02 -0.87619513098E+02 -0.78324158178E+02  0.11812511938E+03  0.00000000000E+00 0. -1.
         22    1    3    3    0    0 -0.37894879625E+02  0.37435519945E+02 -0.25325703525E+02  0.58981618445E+02  0.00000000000E+00 0. -1.
</event>
<event>
 7    1  0.4402832E-005  0.1434748E+03  0.7818608E-02  0.1211562E+00
          2   -1    0    0  502    0  0.00000000000E+00  0.00000000000E+00  0.10381814371E+03  0.10381814371E+03  0.00000000000E+00 0. -1.
          1   -1    0    0  501    0 -0.00000000000E+00 -0.00000000000E+00 -0.24071274842E+04  0.24071274842E+04  0.00000000000E+00 0. -1.
         25    2    1    2    0    0  0.17985039726E+03 -0.12241234312E+03 -0.50958715723E+03  0.56800957030E+03  0.12499941599E+03 0.  0.
          2    1    1    2  501    0 -0.14006203289E+03 -0.10979798332E+02 -0.17981848240E+04  0.18036647666E+04  0.00000000000E+00 0. -1.
          1    1    1    2  502    0 -0.39788364372E+02  0.13339214145E+03  0.44626407327E+01  0.13927129102E+03  0.00000000000E+00 0. -1.
         22    1    3    3    0    0  0.12133004646E+03 -0.65069195307E+02 -0.43827088230E+03  0.45938692474E+03  0.00000000000E+00 0. -1.
         22    1    3    3    0    0  0.58520350800E+02 -0.57343147810E+02 -0.71316274929E+02  0.10862264556E+03  0.00000000000E+00 0. -1.
</event>
<event>
 7    1  0.4402832E-005  0.1563603E+03  0.7818608E-02  0.1238934E+00
          2   -1    0    0  502    0  0.00000000000E+00  0.00000000000E+00  0.86099239468E+03  0.86099239468E+03  0.00000000000E+00 0. -1.
          1   -1    0    0  501    0 -0.00000000000E+00 -0.00000000000E+00 -0.60377493866E+03  0.60377493866E+03  0.00000000000E+00 0. -1.
         25    2    1    2    0    0 -0.20046341324E+03 -0.11506716776E+03 -0.51074652629E+03  0.57438003707E+03  0.12499751887E+03 0.  0.
          2    1    1    2  501    0  0.48346960118E+02  0.83012007394E+02 -0.10422904167E+02  0.96628457793E+02  0.00000000000E+00 0. -1.
          1    1    1    2  502    0  0.15211645312E+03  0.32055160370E+02  0.77838688648E+03  0.79375883848E+03  0.00000000000E+00 0. -1.
         22    1    3    3    0    0  0.11392304344E+02 -0.34973509119E+01 -0.19718233327E+01  0.12079078977E+02  0.00000000000E+00 0.  1.
         22    1    3    3    0    0 -0.21185571758E+03 -0.11156981685E+03 -0.50877470296E+03  0.56230095809E+03  0.00000000000E+00 0.  1.
</event>
<event>
 7    1  0.4402832E-005  0.6535111E+03  0.7818608E-02  0.1076192E+00
          2   -1    0    0  502    0  0.00000000000E+00  0.00000000000E+00  0.79972826107E+03  0.79972826107E+03  0.00000000000E+00 0. -1.
          1   -1    0    0  501    0 -0.00000000000E+00 -0.00000000000E+00 -0.14388414858E+04  0.14388414858E+04  0.00000000000E+00 0. -1.
         25    2    1    2    0    0  0.76844134833E+03 -0.57357866775E+02 -0.44025309156E+03  0.89623632145E+03  0.12499891421E+03 0.  0.
          2    1    1    2  501    0 -0.15165773350E+03 -0.34545368262E+02 -0.58737083357E+03  0.60761661163E+03  0.00000000000E+00 0. -1.
          1    1    1    2  502    0 -0.61678361482E+03  0.91903235037E+02  0.38851070040E+03  0.73471681378E+03  0.00000000000E+00 0. -1.
         22    1    3    3    0    0  0.31742141719E+03 -0.33185732403E+02 -0.11335961031E+03  0.33868576908E+03  0.00000000000E+00 0. -1.
         22    1    3    3    0    0  0.45101993114E+03 -0.24172134373E+02 -0.32689348125E+03  0.55755055237E+03  0.00000000000E+00 0. -1.
</event>
<event>
 7    1  0.4402832E-005  0.7254578E+03  0.7818608E-02  0.1174209E+00
          2   -1    0    0  502    0  0.00000000000E+00  0.00000000000E+00  0.22412711857E+04  0.22412711857E+04  0.00000000000E+00 0. -1.
          1   -1    0    0  501    0 -0.00000000000E+00 -0.00000000000E+00 -0.53718915838E+03  0.53718915838E+03  0.00000000000E+00 0. -1.
         25    2    1    2    0    0  0.32865787922E+03  0.68042230563E+03  0.30469471026E+03  0.82429023242E+03  0.12500002091E+03 0.  0.
          2    1    1    2  501    0 -0.47097651696E+01 -0.41243642097E+02 -0.19858787431E+03  0.20288017085E+03  0.00000000000E+00 0. -1.
          1    1    1    2  502    0 -0.32394811406E+03 -0.63917866353E+03  0.15979751913E+04  0.17512899408E+04  0.00000000000E+00 0. -1.
         22    1    3    3    0    0  0.27732445232E+03  0.63516797848E+03  0.25033896355E+03  0.73689674270E+03  0.00000000000E+00 0.  1.
         22    1    3    3    0    0  0.51333426908E+02  0.45254327148E+02  0.54355746711E+02  0.87393489713E+02  0.00000000000E+00 0.  1.
</event>
<event>
 7    1  0.4402832E-005  0.1918048E+03  0.7818608E-02  0.1242845E+00
          2   -1    0    0  502    0  0.00000000000E+00  0.00000000000E+00  0.69388096390E+02  0.69388096390E+02  0.00000000000E+00 0. -1.
          1   -1    0    0  501    0 -0.00000000000E+00 -0.00000000000E+00 -0.11825349458E+04  0.11825349458E+04  0.00000000000E+00 0. -1.
         25    2    1    2    0    0  0.15997113126E+03  0.11710281085E+02 -0.20224371466E+03  0.28680192818E+03  0.12499972948E+03 0.  0.
          2    1    1    2  501    0 -0.20725189110E+03  0.46854104952E+02 -0.44440103592E+03  0.49258596635E+03  0.00000000000E+00 0. -1.
          1    1    1    2  502    0  0.47280759839E+02 -0.58564386038E+02 -0.46650209882E+03  0.47253514765E+03  0.00000000000E+00 0. -1.
         22    1    3    3    0    0  0.17779664631E+03  0.97570331346E+01 -0.15430900707E+03  0.23562282741E+03  0.00000000000E+00 0.  1.
         22    1    3    3    0    0 -0.17825515049E+02  0.19532479505E+01 -0.47934707586E+02  0.51179100770E+02  0.00000000000E+00 0.  1.
</event>
<event>
 7    1  0.4402832E-005  0.8300513E+03  0.7818608E-02  0.1228819E+00
          2   -1    0    0  502    0  0.00000000000E+00  0.00000000000E+00  0.74198124406E+03  0.74198124406E+03  0.00000000000E+00 0. -1.
          1   -1    0    0  501    0 -0.00000000000E+00 -0.00000000000E+00 -0.17740885074E+04  0.17740885074E+04  0.00000000000E+00 0. -1.
         25    2    1    2    0    0 -0.45625055253E+03 -0.70702599718E+03 -0.53051400216E+03  0.10025568456E+04  0.12499917885E+03 0.  0.
          2    1    1    2  501    0  0.44172039289E+03  0.69317413912E+03 -0.83957002383E+03  0.11749404740E+04  0.00000000000E+00 0. -1.
          1    1    1    2  502    0  0.14530159639E+02  0.13851858061E+02  0.33797676266E+03  0.33857243185E+03  0.00000000000E+00 0. -1.
         22    1    3    3    0    0 -0.24421389844E+03 -0.40713754693E+03 -0.36916022804E+03  0.60139893937E+03  0.00000000000E+00 0. -1.
         22    1    3    3    0    0 -0.21203665409E+03 -0.29988845025E+03 -0.16135377411E+03  0.40115790618E+03  0.00000000000E+00 0. -1.
</event>
<event>
 7    1  0.4402832E-005  0.2492260E+03  0.7818608E-02  0.1233755E+00
          2   -1    0    0  502    0  0.00000000000E+00  0.00000000000E+00  0.16876819866E+04  0.16876819866E+04  0.00000000000E+00 0. -1.
          1   -1    0    0  501    0 -0.00000000000E+00 -0.00000000000E+00 -0.38543340401E+03  0.38543340401E+03  0.00000000000E+00 0. -1.
         25    2    1    2    0    0  0.21910482074E+03  0.11627112526E+03 -0.31154711113E+03  0.41738722270E+03  0.12499837669E+03 0.  0.
          2    1    1    2  501    0 -0.21163262801E+03 -0.17937455875E+03  0.97262478560E+03  0.10114161236E+04  0.00000000000E+00 0. -1.
          1    1    1    2  502    0 -0.74721927315E+01  0.63103433489E+02  0.64117090817E+03  0.64431204433E+03  0.00000000000E+00 0. -1.
         22    1    3    3    0    0  0.18651183446E+03  0.93307097725E+02 -0.16621093266E+03  0.26668136983E+03  0.00000000000E+00 0. -1.
         22    1    3    3    0    0  0.32592986281E+02  0.22964027540E+02 -0.14533617847E+03  0.15070585287E+03  0.00000000000E+00 0. -1.
</event>
<event>
 7    1  0.4402832E-005  0.2249048E+03  0.7818608E-02  0.1142965E+00
          2   -1    0    0  502    0  0.00000000000E+00  0.00000000000E+00  0.48310507460E+03  0.48310507460E+03  0.00000000000E+00 0. -1.
          1   -1    0    0  501    0 -0.00000000000E+00 -0.00000000000E+00 -0.98045825359E+03  0.98045825359E+03  0.00000000000E+00 0. -1.
         25    2    1    2    0    0 -0.23751064980E+03  0.16727051102E+03 -0.20031100751E+03  0.37433378329E+03  0.12494218244E+03 0.  0.
          2    1    1    2  501    0  0.18581321346E+03  0.51488955739E+02 -0.64598769682E+03  0.67414966239E+03  0.00000000000E+00 0. -1.
          1    1    1    2  502    0  0.51697436340E+02 -0.21875946676E+03  0.34894552533E+03  0.41507988252E+03  0.00000000000E+00 0. -1.
         22    1    3    3    0    0 -0.88459207156E+02  0.26455606740E+02 -0.12605692669E+03  0.15625389347E+03  0.00000000000E+00 0.  1.
         22    1    3    3    0    0 -0.14905144265E+03  0.14081490428E+03 -0.74254080817E+02  0.21807988981E+03  0.00000000000E+00 0.  1.
</event>
<event>
 7    1  0.5242076E-005  0.2871333E+03  0.7818608E-02  0.1158746E+00
          2   -1    0    0  502    0  0.00000000000E+00  0.00000000000E+00  0.20500753054E+04  0.20500753054E+04  0.00000000000E+00 0. -1.
          1   -1    0    0  501    0 -0.00000000000E+00 -0.00000000000E+00 -0.20876947656E+04  0.20876947656E+04  0.00000000000E+00 0. -1.
         25    2    1    2    0    0 -0.23699196792E+03 -0.32448125863E+03 -0.17567329925E+04  0.18064301736E+04  0.12500354099E+03 0.  0.
          2    1    1    2  501    0  0.36420076534E+02  0.11989991161E+03 -0.28264781943E+03  0.30917988390E+03  0.00000000000E+00 0. -1.
          1    1    1    2  502    0  0.20057189139E+03  0.20458134701E+03  0.20017613516E+04  0.20221600135E+04  0.00000000000E+00 0. -1.
         22    1    3    3    0    0 -0.15058964982E+03 -0.11205573347E+03 -0.91241296615E+03  0.93152088051E+03  0.00000000000E+00 0. -1.
         22    1    3    3    0    0 -0.86402318103E+02 -0.21242552515E+03 -0.84432002631E+03  0.87490929310E+03  0.00000000000E+00 0. -1.
</event>
<event>
 7    1  0.4402832E-005  0.5826707E+03  0.7818608E-02  0.1113501E+00
          2   -1    0    0  502    0  0.00000000000E+00  0.00000000000E+00  0.14411443713E+04  0.14411443713E+04  0.00000000000E+00 0. -1.
          1   -1    0    0  501    0 -0.00000000000E+00 -0.00000000000E+00 -0.99799695318E+03  0.99799695318E+03  0.00000000000E+00 0. -1.
         25    2    1    2    0    0  0.54740577057E+03  0.23467558874E+03  0.12433900301E+04  0.13843293287E+04  0.12499285470E+03 0.  0.
          2    1    1    2  501    0 -0.10489771591E+03 -0.21098490262E+02 -0.42027273521E+03  0.43367943121E+03  0.00000000000E+00 0. -1.
          1    1    1    2  502    0 -0.44250805465E+03 -0.21357709848E+03 -0.37996987682E+03  0.62113256453E+03  0.00000000000E+00 0. -1.
         22    1    3    3    0    0  0.23030221320E+03  0.61313461702E+02  0.38267244694E+03  0.45081775878E+03  0.00000000000E+00 0. -1.
         22    1    3    3    0    0  0.31710355737E+03  0.17336212704E+03  0.86071758318E+03  0.93351156992E+03  0.00000000000E+00 0. -1.
</event>
<event>
 7    1  0.4402832E-005  0.1180838E+04  0.7818608E-02  0.1047916E+00
          2   -1    0    0  502    0  0.00000000000E+00  0.00000000000E+00  0.98110581053E+03  0.98110581053E+03  0.00000000000E+00 0. -1.
          1   -1    0    0  501    0 -0.00000000000E+00 -0.00000000000E+00 -0.28265637957E+04  0.28265637957E+04  0.00000000000E+00 0. -1.
         25    2    1    2    0    0 -0.16185905528E+03 -0.11552462758E+04 -0.35018359421E+03  0.12243540055E+04  0.12498747715E+03 0.  0.
          2    1    1    2  501    0 -0.12757353784E+03 -0.50268812543E+01 -0.13756021862E+04  0.13815142604E+04  0.00000000000E+00 0. -1.
          1    1    1    2  502    0  0.28943259312E+03  0.11602731571E+04 -0.11967220476E+03  0.12018013403E+04  0.00000000000E+00 0. -1.
         22    1    3    3    0    0 -0.11663297137E+03 -0.68098720382E+03 -0.26719199306E+03  0.74076877832E+03  0.00000000000E+00 0. -1.
         22    1    3    3    0    0 -0.45226083909E+02 -0.47425907202E+03 -0.82991601151E+02  0.48358522715E+03  0.00000000000E+00 0. -1.
</event>
<event>
 7    1  0.4402832E-005  0.5540154E+03  0.7818608E-02  0.1153032E+00
          2   -1    0    0  502    0  0.00000000000E+00  0.00000000000E+00  0.42665627878E+04  0.42665627878E+04  0.00000000000E+00 0. -1.
          1   -1    0    0  501    0 -0.00000000000E+00 -0.00000000000E+00 -0.86208201534E+03  0.86208201534E+03  0.00000000000E+00 0. -1.
         25    2    1    2    0    0 -0.54252275060E+03 -0.15707320517E+03  0.34059538867E+04  0.34547286358E+04  0.12500056793E+03 0.  0.
          2    1    1    2  501    0  0.59487660213E+02 -0.35829604040E+02 -0.75506686939E+03  0.75825359841E+03  0.00000000000E+00 0. -1.
          1    1    1    2  502    0  0.48303509039E+03  0.19290280921E+03  0.75359375518E+03  0.91566256896E+03  0.00000000000E+00 0. -1.
         22    1    3    3    0    0 -0.21315841480E+03 -0.95899980914E+02  0.10991879883E+04  0.11237648997E+04  0.00000000000E+00 0. -1.
         22    1    3    3    0    0 -0.32936433581E+03 -0.61173224256E+02  0.23067658984E+04  0.23309637361E+04  0.00000000000E+00 0. -1.
</event>
<event>
 7    1  0.4402832E-005  0.8930126E+02  0.7818608E-02  0.1372392E+00
          2   -1    0    0  502    0  0.00000000000E+00  0.00000000000E+00  0.60463885606E+03  0.60463885606E+03  0.00000000000E+00 0. -1.
          1   -1    0    0  501    0 -0.00000000000E+00 -0.00000000000E+00 -0.16806982564E+03  0.16806982564E+03  0.00000000000E+00 0. -1.
         25    2    1    2    0    0 -0.11676682473E+03 -0.18680536902E+02  0.16418136180E+03  0.23783028880E+03  0.12499709153E+03 0.  0.
          2    1    1    2  501    0  0.85500007067E+02 -0.19733685714E+02 -0.11482286784E+03  0.14451283867E+03  0.00000000000E+00 0. -1.
          1    1    1    2  502    0  0.31266817659E+02  0.38414222616E+02  0.38721053646E+03  0.39036555424E+03  0.00000000000E+00 0. -1.
         22    1    3    3    0    0 -0.95742871883E+02 -0.14924632173E+01  0.29146828055E+02  0.10009227017E+03  0.00000000000E+00 0. -1.
         22    1    3    3    0    0 -0.21023952842E+02 -0.17188073685E+02  0.13503453374E+03  0.13773801862E+03  0.00000000000E+00 0. -1.
</event>
<event>
 7    1  0.4402832E-005  0.3466360E+03  0.7818608E-02  0.1117482E+00
          2   -1    0    0  502    0  0.00000000000E+00  0.00000000000E+00  0.39581836741E+03  0.39581836741E+03  0.00000000000E+00 0. -1.
          1   -1    0    0  501    0 -0.00000000000E+00 -0.00000000000E+00 -0.95580297875E+03  0.95580297875E+03  0.00000000000E+00 0. -1.
         25    2    1    2    0    0  0.25765039531E+03 -0.15082315600E+02 -0.58889555386E+03  0.65500612921E+03  0.12499541388E+03 0.  0.
          2    1    1    2  501    0  0.80580898057E+02  0.15088277303E+03 -0.20235127622E+03  0.26496213186E+03  0.00000000000E+00 0. -1.
          1    1    1    2  502    0 -0.33823129337E+03 -0.13580045743E+03  0.23126221874E+03  0.43165308509E+03  0.00000000000E+00 0. -1.
         22    1    3    3    0    0  0.13410841372E+03  0.38602302482E+02 -0.39487799674E+03  0.41881241230E+03  0.00000000000E+00 0.  1.
         22    1    3    3    0    0  0.12354198159E+03 -0.53684618082E+02 -0.19401755712E+03  0.23619371691E+03  0.00000000000E+00 0.  1.
</event>
<event>
 7    1  0.4402832E-005  0.5117731E+03  0.7818608E-02  0.1236476E+00
          2   -1    0    0  502    0  0.00000000000E+00  0.00000000000E+00  0.18061901677E+04  0.18061901677E+04  0.00000000000E+00 0. -1.
          1   -1    0    0  501    0 -0.00000000000E+00 -0.00000000000E+00 -0.87137081748E+03  0.87137081748E+03  0.00000000000E+00 0. -1.
         25    2    1    2    0    0  0.50913605876E+03 -0.75259032722E+02 -0.35630093357E+03  0.63832477252E+03  0.12499884646E+03 0.  0.
          2    1    1    2  501    0 -0.49809888183E+03  0.10325727033E+03 -0.20089187182E+03  0.54692056473E+03  0.00000000000E+00 0. -1.
          1    1    1    2  502    0 -0.11037176924E+02 -0.27998237606E+02  0.14920121556E+04  0.14923156479E+04  0.00000000000E+00 0. -1.
         22    1    3    3    0    0  0.26747524920E+03 -0.10109866395E+03 -0.17683461849E+03  0.33620593553E+03  0.00000000000E+00 0. -1.
         22    1    3    3    0    0  0.24166080956E+03  0.25839631228E+02 -0.17946631508E+03  0.30211883699E+03  0.00000000000E+00 0. -1.
</event>
<event>
 7    1  0.4402832E-005  0.5554201E+02  0.7818608E-02  0.1424139E+00
          2   -1    0    0  502    0  0.00000000000E+00  0.00000000000E+00  0.53263349085E+02  0.53263349085E+02  0.00000000000E+00 0. -1.
          1   -1    0    0  501    0 -0.00000000000E+00 -0.00000000000E+00 -0.76965661092E+03  0.76965661092E+03  0.00000000000E+00 0. -1.
         25    2    1    2    0    0 -0.70788641343E+01 -0.82815166714E+01 -0.19600003457E+03  0.23272230176E+03  0.12499984940E+03 0.  0.
          2    1    1    2  501    0  0.50546264770E+02 -0.26294478486E+02 -0.53066402652E+03  0.53371399974E+03  0.00000000000E+00 0. -1.
          1    1    1    2  502    0 -0.43467400635E+02  0.34575995158E+02  0.10270799262E+02  0.56483658492E+02  0.00000000000E+00 0. -1.
         22    1    3    3    0    0 -0.44168353282E+02  0.17355000447E+02 -0.17792838917E+03  0.18414817714E+03  0.00000000000E+00 0.  1.
         22    1    3    3    0    0  0.37089489148E+02 -0.25636517118E+02 -0.18071645403E+02  0.48574124622E+02  0.00000000000E+00 0.  1.
</event>
<event>
 7    1  0.4402832E-005  0.8557732E+02  0.7818608E-02  0.1391127E+00
          2   -1    0    0  502    0  0.00000000000E+00  0.00000000000E+00  0.58119300282E+03  0.58119300282E+03  0.00000000000E+00 0. -1.
          1   -1    0    0  501    0 -0.00000000000E+00 -0.00000000000E+00 -0.10000596712E+04  0.10000596712E+04  0.00000000000E+00 0. -1.
         25    2    1    2    0    0 -0.82036798734E+02  0.10824334966E+01  0.40577349748E+03  0.43244489106E+03  0.12500097815E+03 0.  0.
          2    1    1    2  501    0  0.73137825487E+02 -0.44561111459E+02 -0.98178652624E+03  0.98551489957E+03  0.00000000000E+00 0. -1.
          1    1    1    2  502    0  0.88989732468E+01  0.43478677962E+02  0.15714636041E+03  0.16329288335E+03  0.00000000000E+00 0. -1.
         22    1    3    3    0    0 -0.23559915969E+02  0.52808135911E+02  0.88571490493E+02  0.10577654649E+03  0.00000000000E+00 0. -1.
         22    1    3    3    0    0 -0.58476882765E+02 -0.51725702415E+02  0.31720200699E+03  0.32666834457E+03  0.00000000000E+00 0. -1.
</event>
<event>
 7    1  0.4402832E-005  0.3631682E+02  0.7818608E-02  0.1586724E+00
          2   -1    0    0  502    0  0.00000000000E+00  0.00000000000E+00  0.16034543027E+04  0.16034543027E+04  0.00000000000E+00 0. -1.
          1   -1    0    0  501    0 -0.00000000000E+00 -0.00000000000E+00 -0.56650005049E+02  0.56650005049E+02  0.00000000000E+00 0. -1.
         25    2    1    2    0    0  0.79151740183E+01 -0.22825762101E+02  0.39636911660E+03  0.41631098048E+03  0.12499076155E+03 0.  0.
          2    1    1    2  501    0  0.25529425886E+02  0.73030985317E+01 -0.42594829045E+02  0.50193687807E+02  0.00000000000E+00 0. -1.
          1    1    1    2  502    0 -0.33444599904E+02  0.15522663569E+02  0.11930300101E+04  0.11935996395E+04  0.00000000000E+00 0. -1.
         22    1    3    3    0    0  0.24773054114E+02 -0.34253115902E+02  0.36453714039E+02  0.55819830046E+02  0.00000000000E+00 0.  1.
         22    1    3    3    0    0 -0.16857880096E+02  0.11427353801E+02  0.35991540256E+03  0.36049115043E+03  0.00000000000E+00 0.  1.
</event>
<event>
 7    1  0.4402832E-005  0.6960169E+03  0.7818608E-02  0.1026236E+00
          2   -1    0    0  502    0  0.00000000000E+00  0.00000000000E+00  0.15594512354E+04  0.15594512354E+04  0.00000000000E+00 0. -1.
          1   -1    0    0  501    0 -0.00000000000E+00 -0.00000000000E+00 -0.24454969326E+04  0.24454969326E+04  0.00000000000E+00 0. -1.
         25    2    1    2    0    0  0.80520119224E+03 -0.50063241902E+03 -0.18297861497E+03  0.97370141214E+03  0.12502594734E+03 0.  0.
          2    1    1    2  501    0 -0.52675309283E+03  0.39597483805E+03 -0.17883678235E+04  0.19059182472E+04  0.00000000000E+00 0. -1.
          1    1    1    2  502    0 -0.27844809941E+03  0.10465758096E+03  0.10853007413E+04  0.11253285086E+04  0.00000000000E+00 0. -1.
         22    1    3    3    0    0  0.55749351659E+03 -0.40801692829E+03 -0.11185591457E+03  0.69984896973E+03  0.00000000000E+00 0. -1.
         22    1    3    3    0    0  0.24770767565E+03 -0.92615490721E+02 -0.71122700400E+02  0.27385244241E+03  0.00000000000E+00 0. -1.
</event>
<event>
 7    1  0.4402832E-005  0.6189332E+03  0.7818608E-02  0.1121575E+00
          2   -1    0    0  502    0  0.00000000000E+00  0.00000000000E+00  0.18355211274E+04  0.18355211274E+04  0.00000000000E+00 0. -1.
          1   -1    0    0  501    0 -0.00000000000E+00 -0.00000000000E+00 -0.11965616154E+04  0.11965616154E+04  0.00000000000E+00 0. -1.
         25    2    1    2    0    0 -0.49209731225E+03  0.40500089197E+03 -0.67887835040E+03  0.93951380874E+03  0.12499957978E+03 0.  0.
          2    1    1    2  501    0  0.49954430331E+03 -0.31429159754E+03 -0.16034767477E+03  0.61158408748E+03  0.00000000000E+00 0. -1.
          1    1    1    2  502    0 -0.74469910534E+01 -0.90709294429E+02  0.14781855371E+04  0.14809848466E+04  0.00000000000E+00 0. -1.
         22    1    3    3    0    0 -0.34715984702E+02  0.51845474035E+02 -0.12184358609E+03  0.13689051188E+03  0.00000000000E+00 0. -1.
         22    1    3    3    0    0 -0.45738132755E+03  0.35315541794E+03 -0.55703476431E+03  0.80262329686E+03  0.00000000000E+00 0. -1.
</event>
<event>
 7    1  0.4402832E-005  0.3316426E+03  0.7818608E-02  0.1210012E+00
          2   -1    0    0  502    0  0.00000000000E+00  0.00000000000E+00  0.10802039889E+04  0.10802039889E+04  0.00000000000E+00 0. -1.
          1   -1    0    0  501    0 -0.00000000000E+00 -0.00000000000E+00 -0.29492848448E+03  0.29492848448E+03  0.00000000000E+00 0. -1.
         25    2    1    2    0    0  0.30313071311E+03 -0.14196247054E+03  0.90991107826E+03  0.97755012586E+03  0.12499802381E+03 0.  0.
          2    1    1    2  501    0 -0.45290300489E+02 -0.41197172345E+02 -0.22448433973E+02  0.65210049190E+02  0.00000000000E+00 0. -1.
          1    1    1    2  502    0 -0.25784041262E+03  0.18315964289E+03 -0.10218713984E+03  0.33237229836E+03  0.00000000000E+00 0. -1.
         22    1    3    3    0    0  0.82945937585E+02  0.15402429515E+02  0.26656818470E+03  0.27959946439E+03  0.00000000000E+00 0.  1.
         22    1    3    3    0    0  0.22018477553E+03 -0.15736490006E+03  0.64334289356E+03  0.69795066146E+03  0.00000000000E+00 0.  1.
</event>
<event>
 7    1  0.4402832E-005  0.5790151E+03  0.7818608E-02  0.1169459E+00
          2   -1    0    0  502    0  0.00000000000E+00  0.00000000000E+00  0.16456565902E+04  0.16456565902E+04  0.00000000000E+00 0. -1.
          1   -1    0    0  501    0 -0.00000000000E+00 -0.00000000000E+00 -0.43076313264E+03  0.43076313264E+03  0.00000000000E+00 0. -1.
         25    2    1    2    0    0  0.45079953343E+03  0.40021316788E+03  0.92924594208E+03  0.11146809927E+04  0.12499958213E+03 0.  0.
          2    1    1    2  501    0 -0.39859558329E+02 -0.37759305378E+02 -0.21354970533E+03  0.22049495726E+03  0.00000000000E+00 0. -1.
          1    1    1    2  502    0 -0.41093997510E+03 -0.36245386251E+03  0.49919722084E+03  0.74124377291E+03  0.00000000000E+00 0. -1.
         22    1    3    3    0    0  0.38768023624E+03  0.34905353024E+03  0.71134973043E+03  0.88212967954E+03  0.00000000000E+00 0.  1.
         22    1    3    3    0    0  0.63119297188E+02  0.51159637639E+02  0.21789621165E+03  0.23255131316E+03  0.00000000000E+00 0.  1.
</event>
<event>
 7    1  0.4402832E-005  0.2522080E+03  0.7818608E-02  0.1300967E+00
          2   -1    0    0  502    0  0.00000000000E+00  0.00000000000E+00  0.96979110995E+03  0.96979110995E+03  0.00000000000E+00 0. -1.
          1   -1    0    0  501    0 -0.00000000000E+00 -0.00000000000E+00 -0.36306228201E+03  0.36306228201E+03  0.00000000000E+00 0. -1.
         25    2    1    2    0    0 -0.27924948589E+03 -0.49939552376E+01  0.18927154970E+03  0.35979690659E+03  0.12499951803E+03 0.  0.
          2    1    1    2  501    0  0.24667802844E+03  0.76233623828E+01 -0.22248730362E+03  0.33227814500E+03  0.00000000000E+00 0. -1.
          1    1    1    2  502    0  0.32571457453E+02 -0.26294071452E+01  0.63994458186E+03  0.64077834036E+03  0.00000000000E+00 0. -1.
         22    1    3    3    0    0 -0.58144841641E+02 -0.38261381928E+02  0.45212880729E+01  0.69750971336E+02  0.00000000000E+00 0.  1.
         22    1    3    3    0    0 -0.22110464425E+03  0.33267426690E+02  0.18475026163E+03  0.29004593526E+03  0.00000000000E+00 0.  1.
</event>
<event>
 7    1  0.4402832E-005  0.7464229E+02  0.7818608E-02  0.1427969E+00
          2   -1    0    0  502    0  0.00000000000E+00  0.00000000000E+00  0.10624353344E+03  0.10624353344E+03  0.00000000000E+00 0. -1.
          1   -1    0    0  501    0 -0.00000000000E+00 -0.00000000000E+00 -0.23847310289E+03  0.23847310289E+03  0.00000000000E+00 0. -1.
         25    2    1    2    0    0  0.31416742297E+02 -0.49527328101E+02 -0.25440728545E+02  0.14040126873E+03  0.12500127067E+03 0.  0.
          2    1    1    2  501    0  0.38064689910E+02  0.26939695338E+01 -0.11399692987E+03  0.12021430077E+03  0.00000000000E+00 0. -1.
          1    1    1    2  502    0 -0.69481432207E+02  0.46833358567E+02  0.72080889655E+01  0.84101066834E+02  0.00000000000E+00 0. -1.
         22    1    3    3    0    0  0.63654897953E+02 -0.30951364852E+01  0.21150748564E+02  0.67148194824E+02  0.00000000000E+00 0.  1.
         22    1    3    3    0    0 -0.32238155656E+02 -0.46432191615E+02 -0.46591477109E+02  0.73253073911E+02  0.00000000000E+00 0.  1.
</event>
<event>
 7    1  0.4402832E-005  0.1198776E+04  0.7818608E-02  0.1148882E+00
          2   -1    0    0  502    0  0.00000000000E+00  0.00000000000E+00  0.16786623939E+04  0.16786623939E+04  0.00000000000E+00 0. -1.
          1   -1    0    0  501    0 -0.00000000000E+00 -0.00000000000E+00 -0.45347533398E+04  0.45347533398E+04  0.00000000000E+00 0. -1.
         25    2    1    2    0    0 -0.89271985756E+03  0.81430380583E+03 -0.13348176069E+04  0.18048272559E+04  0.12499578964E+03 0.  0.
          2    1    1    2  501    0  0.90232178348E+03 -0.78199202962E+03 -0.28444942974E+04  0.30849382398E+04  0.00000000000E+00 0. -1.
          1    1    1    2  502    0 -0.96019259223E+01 -0.32311776212E+02  0.13232209584E+04  0.13236502380E+04  0.00000000000E+00 0. -1.
         22    1    3    3    0    0 -0.77363480113E+03  0.71721810675E+03 -0.10991413534E+04  0.15234908378E+04  0.00000000000E+00 0. -1.
         22    1    3    3    0    0 -0.11908505643E+03  0.97085699076E+02 -0.23567625357E+03  0.28133641806E+03  0.00000000000E+00 0. -1.
</event>
<event>
 7    1  0.4402832E-005  0.1028686E+03  0.7818608E-02  0.1314238E+00
          2   -1    0    0  502    0  0.00000000000E+00  0.00000000000E+00  0.31594254424E+03  0.31594254424E+03  0.00000000000E+00 0. -1.
          1   -1    0    0  501    0 -0.00000000000E+00 -0.00000000000E+00 -0.21894263423E+04  0.21894263423E+04  0.00000000000E+00 0. -1.
         25    2    1    2    0    0 -0.11307298734E+03 -0.92237554109E+02 -0.10961082934E+04  0.11128214998E+04  0.12500013073E+03 0.  0.
          2    1    1    2  501    0  0.12899880343E+02  0.69813354152E+02 -0.10751933675E+04  0.10775347274E+04  0.00000000000E+00 0. -1.
          1    1    1    2  502    0  0.10017310700E+03  0.22424199958E+02  0.29781786283E+03  0.31501265932E+03  0.00000000000E+00 0. -1.
         22    1    3    3    0    0 -0.11442584339E+03 -0.58162031761E+02 -0.10342574874E+04  0.10421922308E+04  0.00000000000E+00 0.  1.
         22    1    3    3    0    0  0.13528560513E+01 -0.34075522348E+02 -0.61850805949E+02  0.70629268999E+02  0.00000000000E+00 0.  1.
</event>
<event>
 7    1  0.4402832E-005  0.4859718E+03  0.7818608E-02  0.1165787E+00
          2   -1    0    0  502    0  0.00000000000E+00  0.00000000000E+00  0.27900716924E+03  0.27900716924E+03  0.00000000000E+00 0. -1.
          1   -1    0    0  501    0 -0.00000000000E+00 -0.00000000000E+00 -0.38958884205E+04  0.38958884205E+04  0.00000000000E+00 0. -1.
         25    2    1    2    0    0  0.34630938968E+03  0.35561641590E+03 -0.23598844603E+02  0.51242103137E+03  0.12500071714E+03 0.  0.
          2    1    1    2  501    0 -0.27543519612E+02 -0.62428251569E+02 -0.22513677798E+04  0.22524015654E+04  0.00000000000E+00 0. -1.
          1    1    1    2  502    0 -0.31876587007E+03 -0.29318816433E+03 -0.13419146268E+04  0.14100729929E+04  0.00000000000E+00 0. -1.
         22    1    3    3    0    0  0.15254668514E+03  0.23509029439E+03  0.16514699440E+02  0.28073238674E+03  0.00000000000E+00 0. -1.
         22    1    3    3    0    0  0.19376270454E+03  0.12052612150E+03 -0.40113544043E+02  0.23168864463E+03  0.00000000000E+00 0. -1.
</event>
<event>
 7    1  0.4402832E-005  0.2051382E+03  0.7818608E-02  0.1325927E+00
          2   -1    0    0  502    0  0.00000000000E+00  0.00000000000E+00  0.22624021068E+04  0.22624021068E+04  0.00000000000E+00 0. -1.
          1   -1    0    0  501    0 -0.00000000000E+00 -0.00000000000E+00 -0.27532821157E+03  0.27532821157E+03  0.00000000000E+00 0. -1.
         25    2    1    2    0    0 -0.93805224936E+02 -0.18941058939E+03 -0.11256039038E+03  0.27013264859E+03  0.12500405895E+03 0.  0.
          2    1    1    2  501    0  0.61807751581E+02  0.18723669893E+03  0.32047201186E+02  0.19976186494E+03  0.00000000000E+00 0. -1.
          1    1    1    2  502    0  0.31997473354E+02  0.21738904620E+01  0.20675870844E+04  0.20678358048E+04  0.00000000000E+00 0. -1.
         22    1    3    3    0    0 -0.70823372263E+02 -0.27093520784E+02 -0.63801777147E+02  0.99099322370E+02  0.00000000000E+00 0.  1.
         22    1    3    3    0    0 -0.22981852673E+02 -0.16231706861E+03 -0.48758613228E+02  0.17103332622E+03  0.00000000000E+00 0.  1.
</event>
<event>
 7    1  0.4402832E-005  0.1463094E+03  0.7818608E-02  0.1207104E+00
          2   -1    0    0  502    0  0.00000000000E+00  0.00000000000E+00  0.29290851181E+03  0.29290851181E+03  0.00000000000E+00 0. -1.
          1   -1    0    0  501    0 -0.00000000000E+00 -0.00000000000E+00 -0.43713876735E+03  0.43713876735E+03  0.00000000000E+00 0. -1.
         25    2    1    2    0    0  0.10664250957E-01 -0.16291631242E+03 -0.28949718627E+02  0.20737772579E+03  0.12500283989E+03 0.  0.
          2    1    1    2  501    0 -0.12541893876E+03  0.75342837754E+02 -0.26874793971E+03  0.30599331446E+03  0.00000000000E+00 0. -1.
          1    1    1    2  502    0  0.12540827451E+03  0.87573474666E+02  0.15346740279E+03  0.21667623889E+03  0.00000000000E+00 0. -1.
         22    1    3    3    0    0  0.36799913230E+02 -0.90680208972E+02  0.35200461161E+02  0.10400099220E+03  0.00000000000E+00 0. -1.
         22    1    3    3    0    0 -0.36789248979E+02 -0.72236103448E+02 -0.64150179787E+02  0.10337673359E+03  0.00000000000E+00 0. -1.
</event>
<event>
 7    1  0.4402832E-005  0.5196082E+03  0.7818608E-02  0.1027741E+00
          2   -1    0    0  502    0  0.00000000000E+00  0.00000000000E+00  0.20551322641E+04  0.20551322641E+04  0.00000000000E+00 0. -1.
          1   -1    0    0  501    0 -0.00000000000E+00 -0.00000000000E+00 -0.44103896269E+03  0.44103896269E+03  0.00000000000E+00 0. -1.
         25    2    1    2    0    0  0.39256489663E+03  0.15461485538E+03  0.79585854242E+03  0.90941091882E+03  0.12499779257E+03 0.  0.
          2    1    1    2  501    0 -0.24876496244E+03 -0.51671130316E+03 -0.10651981632E+03  0.58328470631E+03  0.00000000000E+00 0. -1.
          1    1    1    2  502    0 -0.14379993419E+03  0.36209644778E+03  0.92475457532E+03  0.10034756017E+04  0.00000000000E+00 0. -1.
         22    1    3    3    0    0  0.31470346686E+03  0.65453959894E+02  0.59455470922E+03  0.67588297447E+03  0.00000000000E+00 0. -1.
         22    1    3    3    0    0  0.77861429767E+02  0.89160895488E+02  0.20130383320E+03  0.23352794434E+03  0.00000000000E+00 0. -1.
</event>
<event>
 7    1  0.4402832E-005  0.1121880E+04  0.7818608E-02  0.1076977E+00
          2   -1    0    0  502    0  0.00000000000E+00  0.00000000000E+00  0.17509691877E+04  0.17509691877E+04  0.00000000000E+00 0. -1.
          1   -1    0    0  501    0 -0.00000000000E+00 -0.00000000000E+00 -0.89653021696E+03  0.89653021696E+03  0.00000000000E+00 0. -1.
         25    2    1    2    0    0 -0.96248174873E+03 -0.55969919516E+03 -0.94385510214E+01  0.11204232644E+04  0.12499959793E+03 0.  0.
          2    1    1    2  501    0  0.94088737994E+03  0.64670528823E+03  0.87263034993E+03  0.14370040081E+04  0.00000000000E+00 0. -1.
          1    1    1    2  502    0  0.21594368794E+02 -0.87006093063E+02 -0.87528281925E+01  0.90072132178E+02  0.00000000000E+00 0. -1.
         22    1    3    3    0    0 -0.85231813886E+03 -0.44573507991E+03 -0.46499823131E+01  0.96184593029E+03  0.00000000000E+00 0.  1.
         22    1    3    3    0    0 -0.11016360987E+03 -0.11396411525E+03 -0.47885687083E+01  0.15857733412E+03  0.00000000000E+00 0.  1.
</event>
<event>
 7    1  0.4402832E-005  0.5801127E+03  0.7818608E-02  0.1147641E+00
          2   -1    0    0  502    0  0.00000000000E+00  0.00000000000E+00  0.16927708597E+04  0.16927708597E+04  0.00000000000E+00 0. -1.
          1   -1    0    0  501    0 -0.00000000000E+00 -0.00000000000E+00 -0.30139438719E+03  0.30139438719E+03  0.00000000000E+00 0. -1.
         25    2    1    2    0    0  0.27119403824E+03  0.53385139545E+03  0.21527795836E+03  0.64846954983E+03  0.12499855563E+03 0.  0.
          2    1    1    2  501    0 -0.28062810068E+03 -0.46379234551E+03  0.82228921392E+03  0.98489340640E+03  0.00000000000E+00 0. -1.
          1    1    1    2  502    0  0.94340624387E+01 -0.70059049941E+02  0.35380930020E+03  0.36080229062E+03  0.00000000000E+00 0. -1.
         22    1    3    3    0    0  0.22816387518E+03  0.35340892644E+03  0.10849447954E+03  0.43442798634E+03  0.00000000000E+00 0. -1.
         22    1    3    3    0    0  0.43030163057E+02  0.18044246901E+03  0.10678347882E+03  0.21404156349E+03  0.00000000000E+00 0. -1.
</event>
<event>
 7    1  0.4402832E-005  0.4796105E+03  0.7818608E-02  0.1114581E+00
          2   -1    0    0  502    0  0.00000000000E+00  0.00000000000E+00  0.18471383934E+04  0.18471383934E+04  0.00000000000E+00 0. -1.
          1   -1    0    0  501    0 -0.00000000000E+00 -0.00000000000E+00 -0.23859035153E+04  0.23859035153E+04  0.00000000000E+00 0. -1.
         25    2    1    2    0    0 -0.66502980490E+02  0.43889414472E+03  0.38341956704E+03  0.59973844101E+03  0.12499966620E+03 0.  0.
          2    1    1    2  501    0  0.11449355854E+03  0.57738784834E+02 -0.22299274434E+04  0.22336111894E+04  0.00000000000E+00 0. -1.
          1    1    1    2  502    0 -0.47990578045E+02 -0.49663292955E+03  0.13077427545E+04  0.13996922784E+04  0.00000000000E+00 0. -1.
         22    1    3    3    0    0 -0.27563682650E+02  0.25435383372E+02  0.70139051683E+02  0.79537424521E+02  0.00000000000E+00 0.  1.
         22    1    3    3    0    0 -0.38939297840E+02  0.41345876134E+03  0.31328051536E+03  0.52020101648E+03  0.00000000000E+00 0.  1.
</event>
<event>
 7    1  0.4402832E-005  0.3190651E+03  0.7818608E-02  0.1180471E+00
          2   -1    0    0  502    0  0.00000000000E+00  0.00000000000E+00  0.13598010869E+03  0.13598010869E+03  0.00000000000E+00 0. -1.
          1   -1    0    0  501    0 -0.00000000000E+00 -0.00000000000E+00 -0.17755711658E+04  0.17755711658E+04  0.00000000000E+00 0. -1.
         25    2    1    2    0    0  0.35579198078E+03 -0.15914278442E+03 -0.10321828528E+04  0.11103779679E+04  0.12499372232E+03 0.  0.
          2    1    1    2  501    0 -0.84276169906E+02  0.25125661726E+02 -0.45267526093E+03  0.46113844294E+03  0.00000000000E+00 0. -1.
          1    1    1    2  502    0 -0.27151581087E+03  0.13401712270E+03 -0.15473294343E+03  0.34003486367E+03  0.00000000000E+00 0. -1.
         22    1    3    3    0    0  0.33452132448E+02 -0.38609771497E+02 -0.58488515963E+02  0.77657363591E+02  0.00000000000E+00 0.  1.
         22    1    3    3    0    0  0.32233984833E+03 -0.12053301292E+03 -0.97369433682E+03  0.10327206043E+04  0.00000000000E+00 0.  1.
</event>
<event>
 7    1  0.4402832E-005  0.1480716E+03  0.7818608E-02  0.1339669E+00
          2   -1    0    0  502    0  0.00000000000E+00  0.00000000000E+00  0.17598569390E+04  0.17598569390E+04  0.00000000000E+00 0. -1.
          1   -1    0    0  501    0 -0.00000000000E+00 -0.00000000000E+00 -0.12767800062E+03  0.12767800062E+03  0.00000000000E+00 0. -1.
         25    2    1    2    0    0 -0.15194100557E+03 -0.18634034488E+02  0.15848858281E+03  0.25332893447E+03  0.12499448684E+03 0.  0.
          2    1    1    2  501    0  0.52978047531E+01  0.39035041148E+02 -0.71663020707E+02  0.81776461830E+02  0.00000000000E+00 0. -1.
          1    1    1    2  502    0  0.14664320082E+03 -0.20401006659E+02  0.15453533763E+04  0.15524295433E+04  0.00000000000E+00 0. -1.
         22    1    3    3    0    0 -0.90292414103E+02 -0.49825910377E+02  0.15234178482E+03  0.18396565112E+03  0.00000000000E+00 0.  1.
         22    1    3    3    0    0 -0.61648591468E+02  0.31191875888E+02  0.61467979942E+01  0.69363283350E+02  0.00000000000E+00 0.  1.
</event>
<event>
 7    1  0.4402832E-005  0.1911252E+03  0.7818608E-02  0.1277368E+00
          2   -1    0    0  502    0  0.00000000000E+00  0.00000000000E+00  0.65105676676E+03  0.65105676676E+03  0.00000000000E+00 0. -1.
          1   -1    0    0  501    0 -0.00000000000E+00 -0.00000000000E+00 -0.45316728731E+03  0.45316728731E+03  0.00000000000E+00 0. -1.
         25    2    1    2    0    0  0.15876568888E+02 -0.18130889388E+03  0.32475797070E+03  0.39270715939E+03  0.12500477216E+03 0.  0.
          2    1    1    2  501    0 -0.69631995477E+02  0.17904967277E+03 -0.39436151888E+03  0.43866662477E+03  0.00000000000E+00 0. -1.
          1    1    1    2  502    0  0.53755426589E+02  0.22592211094E+01  0.26749302762E+03  0.27285026992E+03  0.00000000000E+00 0. -1.
         22    1    3    3    0    0  0.89670699051E+01 -0.15577890006E+03  0.33064271172E+03  0.36561192111E+03  0.00000000000E+00 0.  1.
         22    1    3    3    0    0  0.69094989824E+01 -0.25529993815E+02 -0.58847410162E+01  0.27095238276E+02  0.00000000000E+00 0.  1.
</event>
<event>
 7    1  0.4402832E-005  0.4453506E+03  0.7818608E-02  0.1034934E+00
          2   -1    0    0  502    0  0.00000000000E+00  0.00000000000E+00  0.82359564250E+03  0.82359564250E+03  0.00000000000E+00 0. -1.
          1   -1    0    0  501    0 -0.00000000000E+00 -0.00000000000E+00 -0.28303434223E+04  0.28303434223E+04  0.00000000000E+00 0. -1.
         25    2    1    2    0    0 -0.87470117095E+02  0.74959279873E+03 -0.20749653968E+03  0.79260395032E+03  0.12500329107E+03 0.  0.
          2    1    1    2  501    0  0.22454234415E+03 -0.36459746028E+03 -0.22281450541E+04  0.22689162511E+04  0.00000000000E+00 0. -1.
          1    1    1    2  502    0 -0.13707222705E+03 -0.38499533845E+03  0.42889381397E+03  0.59241886341E+03  0.00000000000E+00 0. -1.
         22    1    3    3    0    0 -0.84286746565E+01  0.43252838825E+03 -0.70665567997E+02  0.43834401068E+03  0.00000000000E+00 0.  1.
         22    1    3    3    0    0 -0.79041442439E+02  0.31706441048E+03 -0.13683097168E+03  0.35425993963E+03  0.00000000000E+00 0.  1.
</event>
<event>
 7    1  0.4402832E-005  0.2064181E+03  0.7818608E-02  0.1178319E+00
          2   -1    0    0  502    0  0.00000000000E+00  0.00000000000E+00  0.96090061224E+03  0.96090061224E+03  0.00000000000E+00 0. -1.
          1   -1    0    0  501    0 -0.00000000000E+00 -0.00000000000E+00 -0.22701070376E+03  0.22701070376E+03  0.00000000000E+00 0. -1.
         25    2    1    2    0    0 -0.20534867510E+03 -0.18687640525E+03  0.16547373386E+02  0.30495145532E+03  0.12502281926E+03 0.  0.
          2    1    1    2  501    0  0.13919443719E+03 -0.44236600368E+01  0.17348889787E+01  0.13927551813E+03  0.00000000000E+00 0. -1.
          1    1    1    2  502    0  0.66154237911E+02  0.19130006528E+03  0.71560764611E+03  0.74368434254E+03  0.00000000000E+00 0. -1.
         22    1    3    3    0    0 -0.26920063434E+02  0.13157567753E+02 -0.17577634214E+02  0.34738805809E+02  0.00000000000E+00 0. -1.
         22    1    3    3    0    0 -0.17842861166E+03 -0.20003397300E+03  0.34125007600E+02  0.27021264951E+03  0.00000000000E+00 0. -1.
</event>
<event>
 7    1  0.4402832E-005  0.9432663E+02  0.7818608E-02  0.1335737E+00
          2   -1    0    0  502    0  0.00000000000E+00  0.00000000000E+00  0.71711211542E+03  0.71711211542E+03  0.00000000000E+00 0. -1.
          1   -1    0    0  501    0 -0.00000000000E+00 -0.00000000000E+00 -0.80134405313E+03  0.80134405313E+03  0.00000000000E+00 0. -1.
         25    2    1    2    0    0 -0.12583280457E+03  0.15381398115E+02  0.10488905511E+03  0.20662977650E+03  0.12499467404E+03 0.  0.
          2    1    1    2  501    0  0.39646852618E+02 -0.50225573255E+02 -0.74524445631E+03  0.74798648437E+03  0.00000000000E+00 0. -1.
          1    1    1    2  502    0  0.86185951955E+02  0.34844175139E+02  0.55612346350E+03  0.56383990769E+03  0.00000000000E+00 0. -1.
         22    1    3    3    0    0  0.32664493031E+01  0.26357448234E+02 -0.14660655392E+02  0.30336769521E+02  0.00000000000E+00 0.  1.
         22    1    3    3    0    0 -0.12909925388E+03 -0.10976050119E+02  0.11954971050E+03  0.17629300697E+03  0.00000000000E+00 0.  1.
</event>
<event>
 7    1  0.4402832E-005  0.2076951E+03  0.7818608E-02  0.1313323E+00
          2   -1    0    0  502    0  0.00000000000E+00  0.00000000000E+00  0.77342302624E+02  0.77342302624E+02  0.00000000000E+00 0. -1.
          1   -1    0    0  501    0 -0.00000000000E+00 -0.00000000000E+00 -0.12838464202E+04  0.12838464202E+04  0.00000000000E+00 0. -1.
         25    2    1    2    0    0  0.19514893369E+03  0.85883070157E+02 -0.54010987801E+03  0.59397157814E+03  0.12499818898E+03 0.  0.
          2    1    1    2  501    0 -0.17200807430E+03 -0.11274385741E+03 -0.69301040581E+03  0.72288406925E+03  0.00000000000E+00 0. -1.
          1    1    1    2  502    0 -0.23140859391E+02  0.26860787256E+02  0.26616166297E+02  0.44333075392E+02  0.00000000000E+00 0. -1.
         22    1    3    3    0    0  0.12113474431E+03 -0.14896082335E+01 -0.36647009430E+03  0.38597431939E+03  0.00000000000E+00 0.  1.
         22    1    3    3    0    0  0.74014189376E+02  0.87372678390E+02 -0.17363978371E+03  0.20799725875E+03  0.00000000000E+00 0.  1.
</event>
<event>
 7    1  0.4402832E-005  0.5947690E+03  0.7818608E-02  0.1146409E+00
          2   -1    0    0  502    0  0.00000000000E+00  0.00000000000E+00  0.50420557898E+03  0.50420557898E+03  0.00000000000E+00 0. -1.
          1   -1    0    0  501    0 -0.00000000000E+00 -0.00000000000E+00 -0.10316110675E+04  0.10316110675E+04  0.00000000000E+00 0. -1.
         25    2    1    2    0    0  0.52978590409E+03  0.19765643724E+03 -0.60563104063E+03  0.83794689705E+03  0.12499949422E+03 0.  0.
          2    1    1    2  501    0  0.55596128124E+02 -0.42481169383E+02 -0.40351345170E+02  0.80770107537E+02  0.00000000000E+00 0. -1.
          1    1    1    2  502    0 -0.58538203221E+03 -0.15517526786E+03  0.11857689733E+03  0.61709964185E+03  0.00000000000E+00 0. -1.
         22    1    3    3    0    0  0.42579131237E+03  0.20687357152E+03 -0.47353524329E+03  0.66957489717E+03  0.00000000000E+00 0. -1.
         22    1    3    3    0    0  0.10399459172E+03 -0.92171342729E+01 -0.13209579734E+03  0.16837199988E+03  0.00000000000E+00 0. -1.
</event>
<event>
 7    1  0.4402832E-005  0.1043398E+03  0.7818608E-02  0.1296670E+00
          2   -1    0    0  502    0  0.00000000000E+00  0.00000000000E+00  0.84919415976E+03  0.84919415976E+03  0.00000000000E+00 0. -1.
          1   -1    0    0  501    0 -0.00000000000E+00 -0.00000000000E+00 -0.69699998125E+02  0.69699998125E+02  0.00000000000E+00 0. -1.
         25    2    1    2    0    0 -0.87625133140E+02  0.13824740504E+03  0.48447000874E+03  0.52642800411E+03  0.12499898073E+03 0.  0.
          2    1    1    2  501    0  0.61306510631E+02 -0.54734466828E+02 -0.26028536325E+01  0.82226060053E+02  0.00000000000E+00 0. -1.
          1    1    1    2  502    0  0.26318622509E+02 -0.83512938209E+02  0.29762700653E+03  0.31024009373E+03  0.00000000000E+00 0. -1.
         22    1    3    3    0    0 -0.66939426212E+02  0.64575606368E+02  0.40717285503E+03  0.41766090264E+03  0.00000000000E+00 0.  1.
         22    1    3    3    0    0 -0.20685706928E+02  0.73671798670E+02  0.77297153707E+02  0.10876710147E+03  0.00000000000E+00 0.  1.
</event>
<event>
 7    1  0.4402832E-005  0.2154472E+03  0.7818608E-02  0.1269901E+00
          2   -1    0    0  502    0  0.00000000000E+00  0.00000000000E+00  0.18960739377E+04  0.18960739377E+04  0.00000000000E+00 0. -1.
          1   -1    0    0  501    0 -0.00000000000E+00 -0.00000000000E+00 -0.51697604932E+03  0.51697604932E+03  0.00000000000E+00 0. -1.
         25    2    1    2    0    0 -0.44509210710E+02 -0.17886177852E+01  0.16593968034E+04  0.16646937443E+04  0.12499296772E+03 0.  0.
          2    1    1    2  501    0 -0.21430845912E+03  0.22121456643E+02 -0.40621797457E+03  0.45981574284E+03  0.00000000000E+00 0. -1.
          1    1    1    2  502    0  0.25881766983E+03 -0.20332838857E+02  0.12591905955E+03  0.28854049995E+03  0.00000000000E+00 0. -1.
         22    1    3    3    0    0 -0.83529054671E+02 -0.19578807577E+02  0.89756143687E+03  0.90165235298E+03  0.00000000000E+00 0. -1.
         22    1    3    3    0    0  0.39019843962E+02  0.17790189792E+02  0.76183536655E+03  0.76304139128E+03  0.00000000000E+00 0. -1.
</event>
<event>
 7    1  0.4402832E-005  0.4308262E+03  0.7818608E-02  0.1187488E+00
          2   -1    0    0  502    0  0.00000000000E+00  0.00000000000E+00  0.22584385151E+04  0.22584385151E+04  0.00000000000E+00 0. -1.
          1   -1    0    0  501    0 -0.00000000000E+00 -0.00000000000E+00 -0.59111401784E+03  0.59111401784E+03  0.00000000000E+00 0. -1.
         25    2    1    2    0    0 -0.95298587119E+02 -0.42927582689E+03 -0.38334579543E+03  0.59660539537E+03  0.12499777057E+03 0.  0.
          2    1    1    2  501    0  0.44403324626E+02  0.39708311693E+03  0.29602824652E+03  0.49727193740E+03  0.00000000000E+00 0. -1.
          1    1    1    2  502    0  0.50895262492E+02  0.32192709962E+02  0.17546420462E+04  0.17556752002E+04  0.00000000000E+00 0. -1.
         22    1    3    3    0    0  0.19613896144E+02 -0.25379133547E+02 -0.54514190449E+02  0.63250314638E+02  0.00000000000E+00 0.  1.
         22    1    3    3    0    0 -0.11491248326E+03 -0.40389669334E+03 -0.32883160498E+03  0.53335508073E+03  0.00000000000E+00 0.  1.
</event>
<event>
 7    1  0.4402832E-005  0.3245607E+03  0.7818608E-02  0.1095259E+00
          2   -1    0    0  502    0  0.00000000000E+00  0.00000000000E+00  0.62874564568E+03  0.62874564568E+03  0.00000000000E+00 0. -1.
          1   -1    0    0  501    0 -0.00000000000E+00 -0.00000000000E+00 -0.74777180359E+03  0.74777180359E+03  0.00000000000E+00 0. -1.
         25    2    1    2    0    0  0.20014518858E+03  0.37889197445E+03  0.56791995475E+02  0.44996406513E+03  0.12500041737E+03 0.  0.
          2    1    1    2  501    0 -0.27846001849E+03 -0.14894317939E+03 -0.45666959735E+03  0.55522173384E+03  0.00000000000E+00 0. -1.
          1    1    1    2  502    0  0.78314829907E+02 -0.22994879506E+03  0.28085144396E+03  0.37133165029E+03  0.00000000000E+00 0. -1.
         22    1    3    3    0    0  0.19310220441E+03  0.38696963328E+03  0.63806228488E+02  0.43715579972E+03  0.00000000000E+00 0.  1.
         22    1    3    3    0    0  0.70429841726E+01 -0.80776588305E+01 -0.70142330134E+01  0.12808265417E+02  0.00000000000E+00 0.  1.
</event>
<event>
 7    1  0.4402832E-005  0.4303822E+03  0.7818608E-02  0.1059654E+00
          2   -1    0    0  502    0  0.00000000000E+00  0.00000000000E+00  0.17578291584E+04  0.17578291584E+04  0.00000000000E+00 0. -1.
          1   -1    0    0  501    0 -0.00000000000E+00 -0.00000000000E+00 -0.21605871388E+03  0.21605871388E+03  0.00000000000E+00 0. -1.
         25    2    1    2    0    0 -0.22568455721E+03  0.30416740070E+03  0.31852985125E+03  0.51043020133E+03  0.12500558897E+03 0.  0.
          2    1    1    2  501    0  0.21682510963E+03  0.20245027173E+03  0.44667613507E+03  0.53620780518E+03  0.00000000000E+00 0. -1.
          1    1    1    2  502    0  0.88594475788E+01 -0.50661767244E+03  0.77656445815E+03  0.92724986573E+03  0.00000000000E+00 0. -1.
         22    1    3    3    0    0 -0.16144369706E+02  0.68583585368E+02  0.13501721271E+02  0.71740123588E+02  0.00000000000E+00 0.  1.
         22    1    3    3    0    0 -0.20954018750E+03  0.23558381533E+03  0.30502812998E+03  0.43869007774E+03  0.00000000000E+00 0.  1.
</event>
<event>
 7    1  0.9698836E-005  0.5607439E+03  0.7818608E-02  0.1201871E+00
          2   -1    0    0  502    0  0.00000000000E+00  0.00000000000E+00  0.18840825181E+04  0.18840825181E+04  0.00000000000E+00 0. -1.
          1   -1    0    0  501    0 -0.00000000000E+00 -0.00000000000E+00 -0.18174992979E+04  0.18174992979E+04  0.00000000000E+00 0. -1.
         25    2    1    2    0    0  0.35028356201E+03 -0.39320213629E+03 -0.29140000771E+03  0.61469029281E+03  0.12499479102E+03 0.  0.
          2    1    1    2  501    0  0.15633446449E+02 -0.36298232200E+02 -0.13179413559E+04  0.13185338009E+04  0.00000000000E+00 0. -1.
          1    1    1    2  502    0 -0.36591700846E+03  0.42950036850E+03  0.16759245838E+04  0.17683577224E+04  0.00000000000E+00 0. -1.
         22    1    3    3    0    0  0.16550211989E+03 -0.25415943001E+03 -0.11713033290E+03  0.32512687129E+03  0.00000000000E+00 0. -1.
         22    1    3    3    0    0  0.18478144212E+03 -0.13904270629E+03 -0.17426967482E+03  0.28956342152E+03  0.00000000000E+00 0. -1.
</event>
<event>
 7    1  0.4402832E-005  0.8263225E+03  0.7818608E-02  0.1163673E+00
          2   -1    0    0  502    0  0.00000000000E+00  0.00000000000E+00  0.29866019174E+04  0.29866019174E+04  0.00000000000E+00 0. -1.
          1   -1    0    0  501    0 -0.00000000000E+00 -0.00000000000E+00 -0.63795540888E+03  0.63795540888E+03  0.00000000000E+00 0. -1.
         25    2    1    2    0    0  0.19534345539E+03 -0.78135312816E+03  0.53269966567E+03  0.97368748501E+03  0.12500643267E+03 0.  0.
          2    1    1    2  501    0 -0.22780368105E+03  0.80659682806E+03  0.37001634255E+01  0.83815669856E+03  0.00000000000E+00 0. -1.
          1    1    1    2  502    0  0.32460225661E+02 -0.25243699897E+02  0.18122466794E+04  0.18127131427E+04  0.00000000000E+00 0. -1.
         22    1    3    3    0    0  0.12830952863E+03 -0.28469918290E+03  0.23450563673E+03  0.39052509976E+03  0.00000000000E+00 0. -1.
         22    1    3    3    0    0  0.67033926762E+02 -0.49665394526E+03  0.29819402894E+03  0.58316238525E+03  0.00000000000E+00 0. -1.
</event>
<event>
 7    1  0.4402832E-005  0.1804019E+03  0.7818608E-02  0.1221422E+00
          2   -1    0    0  502    0  0.00000000000E+00  0.00000000000E+00  0.15347489999E+04  0.15347489999E+04  0.00000000000E+00 0. -1.
          1   -1    0    0  501    0 -0.00000000000E+00 -0.00000000000E+00 -0.78339408551E+02  0.78339408551E+02  0.00000000000E+00 0. -1.
         25    2    1    2    0    0 -0.55811123863E+01 -0.26268392837E+03  0.70004297548E+03  0.75810319742E+03  0.12500518146E+03 0.  0.
          2    1    1    2  501    0 -0.67844253616E+01  0.16369441851E+03  0.10185628457E+03  0.19291602781E+03  0.00000000000E+00 0. -1.
          1    1    1    2  502    0  0.12365537748E+02  0.98989509853E+02  0.65451033130E+03  0.66206918322E+03  0.00000000000E+00 0. -1.
         22    1    3    3    0    0 -0.51002429409E+02 -0.14480751939E+03  0.27819163160E+03  0.31774368502E+03  0.00000000000E+00 0.  1.
         22    1    3    3    0    0  0.45421317022E+02 -0.11787640897E+03  0.42185134388E+03  0.44035951240E+03  0.00000000000E+00 0.  1.
</event>
<event>
 7    1  0.4402832E-005  0.3525490E+03  0.7818608E-02  0.1124651E+00
          2   -1    0    0  502    0  0.00000000000E+00  0.00000000000E+00  0.20459623387E+04  0.20459623387E+04  0.00000000000E+00 0. -1.
          1   -1    0    0  501    0 -0.00000000000E+00 -0.00000000000E+00 -0.86196513065E+03  0.86196513065E+03  0.00000000000E+00 0. -1.
         25    2    1    2    0    0 -0.36320659151E+03  0.30030864960E+03  0.86412378735E+03  0.99218892008E+03  0.12499848048E+03 0.  0.
          2    1    1    2  501    0  0.31148694841E+03 -0.15547690195E+03 -0.75422089180E+03  0.83069027904E+03  0.00000000000E+00 0. -1.
          1    1    1    2  502    0  0.51719643098E+02 -0.14483174764E+03  0.10740943124E+04  0.10850482702E+04  0.00000000000E+00 0. -1.
         22    1    3    3    0    0 -0.36603316193E+03  0.30639170012E+03  0.86165591186E+03  0.98504165392E+03  0.00000000000E+00 0. -1.
         22    1    3    3    0    0  0.28265704159E+01 -0.60830505247E+01  0.24678754947E+01  0.71472661529E+01  0.00000000000E+00 0. -1.
</event>
<event>
 7    1  0.4402832E-005  0.1572468E+03  0.7818608E-02  0.1209170E+00
          2   -1    0    0  502    0  0.00000000000E+00  0.00000000000E+00  0.13549363811E+04  0.13549363811E+04  0.00000000000E+00 0. -1.
          1   -1    0    0  501    0 -0.00000000000E+00 -0.00000000000E+00 -0.98237105353E+02  0.98237105353E+02  0.00000000000E+00 0. -1.
         25    2    1    2    0    0  0.10262874665E+03  0.97729016057E+02  0.28896012737E+03  0.34526317419E+03  0.12500033608E+03 0.  0.
          2    1    1    2  501    0  0.12955232585E+01 -0.17631593080E+03  0.53250219444E+02  0.18418624190E+03  0.00000000000E+00 0. -1.
          1    1    1    2  502    0 -0.10392426991E+03  0.78586914740E+02  0.91448892898E+03  0.92372407042E+03  0.00000000000E+00 0. -1.
         22    1    3    3    0    0 -0.11959336137E+02 -0.59715505755E+01  0.10120406907E+03  0.10208304822E+03  0.00000000000E+00 0. -1.
         22    1    3    3    0    0  0.11458808279E+03  0.10370056663E+03  0.18775605830E+03  0.24318012597E+03  0.00000000000E+00 0. -1.
</event>
<event>
 7    1  0.4402832E-005  0.1043588E+03  0.7818608E-02  0.1305091E+00
          2   -1    0    0  502    0  0.00000000000E+00  0.00000000000E+00  0.10372085945E+04  0.10372085945E+04  0.00000000000E+00 0. -1.
          1   -1    0    0  501    0 -0.00000000000E+00 -0.00000000000E+00 -0.50741554090E+03  0.50741554090E+03  0.00000000000E+00 0. -1.
         25    2    1    2    0    0 -0.46587357260E+02 -0.69531781601E+02  0.46819491492E+03  0.49176990806E+03  0.12500445435E+03 0.  0.
          2    1    1    2  501    0  0.53568559170E+02 -0.53968375899E+02 -0.48576881633E+03  0.49168436934E+03  0.00000000000E+00 0. -1.
          1    1    1    2  502    0 -0.69812019101E+01  0.12350015750E+03  0.54736695501E+03  0.56116985799E+03  0.00000000000E+00 0. -1.
         22    1    3    3    0    0  0.25778713713E+02  0.90410287891E+01  0.29286581617E+02  0.40049795818E+02  0.00000000000E+00 0. -1.
         22    1    3    3    0    0 -0.72366070973E+02 -0.78572810390E+02  0.43890833331E+03  0.45172011224E+03  0.00000000000E+00 0. -1.
</event>
<event>
 7    1  0.4402832E-005  0.2158134E+03  0.7818608E-02  0.1188243E+00
          2   -1    0    0  502    0  0.00000000000E+00  0.00000000000E+00  0.85966759602E+03  0.85966759602E+03  0.00000000000E+00 0. -1.
          1   -1    0    0  501    0 -0.00000000000E+00 -0.00000000000E+00 -0.10339739907E+04  0.10339739907E+04  0.00000000000E+00 0. -1.
         25    2    1    2    0    0 -0.95483387867E+02 -0.43346877384E+02 -0.83873925887E+03  0.85446189189E+03  0.12500220470E+03 0.  0.
          2    1    1    2  501    0 -0.11905902952E+03  0.61768708594E+01 -0.15258963846E+03  0.19364091512E+03  0.00000000000E+00 0. -1.
          1    1    1    2  502    0  0.21454241739E+03  0.37170006525E+02  0.81702250263E+03  0.84553877974E+03  0.00000000000E+00 0. -1.
         22    1    3    3    0    0 -0.53842157764E+02  0.41696951769E+02 -0.37954375423E+03  0.38560481729E+03  0.00000000000E+00 0. -1.
         22    1    3    3    0    0 -0.41641230103E+02 -0.85043829153E+02 -0.45919550464E+03  0.46885707460E+03  0.00000000000E+00 0. -1.
</event>
<event>
 7    1  0.4402832E-005  0.1513774E+04  0.7818608E-02  0.1163022E+00
          2   -1    0    0  502    0  0.00000000000E+00  0.00000000000E+00  0.10484207441E+04  0.10484207441E+04  0.00000000000E+00 0. -1.
          1   -1    0    0  501    0 -0.00000000000E+00 -0.00000000000E+00 -0.25118992330E+04  0.25118992330E+04  0.00000000000E+00 0. -1.
         25    2    1    2    0    0 -0.15001361706E+04  0.21647309895E+03 -0.94750424973E+03  0.17918303797E+04  0.12499069272E+03 0.  0.
          2    1    1    2  501    0  0.64310240013E+01  0.21682831227E+02 -0.22754152778E+03  0.22866274315E+03  0.00000000000E+00 0. -1.
          1    1    1    2  502    0  0.14937051466E+04 -0.23815593017E+03 -0.28843271136E+03  0.15398268543E+04  0.00000000000E+00 0. -1.
         22    1    3    3    0    0 -0.12697709351E+04  0.15099164136E+03 -0.83524387103E+03  0.15273339607E+04  0.00000000000E+00 0. -1.
         22    1    3    3    0    0 -0.23036523557E+03  0.65481457586E+02 -0.11226037870E+03  0.26449641902E+03  0.00000000000E+00 0. -1.
</event>
<event>
 7    1  0.4402832E-005  0.5258858E+03  0.7818608E-02  0.1212641E+00
          2   -1    0    0  502    0  0.00000000000E+00  0.00000000000E+00  0.91256332582E+03  0.91256332582E+03  0.00000000000E+00 0. -1.
          1   -1    0    0  501    0 -0.00000000000E+00 -0.00000000000E+00 -0.75344534985E+03  0.75344534985E+03  0.00000000000E+00 0. -1.
         25    2    1    2    0    0 -0.45618570839E+03  0.27633832810E+03 -0.16273750307E+03  0.57146954484E+03  0.12500269460E+03 0.  0.
          2    1    1    2  501    0  0.27604070716E+02  0.25447239205E+02 -0.28796449406E+03  0.29040161250E+03  0.00000000000E+00 0. -1.
          1    1    1    2  502    0  0.42858163768E+03 -0.30178556731E+03  0.60981997310E+03  0.80413751832E+03  0.00000000000E+00 0. -1.
         22    1    3    3    0    0 -0.32543072536E+03  0.22375572914E+03 -0.65697515910E+02  0.40035977186E+03  0.00000000000E+00 0.  1.
         22    1    3    3    0    0 -0.13075498303E+03  0.52582598968E+02 -0.97039987157E+02  0.17110977298E+03  0.00000000000E+00 0.  1.
</event>
<event>
 7    1  0.4402832E-005  0.3176920E+03  0.7818608E-02  0.1192327E+00
          2   -1    0    0  502    0  0.00000000000E+00  0.00000000000E+00  0.20934151626E+04  0.20934151626E+04  0.00000000000E+00 0. -1.
          1   -1    0    0  501    0 -0.00000000000E+00 -0.00000000000E+00 -0.52814914471E+03  0.52814914471E+03  0.00000000000E+00 0. -1.
         25    2    1    2    0    0 -0.17006367331E+03  0.32406487134E+03 -0.13733726561E+03  0.41039662336E+03  0.12499668045E+03 0.  0.
          2    1    1    2  501    0  0.13684580337E+03 -0.25413749262E+03 -0.17131509444E+03  0.33565086122E+03  0.00000000000E+00 0. -1.
          1    1    1    2  502    0  0.33217869940E+02 -0.69927378720E+02  0.18739183780E+04  0.18755168228E+04  0.00000000000E+00 0. -1.
         22    1    3    3    0    0 -0.12637383888E+03  0.22496668311E+03 -0.33214218660E+02  0.26016060421E+03  0.00000000000E+00 0. -1.
         22    1    3    3    0    0 -0.43689834431E+02  0.99098188227E+02 -0.10412304695E+03  0.15023601914E+03  0.00000000000E+00 0. -1.
</event>
<event>
 7    1  0.4402832E-005  0.6799082E+02  0.7818608E-02  0.1450597E+00
          2   -1    0    0  502    0  0.00000000000E+00  0.00000000000E+00  0.11737859965E+04  0.11737859965E+04  0.00000000000E+00 0. -1.
          1   -1    0    0  501    0 -0.00000000000E+00 -0.00000000000E+00 -0.30477058070E+03  0.30477058070E+03  0.00000000000E+00 0. -1.
         25    2    1    2    0    0 -0.25744370708E+02 -0.84423598485E+02  0.66993207977E+02  0.16704399874E+03  0.12500196397E+03 0.  0.
          2    1    1    2  501    0  0.41809206150E+02  0.52913218684E+02 -0.24997966456E+03  0.25891630139E+03  0.00000000000E+00 0. -1.
          1    1    1    2  502    0 -0.16064835442E+02  0.31510379801E+02  0.10520018724E+04  0.10525962771E+04  0.00000000000E+00 0. -1.
         22    1    3    3    0    0 -0.50349061109E+02 -0.90889495747E+02  0.96983600511E+01  0.10435509848E+03  0.00000000000E+00 0.  1.
         22    1    3    3    0    0  0.24604690401E+02  0.64658972618E+01  0.57294847926E+02  0.62688900262E+02  0.00000000000E+00 0.  1.
</event>
<event>
 7    1  0.4402832E-005  0.1914359E+03  0.7818608E-02  0.1252235E+00
          2   -1    0    0  502    0  0.00000000000E+00  0.00000000000E+00  0.81095964515E+03  0.81095964515E+03  0.00000000000E+00 0. -1.
          1   -1    0    0  501    0 -0.00000000000E+00 -0.00000000000E+00 -0.32862543756E+03  0.32862543756E+03  0.00000000000E+00 0. -1.
         25    2    1    2    0    0 -0.77066188207E+02  0.18950511935E+03 -0.25919873590E+03  0.35307302985E+03  0.12500076834E+03 0.  0.
          2    1    1    2  501    0  0.68614839329E+02  0.16512823120E+01  0.15388452623E+03  0.16849679618E+03  0.00000000000E+00 0. -1.
          1    1    1    2  502    0  0.84513488778E+01 -0.19115640167E+03  0.58764841726E+03  0.61801525669E+03  0.00000000000E+00 0. -1.
         22    1    3    3    0    0 -0.60434468588E+02  0.73856545638E+02 -0.20108301525E+03  0.22257918445E+03  0.00000000000E+00 0. -1.
         22    1    3    3    0    0 -0.16631719619E+02  0.11564857372E+03 -0.58115720647E+02  0.13049384540E+03  0.00000000000E+00 0. -1.
</event>
<event>
 7    1  0.4771409E-005  0.2499384E+03  0.7818608E-02  0.1235950E+00
          2   -1    0    0  502    0  0.00000000000E+00  0.00000000000E+00  0.30105889464E+04  0.30105889464E+04  0.00000000000E+00 0. -1.
          1   -1    0    0  501    0 -0.00000000000E+00 -0.00000000000E+00 -0.54000343673E+03  0.54000343673E+03  0.00000000000E+00 0. -1.
         25    2    1    2    0    0  0.21135752759E+03  0.14139996774E+03 -0.11147022813E+03  0.30449211912E+03  0.12499553393E+03 0.  0.
          2    1    1    2  501    0  0.24022787527E+02 -0.57107764329E+02 -0.32371651529E+03  0.32959182838E+03  0.00000000000E+00 0. -1.
          1    1    1    2  502    0 -0.23538031511E+03 -0.84292203410E+02  0.29057722531E+04  0.29165084356E+04  0.00000000000E+00 0. -1.
         22    1    3    3    0    0  0.87831814842E+02 -0.85551256420E+01 -0.45712207839E+02  0.99384223188E+02  0.00000000000E+00 0. -1.
         22    1    3    3    0    0  0.12352571274E+03  0.14995509338E+03 -0.65758020289E+02  0.20510789593E+03  0.00000000000E+00 0. -1.
</event>
<event>
 7    1  0.4402832E-005  0.1587028E+03  0.7818608E-02  0.1220113E+00
          2   -1    0    0  502    0  0.00000000000E+00  0.00000000000E+00  0.21810322148E+03  0.21810322148E+03  0.00000000000E+00 0. -1.
          1   -1    0    0  501    0 -0.00000000000E+00 -0.00000000000E+00 -0.46615162227E+03  0.46615162227E+03  0.00000000000E+00 0. -1.
         25    2    1    2    0    0 -0.14363154331E+03 -0.51826544778E+02  0.73806034621E+02  0.21068506806E+03  0.12499942473E+03 0.  0.
          2    1    1    2  501    0 -0.63085096974E+02  0.96112197374E+02 -0.41037009541E+02  0.12207096336E+03  0.00000000000E+00 0. -1.
          1    1    1    2  502    0  0.20671664028E+03 -0.44285652596E+02 -0.28081742587E+03  0.35149881233E+03  0.00000000000E+00 0. -1.
         22    1    3    3    0    0 -0.43854409980E+01  0.30094842199E+02 -0.51846950005E+01  0.30851461586E+02  0.00000000000E+00 0. -1.
         22    1    3    3    0    0 -0.13924610231E+03 -0.81921386977E+02  0.78990729622E+02  0.17983360648E+03  0.00000000000E+00 0. -1.
</event>
<event>
 7    1  0.4402832E-005  0.2556608E+03  0.7818608E-02  0.1317041E+00
          2   -1    0    0  502    0  0.00000000000E+00  0.00000000000E+00  0.13595311816E+03  0.13595311816E+03  0.00000000000E+00 0. -1.
          1   -1    0    0  501    0 -0.00000000000E+00 -0.00000000000E+00 -0.11077072985E+04  0.11077072985E+04  0.00000000000E+00 0. -1.
         25    2    1    2    0    0  0.14916736351E+03 -0.20161974712E+03 -0.89585308920E+03  0.93865819276E+03  0.12500008259E+03 0.  0.
          2    1    1    2  501    0  0.24718609482E+02  0.12840050673E+02 -0.35593251644E+02  0.45196859610E+02  0.00000000000E+00 0. -1.
          1    1    1    2  502    0 -0.17388597299E+03  0.18877969644E+03 -0.40307839520E+02  0.25980536430E+03  0.00000000000E+00 0. -1.
         22    1    3    3    0    0  0.11046403015E+03 -0.21280472393E+03 -0.75505171910E+03  0.79220657091E+03  0.00000000000E+00 0.  1.
         22    1    3    3    0    0  0.38703333363E+02  0.11184976817E+02 -0.14080137010E+03  0.14645162185E+03  0.00000000000E+00 0.  1.
</event>
<event>
 7    1  0.4402832E-005  0.8644777E+02  0.7818608E-02  0.1465906E+00
          2   -1    0    0  502    0  0.00000000000E+00  0.00000000000E+00  0.43647430542E+04  0.43647430542E+04  0.00000000000E+00 0. -1.
          1   -1    0    0  501    0 -0.00000000000E+00 -0.00000000000E+00 -0.60112433054E+02  0.60112433054E+02  0.00000000000E+00 0. -1.
         25    2    1    2    0    0 -0.28318734797E+02  0.10208187668E+03  0.41760391520E+04  0.41792524234E+04  0.12500063729E+03 0.  0.
          2    1    1    2  501    0  0.95185389677E+01 -0.85780608231E+02 -0.25121655249E+02  0.89888891945E+02  0.00000000000E+00 0. -1.
          1    1    1    2  502    0  0.18800195830E+02 -0.16301268454E+02  0.15371312437E+03  0.15571417187E+03  0.00000000000E+00 0. -1.
         22    1    3    3    0    0 -0.70580964630E+02  0.94821465130E+02  0.26922204345E+04  0.26948142145E+04  0.00000000000E+00 0. -1.
         22    1    3    3    0    0  0.42262229833E+02  0.72604115552E+01  0.14838187175E+04  0.14844382089E+04  0.00000000000E+00 0. -1.
</event>
<event>
 7    1  0.4402832E-005  0.8562717E+03  0.7818608E-02  0.1010453E+00
          2   -1    0    0  502    0  0.00000000000E+00  0.00000000000E+00  0.17854498961E+04  0.17854498961E+04  0.00000000000E+00 0. -1.
          1   -1    0    0  501    0 -0.00000000000E+00 -0.00000000000E+00 -0.18192864299E+04  0.18192864299E+04  0.00000000000E+00 0. -1.
         25    2    1    2    0    0  0.53362225461E+02 -0.91773844933E+03  0.89953467278E+03  0.12922380715E+04  0.12500086975E+03 0.  0.
          2    1    1    2  501    0 -0.27196219445E+03  0.14303271231E+03 -0.13649734156E+04  0.13991333808E+04  0.00000000000E+00 0. -1.
          1    1    1    2  502    0  0.21859996899E+03  0.77470573702E+03  0.43160220911E+03  0.91336487360E+03  0.00000000000E+00 0. -1.
         22    1    3    3    0    0  0.38287851033E+02 -0.15069534892E+03  0.20557084397E+03  0.25774875289E+03  0.00000000000E+00 0. -1.
         22    1    3    3    0    0  0.15074374428E+02 -0.76704310041E+03  0.69396382881E+03  0.10344893186E+04  0.00000000000E+00 0. -1.
</event>
<event>
 7    1  0.4402832E-005  0.2242412E+03  0.7818608E-02  0.1155558E+00
          2   -1    0    0  502    0  0.00000000000E+00  0.00000000000E+00  0.77450622064E+03  0.77450622064E+03  0.00000000000E+00 0. -1.
          1   -1    0    0  501    0 -0.00000000000E+00 -0.00000000000E+00 -0.15467088584E+03  0.15467088584E+03  0.00000000000E+00 0. -1.
         25    2    1    2    0    0  0.29457224757E+03 -0.37716435039E+02  0.31188545878E+03  0.44843209152E+03  0.12499385103E+03 0.  0.
          2    1    1    2  501    0 -0.13410703423E+03  0.98764043421E+02  0.24831514431E+03  0.29899739764E+03  0.00000000000E+00 0. -1.
          1    1    1    2  502    0 -0.16046521333E+03 -0.61047608383E+02  0.59634731711E+02  0.18174761733E+03  0.00000000000E+00 0. -1.
         22    1    3    3    0    0  0.19073324371E+03 -0.84137216757E+02  0.20188431712E+03  0.29019910234E+03  0.00000000000E+00 0. -1.
         22    1    3    3    0    0  0.10383900386E+03  0.46420781718E+02  0.11000114166E+03  0.15823298918E+03  0.00000000000E+00 0. -1.
</event>
<event>
 7    1  0.4402832E-005  0.1353912E+03  0.7818608E-02  0.1241902E+00
          2   -1    0    0  502    0  0.00000000000E+00  0.00000000000E+00  0.26424375734E+04  0.26424375734E+04  0.00000000000E+00 0. -1.
          1   -1    0    0  501    0 -0.00000000000E+00 -0.00000000000E+00 -0.48570760719E+03  0.48570760719E+03  0.00000000000E+00 0. -1.
         25    2    1    2    0    0 -0.32791095213E+00  0.14364668876E+03  0.59284562028E+03  0.62267631751E+03  0.12500155273E+03 0.  0.
          2    1    1    2  501    0 -0.96216948244E+02 -0.96023164493E+02 -0.45951923664E+03  0.47920358731E+03  0.00000000000E+00 0. -1.
          1    1    1    2  502    0  0.96544859196E+02 -0.47623524272E+02  0.20234035826E+04  0.20262652758E+04  0.00000000000E+00 0. -1.
         22    1    3    3    0    0  0.51053232161E+02  0.12302370974E+03  0.37679624327E+03  0.39964568635E+03  0.00000000000E+00 0. -1.
         22    1    3    3    0    0 -0.51381143113E+02  0.20622979028E+02  0.21604937701E+03  0.22303063116E+03  0.00000000000E+00 0. -1.
</event>
<event>
 7    1  0.4402832E-005  0.3779777E+03  0.7818608E-02  0.1109675E+00
          2   -1    0    0  502    0  0.00000000000E+00  0.00000000000E+00  0.11113956625E+04  0.11113956625E+04  0.00000000000E+00 0. -1.
          1   -1    0    0  501    0 -0.00000000000E+00 -0.00000000000E+00 -0.78333941044E+03  0.78333941044E+03  0.00000000000E+00 0. -1.
         25    2    1    2    0    0 -0.45009864090E+03  0.14060480618E+03 -0.10399164022E+03  0.49879421908E+03  0.12499165447E+03 0.  0.
          2    1    1    2  501    0  0.15383605505E+03  0.79481804395E+02 -0.42710596631E+03  0.46087134379E+03  0.00000000000E+00 0. -1.
          1    1    1    2  502    0  0.29626258585E+03 -0.22008661057E+03  0.85915385859E+03  0.93506951007E+03  0.00000000000E+00 0. -1.
         22    1    3    3    0    0 -0.19872620526E+03  0.62516340909E+00 -0.61014603249E+02  0.20788284512E+03  0.00000000000E+00 0.  1.
         22    1    3    3    0    0 -0.25137243564E+03  0.13997964277E+03 -0.42977036973E+02  0.29091137396E+03  0.00000000000E+00 0.  1.
</event>
<event>
 7    1  0.4402832E-005  0.1561014E+04  0.7818608E-02  0.1090080E+00
          2   -1    0    0  502    0  0.00000000000E+00  0.00000000000E+00  0.18994500808E+04  0.18994500808E+04  0.00000000000E+00 0. -1.
          1   -1    0    0  501    0 -0.00000000000E+00 -0.00000000000E+00 -0.41349310815E+04  0.41349310815E+04  0.00000000000E+00 0. -1.
         25    2    1    2    0    0  0.15300669941E+04  0.14251821538E+03  0.29804024825E+03  0.15703088296E+04  0.12500152995E+03 0.  0.
          2    1    1    2  501    0  0.51035501778E+02 -0.17850288527E+02 -0.28468877666E+04  0.28474011328E+04  0.00000000000E+00 0. -1.
          1    1    1    2  502    0 -0.15811024959E+04 -0.12466792685E+03  0.31336651765E+03  0.16166712000E+04  0.00000000000E+00 0. -1.
         22    1    3    3    0    0  0.73987220590E+03  0.42956192679E+02  0.20160144627E+03  0.76804899498E+03  0.00000000000E+00 0. -1.
         22    1    3    3    0    0  0.79019478819E+03  0.99562022701E+02  0.96438801976E+02  0.80225983457E+03  0.00000000000E+00 0. -1.
</event>
<event>
 7    1  0.4402832E-005  0.9599541E+02  0.7818608E-02  0.1323007E+00
          2   -1    0    0  502    0  0.00000000000E+00  0.00000000000E+00  0.28843182719E+03  0.28843182719E+03  0.00000000000E+00 0. -1.
          1   -1    0    0  501    0 -0.00000000000E+00 -0.00000000000E+00 -0.22023391306E+04  0.22023391306E+04  0.00000000000E+00 0. -1.
         25    2    1    2    0    0  0.56469416724E+02  0.11986534549E+02  0.18630854136E+03  0.23166444804E+03  0.12500028748E+03 0.  0.
          2    1    1    2  501    0 -0.79362183295E+02  0.54517274170E+02 -0.21628106055E+04  0.21649527026E+04  0.00000000000E+00 0. -1.
          1    1    1    2  502    0  0.22892766571E+02 -0.66503808719E+02  0.62594760699E+02  0.94153807158E+02  0.00000000000E+00 0. -1.
         22    1    3    3    0    0  0.20314730666E+02  0.67990681088E+02  0.92500528215E+02  0.11658374122E+03  0.00000000000E+00 0.  1.
         22    1    3    3    0    0  0.36154686059E+02 -0.56004146539E+02  0.93808013141E+02  0.11508070682E+03  0.00000000000E+00 0.  1.
</event>
<event>
 7    1  0.4402832E-005  0.3696213E+03  0.7818608E-02  0.1071756E+00
          2   -1    0    0  502    0  0.00000000000E+00  0.00000000000E+00  0.37770467074E+04  0.37770467074E+04  0.00000000000E+00 0. -1.
          1   -1    0    0  501    0 -0.00000000000E+00 -0.00000000000E+00 -0.96970555850E+02  0.96970555850E+02  0.00000000000E+00 0. -1.
         25    2    1    2    0    0  0.91227124227E+02  0.50366000792E+03  0.13098823629E+04  0.14118826403E+04  0.12499997396E+03 0.  0.
          2    1    1    2  501    0  0.11150163417E+03 -0.29331160059E+03  0.70740214515E+03  0.77387473432E+03  0.00000000000E+00 0. -1.
          1    1    1    2  502    0 -0.20272875840E+03 -0.21034840732E+03  0.16627916435E+04  0.16882598886E+04  0.00000000000E+00 0. -1.
         22    1    3    3    0    0 -0.11742096584E+02  0.21340040901E+03  0.63618901647E+03  0.67112895637E+03  0.00000000000E+00 0. -1.
         22    1    3    3    0    0  0.10296922081E+03  0.29025959890E+03  0.67369334645E+03  0.74075368392E+03  0.00000000000E+00 0. -1.
</event>
<event>
 7    1  0.4402832E-005  0.2302130E+03  0.7818608E-02  0.1167968E+00
          2   -1    0    0  502    0  0.00000000000E+00  0.00000000000E+00  0.13510557755E+04  0.13510557755E+04  0.00000000000E+00 0. -1.
          1   -1    0    0  501    0 -0.00000000000E+00 -0.00000000000E+00 -0.89440833668E+03  0.89440833668E+03  0.00000000000E+00 0. -1.
         25    2    1    2    0    0  0.20131214596E+03  0.20403458510E+03 -0.61634490576E+03  0.69113128769E+03  0.12499888774E+03 0.  0.
          2    1    1    2  501    0 -0.13939691307E+03  0.17352780117E+02 -0.20903974561E+03  0.25185359556E+03  0.00000000000E+00 0. -1.
          1    1    1    2  502    0 -0.61915232886E+02 -0.22138736521E+03  0.12820320902E+04  0.13024792289E+04  0.00000000000E+00 0. -1.
         22    1    3    3    0    0 -0.64235195578E+01  0.58526611250E+02 -0.10681410387E+03  0.12196671109E+03  0.00000000000E+00 0.  1.
         22    1    3    3    0    0  0.20773566552E+03  0.14550797385E+03 -0.50953080189E+03  0.56916457660E+03  0.00000000000E+00 0.  1.
</event>
<event>
 7    1  0.4402832E-005  0.1866843E+03  0.7818608E-02  0.1293559E+00
          2   -1    0    0  502    0  0.00000000000E+00  0.00000000000E+00  0.19837567300E+04  0.19837567300E+04  0.00000000000E+00 0. -1.
          1   -1    0    0  501    0 -0.00000000000E+00 -0.00000000000E+00 -0.68987018391E+03  0.68987018391E+03  0.00000000000E+00 0. -1.
         25    2    1    2    0    0  0.16306316228E+03  0.11298244458E+03  0.22811559341E+03  0.32713434446E+03  0.12500211076E+03 0.  0.
          2    1    1    2  501    0 -0.12379641113E+03 -0.13931815570E+03 -0.62646287260E+03  0.65359837107E+03  0.00000000000E+00 0. -1.
          1    1    1    2  502    0 -0.39266751151E+02  0.26335711126E+02  0.16922338253E+04  0.16928941984E+04  0.00000000000E+00 0. -1.
         22    1    3    3    0    0 -0.85354217811E+01  0.43380533830E+02  0.19891611434E+02  0.48480927650E+02  0.00000000000E+00 0. -1.
         22    1    3    3    0    0  0.17159858406E+03  0.69601910749E+02  0.20822398197E+03  0.27865341681E+03  0.00000000000E+00 0. -1.
</event>
<event>
 7    1  0.4402832E-005  0.9036163E+03  0.7818608E-02  0.1102551E+00
          2   -1    0    0  502    0  0.00000000000E+00  0.00000000000E+00  0.21224404653E+04  0.21224404653E+04  0.00000000000E+00 0. -1.
          1   -1    0    0  501    0 -0.00000000000E+00 -0.00000000000E+00 -0.65155317176E+03  0.65155317176E+03  0.00000000000E+00 0. -1.
         25    2    1    2    0    0 -0.59938030959E+03 -0.67961787866E+03  0.13599505350E+04  0.16389716020E+04  0.12500095200E+03 0.  0.
          2    1    1    2  501    0  0.53607974731E+03  0.72748475238E+03 -0.10044545355E+03  0.90923311068E+03  0.00000000000E+00 0. -1.
          1    1    1    2  502    0  0.63300562282E+02 -0.47866873719E+02  0.21138221202E+03  0.22578892431E+03  0.00000000000E+00 0. -1.
         22    1    3    3    0    0 -0.36023471579E+03 -0.49591629566E+03  0.92919396349E+03  0.11131502345E+04  0.00000000000E+00 0.  1.
         22    1    3    3    0    0 -0.23914559380E+03 -0.18370158300E+03  0.43075657155E+03  0.52582136755E+03  0.00000000000E+00 0.  1.
</event>
<event>
 7    1  0.4402832E-005  0.2519873E+03  0.7818608E-02  0.1124964E+00
          2   -1    0    0  502    0  0.00000000000E+00  0.00000000000E+00  0.49533163923E+03  0.49533163923E+03  0.00000000000E+00 0. -1.
          1   -1    0    0  501    0 -0.00000000000E+00 -0.00000000000E+00 -0.96410812376E+03  0.96410812376E+03  0.00000000000E+00 0. -1.
         25    2    1    2    0    0 -0.98802211570E+02  0.31510801951E+03 -0.74420232870E+03  0.82371646741E+03  0.12496708237E+03 0.  0.
          2    1    1    2  501    0  0.19741539581E+03 -0.83450799275E+02 -0.54072087341E+02  0.22104448655E+03  0.00000000000E+00 0. -1.
          1    1    1    2  502    0 -0.98613184242E+02 -0.23165722023E+03  0.32949793151E+03  0.41467880903E+03  0.00000000000E+00 0. -1.
         22    1    3    3    0    0 -0.89723379298E+02  0.10685740862E+03 -0.23205179746E+03  0.27077080210E+03  0.00000000000E+00 0. -1.
         22    1    3    3    0    0 -0.90788322724E+01  0.20825061089E+03 -0.51215053124E+03  0.55294566531E+03  0.00000000000E+00 0. -1.
</event>
<event>
 7    1  0.4402832E-005  0.3159912E+03  0.7818608E-02  0.1184531E+00
          2   -1    0    0  502    0  0.00000000000E+00  0.00000000000E+00  0.22660548269E+04  0.22660548269E+04  0.00000000000E+00 0. -1.
          1   -1    0    0  501    0 -0.00000000000E+00 -0.00000000000E+00 -0.74039027153E+03  0.74039027153E+03  0.00000000000E+00 0. -1.
         25    2    1    2    0    0  0.18955560426E+03 -0.25959541517E+03 -0.52890436538E+03  0.63141548642E+03  0.12499832830E+03 0.  0.
          2    1    1    2  501    0 -0.24115090534E+03  0.19223093602E+03 -0.10157214903E+02  0.30856062763E+03  0.00000000000E+00 0. -1.
          1    1    1    2  502    0  0.51595301076E+02  0.67364479156E+02  0.20647261356E+04  0.20664689844E+04  0.00000000000E+00 0. -1.
         22    1    3    3    0    0  0.53368491049E+02 -0.49028141360E+02 -0.23054530493E+03  0.24166731700E+03  0.00000000000E+00 0. -1.
         22    1    3    3    0    0  0.13618711321E+03 -0.21056727381E+03 -0.29835906045E+03  0.38974816941E+03  0.00000000000E+00 0. -1.
</event>
<event>
 7    1  0.4402832E-005  0.3271246E+03  0.7818608E-02  0.1197318E+00
          2   -1    0    0  502    0  0.00000000000E+00  0.00000000000E+00  0.65441610362E+03  0.65441610362E+03  0.00000000000E+00 0. -1.
          1   -1    0    0  501    0 -0.00000000000E+00 -0.00000000000E+00 -0.58199620788E+03  0.58199620788E+03  0.00000000000E+00 0. -1.
         25    2    1    2    0    0  0.24741769653E+03 -0.26221650686E+03 -0.16381921847E+03  0.41525133283E+03  0.12499568010E+03 0.  0.
          2    1    1    2  501    0 -0.23980241130E+03  0.19144223855E+03 -0.20835760959E+03  0.37090190164E+03  0.00000000000E+00 0. -1.
          1    1    1    2  502    0 -0.76152852304E+01  0.70774268316E+02  0.44459672381E+03  0.45025907703E+03  0.00000000000E+00 0. -1.
         22    1    3    3    0    0  0.13232238656E+03 -0.21304251909E+03 -0.74956025069E+02  0.26175319410E+03  0.00000000000E+00 0. -1.
         22    1    3    3    0    0  0.11509530997E+03 -0.49173987767E+02 -0.88863193403E+02  0.15349813873E+03  0.00000000000E+00 0. -1.
</event>
<event>
 7    1  0.4402832E-005  0.2264273E+03  0.7818608E-02  0.1242246E+00
          2   -1    0    0  502    0  0.00000000000E+00  0.00000000000E+00  0.31622301804E+03  0.31622301804E+03  0.00000000000E+00 0. -1.
          1   -1    0    0  501    0 -0.00000000000E+00 -0.00000000000E+00 -0.28788459100E+03  0.28788459100E+03  0.00000000000E+00 0. -1.
         25    2    1    2    0    0  0.11373731099E+03  0.17726944728E+03  0.80512361155E+02  0.25782085665E+03  0.12501488301E+03 0.  0.
          2    1    1    2  501    0 -0.70802210506E+02 -0.22492758527E+03 -0.10974443350E+03  0.26009462184E+03  0.00000000000E+00 0. -1.
          1    1    1    2  502    0 -0.42935100480E+02  0.47658137988E+02  0.57570499386E+02  0.86192130553E+02  0.00000000000E+00 0. -1.
         22    1    3    3    0    0  0.24518865661E+02  0.35209644720E+02  0.79186246287E+02  0.90063063770E+02  0.00000000000E+00 0. -1.
         22    1    3    3    0    0  0.89218445325E+02  0.14205980256E+03  0.13261148673E+01  0.16775779288E+03  0.00000000000E+00 0. -1.
</event>
<event>
 7    1  0.4402832E-005  0.9424493E+03  0.7818608E-02  0.1020092E+00
          2   -1    0    0  502    0  0.00000000000E+00  0.00000000000E+00  0.79511816603E+03  0.79511816603E+03  0.00000000000E+00 0. -1.
          1   -1    0    0  501    0 -0.00000000000E+00 -0.00000000000E+00 -0.17663635639E+04  0.17663635639E+04  0.00000000000E+00 0. -1.
         25    2    1    2    0    0 -0.26159774840E+03  0.95337842335E+03 -0.10779080737E+04  0.14679499767E+04  0.12501007490E+03 0.  0.
          2    1    1    2  501    0  0.39221473517E+03 -0.75090176401E+03  0.74271947247E+02  0.85041294665E+03  0.00000000000E+00 0. -1.
          1    1    1    2  502    0 -0.13061698678E+03 -0.20247665934E+03  0.32390728526E+02  0.24311880656E+03  0.00000000000E+00 0. -1.
         22    1    3    3    0    0 -0.15526563838E+03  0.33753409411E+03 -0.40199822030E+03  0.54739314233E+03  0.00000000000E+00 0.  1.
         22    1    3    3    0    0 -0.10633211002E+03  0.61584432924E+03 -0.67590985335E+03  0.92055683438E+03  0.00000000000E+00 0.  1.
</event>
<event>
 7    1  0.4402832E-005  0.3609676E+03  0.7818608E-02  0.1103819E+00
          2   -1    0    0  502    0  0.00000000000E+00  0.00000000000E+00  0.21770085324E+04  0.21770085324E+04  0.00000000000E+00 0. -1.
          1   -1    0    0  501    0 -0.00000000000E+00 -0.00000000000E+00 -0.78912690761E+03  0.78912690761E+03  0.00000000000E+00 0. -1.
         25    2    1    2    0    0 -0.46579212433E+03 -0.19498187677E+03  0.67091442288E+03  0.84895904124E+03  0.12500022204E+03 0.  0.
          2    1    1    2  501    0  0.13961218549E+03  0.13677193545E+03 -0.66651096567E+03  0.69457540413E+03  0.00000000000E+00 0. -1.
          1    1    1    2  502    0  0.32617993884E+03  0.58209941325E+02  0.13834781675E+04  0.14226009946E+04  0.00000000000E+00 0. -1.
         22    1    3    3    0    0 -0.27448886706E+03 -0.62723563101E+02  0.43101170533E+03  0.51482955785E+03  0.00000000000E+00 0. -1.
         22    1    3    3    0    0 -0.19130325727E+03 -0.13225831367E+03  0.23990271756E+03  0.33412948339E+03  0.00000000000E+00 0. -1.
</event>
<event>
 7    1  0.4402832E-005  0.1014786E+03  0.7818608E-02  0.1281632E+00
          2   -1    0    0  502    0  0.00000000000E+00  0.00000000000E+00  0.12569038334E+04  0.12569038334E+04  0.00000000000E+00 0. -1.
          1   -1    0    0  501    0 -0.00000000000E+00 -0.00000000000E+00 -0.36097955208E+03  0.36097955208E+03  0.00000000000E+00 0. -1.
         25    2    1    2    0    0 -0.74994581363E+01 -0.12074921850E+01 -0.27038570639E+02  0.12810472787E+03  0.12498814780E+03 0.  0.
          2    1    1    2  501    0 -0.80652584994E+02 -0.54428570064E+02 -0.27272158010E+03  0.28955892139E+03  0.00000000000E+00 0. -1.
          1    1    1    2  502    0  0.88152043130E+02  0.55636062249E+02  0.11956844321E+04  0.12002197362E+04  0.00000000000E+00 0. -1.
         22    1    3    3    0    0  0.41352331968E+02  0.42366578791E+02 -0.18861787905E+02  0.62134607109E+02  0.00000000000E+00 0. -1.
         22    1    3    3    0    0 -0.48851790104E+02 -0.43574070976E+02 -0.81767827337E+01  0.65970120764E+02  0.00000000000E+00 0. -1.
</event>
<event>
 7    1  0.4402832E-005  0.3544329E+03  0.7818608E-02  0.1218668E+00
          2   -1    0    0  502    0  0.00000000000E+00  0.00000000000E+00  0.16631274870E+04  0.16631274870E+04  0.00000000000E+00 0. -1.
          1   -1    0    0  501    0 -0.00000000000E+00 -0.00000000000E+00 -0.20221002870E+04  0.20221002870E+04  0.00000000000E+00 0. -1.
         25    2    1    2    0    0  0.39218111561E+03  0.51846517914E+02 -0.15973280091E+03  0.44456067147E+03  0.12500213626E+03 0.  0.
          2    1    1    2  501    0 -0.34262490925E+03 -0.68455046015E+02 -0.17017501199E+04  0.17372482241E+04  0.00000000000E+00 0. -1.
          1    1    1    2  502    0 -0.49556206359E+02  0.16608528101E+02  0.15025101208E+04  0.15034188784E+04  0.00000000000E+00 0. -1.
         22    1    3    3    0    0  0.28163372786E+03  0.34493277341E+01 -0.15990901939E+03  0.32388323361E+03  0.00000000000E+00 0. -1.
         22    1    3    3    0    0  0.11054738775E+03  0.48397190180E+02  0.17621847901E+00  0.12067743786E+03  0.00000000000E+00 0. -1.
</event>
<event>
 7    1  0.4402832E-005  0.3324304E+03  0.7818608E-02  0.1177180E+00
          2   -1    0    0  502    0  0.00000000000E+00  0.00000000000E+00  0.57710969875E+03  0.57710969875E+03  0.00000000000E+00 0. -1.
          1   -1    0    0  501    0 -0.00000000000E+00 -0.00000000000E+00 -0.74798061046E+03  0.74798061046E+03  0.00000000000E+00 0. -1.
         25    2    1    2    0    0  0.82637580046E+02 -0.39065028309E+03 -0.13200511125E+02  0.41861150950E+03  0.12499891633E+03 0.  0.
          2    1    1    2  501    0 -0.10947438242E+02  0.86906773878E+02 -0.46220230669E+03  0.47042917220E+03  0.00000000000E+00 0. -1.
          1    1    1    2  502    0 -0.71690141804E+02  0.30374350921E+03  0.30453190610E+03  0.43604962751E+03  0.00000000000E+00 0. -1.
         22    1    3    3    0    0 -0.33546657482E+02 -0.91642807858E+02 -0.10856623381E+01  0.97595907307E+02  0.00000000000E+00 0.  1.
         22    1    3    3    0    0  0.11618423753E+03 -0.29900747523E+03 -0.12114848787E+02  0.32101560220E+03  0.00000000000E+00 0.  1.
</event>
<event>
 7    1  0.4402832E-005  0.1463430E+03  0.7818608E-02  0.1302323E+00
          2   -1    0    0  502    0  0.00000000000E+00  0.00000000000E+00  0.37674789202E+03  0.37674789202E+03  0.00000000000E+00 0. -1.
          1   -1    0    0  501    0 -0.00000000000E+00 -0.00000000000E+00 -0.23236412283E+03  0.23236412283E+03  0.00000000000E+00 0. -1.
         25    2    1    2    0    0  0.72141132660E+02 -0.12122460006E+03 -0.40493187873E+02  0.19277958665E+03  0.12499809632E+03 0.  0.
          2    1    1    2  501    0 -0.49349268144E+02 -0.25653255064E+02 -0.88868035093E+02  0.10483781485E+03  0.00000000000E+00 0. -1.
          1    1    1    2  502    0 -0.22791864516E+02  0.14687785513E+03  0.27374499215E+03  0.31149461335E+03  0.00000000000E+00 0. -1.
         22    1    3    3    0    0  0.10116958163E+03 -0.70953137935E+02 -0.28709512739E+01  0.12360369894E+03  0.00000000000E+00 0. -1.
         22    1    3    3    0    0 -0.29028448971E+02 -0.50271462127E+02 -0.37622236599E+02  0.69175887712E+02  0.00000000000E+00 0. -1.
</event>
<event>
 7    1  0.4402832E-005  0.9897285E+02  0.7818608E-02  0.1404981E+00
          2   -1    0    0  502    0  0.00000000000E+00  0.00000000000E+00  0.65319514999E+01  0.65319514999E+01  0.00000000000E+00 0. -1.
          1   -1    0    0  501    0 -0.00000000000E+00 -0.00000000000E+00 -0.40187081346E+04  0.40187081346E+04  0.00000000000E+00 0. -1.
         25    2    1    2    0    0 -0.65147383713E+02  0.73769750946E+02 -0.15134215423E+04  0.15217607174E+04  0.12499903389E+03 0.  0.
          2    1    1    2  501    0  0.88064852387E+02 -0.48147595575E+02 -0.22637424711E+04  0.22659663689E+04  0.00000000000E+00 0. -1.
          1    1    1    2  502    0 -0.22917468674E+02 -0.25622155371E+02 -0.23501216963E+03  0.23751299984E+03  0.00000000000E+00 0. -1.
         22    1    3    3    0    0  0.18763512955E+02  0.42728423420E+02 -0.20327906634E+03  0.20856693505E+03  0.00000000000E+00 0. -1.
         22    1    3    3    0    0 -0.83910896668E+02  0.31041327526E+02 -0.13101424760E+04  0.13131937823E+04  0.00000000000E+00 0. -1.
</event>
<event>
 7    1  0.4402832E-005  0.3134596E+03  0.7818608E-02  0.1181542E+00
          2   -1    0    0  502    0  0.00000000000E+00  0.00000000000E+00  0.57225307439E+03  0.57225307439E+03  0.00000000000E+00 0. -1.
          1   -1    0    0  501    0 -0.00000000000E+00 -0.00000000000E+00 -0.21963404482E+04  0.21963404482E+04  0.00000000000E+00 0. -1.
         25    2    1    2    0    0 -0.24130648949E+03  0.25261120263E+03  0.24270745119E+03  0.44336518486E+03  0.12499815486E+03 0.  0.
          2    1    1    2  501    0  0.87429538847E+02 -0.13368147749E+02 -0.20064086459E+04  0.20083571112E+04  0.00000000000E+00 0. -1.
          1    1    1    2  502    0  0.15387695064E+03 -0.23924305488E+03  0.13961382090E+03  0.31687122658E+03  0.00000000000E+00 0. -1.
         22    1    3    3    0    0 -0.25465310785E+03  0.23862696619E+03  0.21609595709E+03  0.41047350341E+03  0.00000000000E+00 0. -1.
         22    1    3    3    0    0  0.13346618359E+02  0.13984236434E+02  0.26611494096E+02  0.32891681445E+02  0.00000000000E+00 0. -1.
</event>
<event>
 7    1  0.4402832E-005  0.2213848E+03  0.7818608E-02  0.1253724E+00
          2   -1    0    0  502    0  0.00000000000E+00  0.00000000000E+00  0.38231475804E+03  0.38231475804E+03  0.00000000000E+00 0. -1.
          1   -1    0    0  501    0 -0.00000000000E+00 -0.00000000000E+00 -0.13861181552E+04  0.13861181552E+04  0.00000000000E+00 0. -1.
         25    2    1    2    0    0  0.25871938055E+02 -0.25757876126E+03  0.15433760685E+03  0.32628218054E+03  0.12499515597E+03 0.  0.
          2    1    1    2  501    0  0.18354283825E+02  0.21931997946E+03 -0.12843402625E+04  0.13030610281E+04  0.00000000000E+00 0. -1.
          1    1    1    2  502    0 -0.44226221880E+02  0.38258781804E+02  0.12619925847E+03  0.13908970460E+03  0.00000000000E+00 0. -1.
         22    1    3    3    0    0 -0.49573068807E+02 -0.76923296810E+02  0.54609032602E+02  0.10656842490E+03  0.00000000000E+00 0. -1.
         22    1    3    3    0    0  0.75445006862E+02 -0.18065546445E+03  0.99728574250E+02  0.21971375564E+03  0.00000000000E+00 0. -1.
</event>
<event>
 7    1  0.4402832E-005  0.1561099E+04  0.7818608E-02  0.1022870E+00
          2   -1    0    0  502    0  0.00000000000E+00  0.00000000000E+00  0.25152534511E+04  0.25152534511E+04  0.00000000000E+00 0. -1.
          1   -1    0    0  501    0 -0.00000000000E+00 -0.00000000000E+00 -0.22308829716E+04  0.22308829716E+04  0.00000000000E+00 0. -1.
         25    2    1    2    0    0 -0.43183345458E+03  0.15539731919E+04  0.12748644249E+04  0.20596642486E+04  0.12499880583E+03 0.  0.
          2    1    1    2  501    0  0.11299947768E+02 -0.13903480407E+03 -0.11889293147E+04  0.11970844919E+04  0.00000000000E+00 0. -1.
          1    1    1    2  502    0  0.42053350681E+03 -0.14149383879E+04  0.19843536929E+03  0.14893876821E+04  0.00000000000E+00 0. -1.
         22    1    3    3    0    0 -0.35216689106E+03  0.11682692337E+04  0.90282754287E+03  0.15178840844E+04  0.00000000000E+00 0. -1.
         22    1    3    3    0    0 -0.79666563518E+02  0.38570395827E+03  0.37203688205E+03  0.54178016425E+03  0.00000000000E+00 0. -1.
</event>
<event>
 7    1  0.4402832E-005  0.1947986E+03  0.7818608E-02  0.1197909E+00
          2   -1    0    0  502    0  0.00000000000E+00  0.00000000000E+00  0.12606815953E+04  0.12606815953E+04  0.00000000000E+00 0. -1.
          1   -1    0    0  501    0 -0.00000000000E+00 -0.00000000000E+00 -0.11773023302E+03  0.11773023302E+03  0.00000000000E+00 0. -1.
         25    2    1    2    0    0  0.28392025019E+03 -0.12861144333E+02  0.24637408904E+03  0.39635990948E+03  0.12499947437E+03 0.  0.
          2    1    1    2  501    0 -0.10960518535E+03 -0.45748573024E+02  0.75737571848E+02  0.14086308380E+03  0.00000000000E+00 0. -1.
          1    1    1    2  502    0 -0.17431506485E+03  0.58609717357E+02  0.82083970143E+03  0.84118883507E+03  0.00000000000E+00 0. -1.
         22    1    3    3    0    0  0.64481885960E+02 -0.49331764721E+02  0.10523928925E+03  0.13291668304E+03  0.00000000000E+00 0. -1.
         22    1    3    3    0    0  0.21943836423E+03  0.36470620389E+02  0.14113479979E+03  0.26344322645E+03  0.00000000000E+00 0. -1.
</event>
<event>
 7    1  0.4402832E-005  0.4194274E+03  0.7818608E-02  0.1119110E+00
          2   -1    0    0  502    0  0.00000000000E+00  0.00000000000E+00  0.12090923082E+04  0.12090923082E+04  0.00000000000E+00 0. -1.
          1   -1    0    0  501    0 -0.00000000000E+00 -0.00000000000E+00 -0.39943148206E+03  0.39943148206E+03  0.00000000000E+00 0. -1.
         25    2    1    2    0    0 -0.38464623689E+03  0.27830829324E+03  0.23425029470E+02  0.49150989891E+03  0.12500006030E+03 0.  0.
          2    1    1    2  501    0  0.24629988932E+03 -0.28501044686E+03  0.64578176572E+02  0.38218442039E+03  0.00000000000E+00 0. -1.
          1    1    1    2  502    0  0.13834634758E+03  0.67021536252E+01  0.72165762014E+03  0.73482947101E+03  0.00000000000E+00 0. -1.
         22    1    3    3    0    0 -0.55187247132E+02  0.67628191283E+02  0.48112650933E+02  0.99669612631E+02  0.00000000000E+00 0.  1.
         22    1    3    3    0    0 -0.32945898976E+03  0.21068010195E+03 -0.24687621464E+02  0.39184028627E+03  0.00000000000E+00 0.  1.
</event>
<event>
 7    1  0.4402832E-005  0.3310036E+03  0.7818608E-02  0.1270905E+00
          2   -1    0    0  502    0  0.00000000000E+00  0.00000000000E+00  0.31261263367E+04  0.31261263367E+04  0.00000000000E+00 0. -1.
          1   -1    0    0  501    0 -0.00000000000E+00 -0.00000000000E+00 -0.15280935907E+03  0.15280935907E+03  0.00000000000E+00 0. -1.
         25    2    1    2    0    0 -0.33802506979E+03 -0.42839742718E+02  0.17054968114E+03  0.40101395360E+03  0.12501522260E+03 0.  0.
          2    1    1    2  501    0  0.30801635756E+03  0.28976999866E+02  0.60143693480E+03  0.67634320400E+03  0.00000000000E+00 0. -1.
          1    1    1    2  502    0  0.30008712226E+02  0.13862742853E+02  0.22013303617E+04  0.22015785381E+04  0.00000000000E+00 0. -1.
         22    1    3    3    0    0 -0.19708699922E+03  0.24873104237E+02  0.53596559574E+02  0.20575360939E+03  0.00000000000E+00 0.  1.
         22    1    3    3    0    0 -0.14093807056E+03 -0.67712846956E+02  0.11695312157E+03  0.19526034421E+03  0.00000000000E+00 0.  1.
</event>
<event>
 7    1  0.4402832E-005  0.1006469E+03  0.7818608E-02  0.1374389E+00
          2   -1    0    0  502    0  0.00000000000E+00  0.00000000000E+00  0.11186365185E+04  0.11186365185E+04  0.00000000000E+00 0. -1.
          1   -1    0    0  501    0 -0.00000000000E+00 -0.00000000000E+00 -0.94218683925E+03  0.94218683925E+03  0.00000000000E+00 0. -1.
         25    2    1    2    0    0 -0.57692822716E+02  0.49030359915E+01  0.64680876299E+03  0.66131543567E+03  0.12499611203E+03 0.  0.
          2    1    1    2  501    0  0.99663644058E+02 -0.15260862020E+02 -0.93120065848E+03  0.93664315628E+03  0.00000000000E+00 0. -1.
          1    1    1    2  502    0 -0.41970821342E+02  0.10357826029E+02  0.46084157477E+03  0.46286476582E+03  0.00000000000E+00 0. -1.
         22    1    3    3    0    0 -0.15070328868E+02 -0.50459569642E+02  0.43738841495E+03  0.44054728295E+03  0.00000000000E+00 0. -1.
         22    1    3    3    0    0 -0.42622493848E+02  0.55362605633E+02  0.20942034804E+03  0.22076815273E+03  0.00000000000E+00 0. -1.
</event>
<event>
 7    1  0.5046414E-005  0.4817359E+03  0.7818608E-02  0.1112960E+00
          2   -1    0    0  502    0  0.00000000000E+00  0.00000000000E+00  0.19126445856E+04  0.19126445856E+04  0.00000000000E+00 0. -1.
          1   -1    0    0  501    0 -0.00000000000E+00 -0.00000000000E+00 -0.16568542052E+04  0.16568542052E+04  0.00000000000E+00 0. -1.
         25    2    1    2    0    0  0.34604309205E+03  0.46909001391E+03 -0.78861810051E+03  0.98860223826E+03  0.12499845735E+03 0.  0.
          2    1    1    2  501    0 -0.86289934680E+01 -0.13002135887E+03 -0.73082214771E+03  0.74234831775E+03  0.00000000000E+00 0. -1.
          1    1    1    2  502    0 -0.33741409858E+03 -0.33906865504E+03  0.17752306286E+04  0.18385482347E+04  0.00000000000E+00 0. -1.
         22    1    3    3    0    0  0.35600898152E+03  0.44524308018E+03 -0.74828837137E+03  0.94070148405E+03  0.00000000000E+00 0.  1.
         22    1    3    3    0    0 -0.99658894729E+01  0.23846933722E+02 -0.40329729143E+02  0.47900754208E+02  0.00000000000E+00 0.  1.
</event>
<event>
 7    1  0.4402832E-005  0.3471937E+03  0.7818608E-02  0.1255096E+00
          2   -1    0    0  502    0  0.00000000000E+00  0.00000000000E+00  0.13117257837E+04  0.13117257837E+04  0.00000000000E+00 0. -1.
          1   -1    0    0  501    0 -0.00000000000E+00 -0.00000000000E+00 -0.91257917426E+03  0.91257917426E+03  0.00000000000E+00 0. -1.
         25    2    1    2    0    0 -0.14992982188E+03 -0.32929806400E+03  0.81712766155E+03  0.90235146666E+03  0.12499755070E+03 0.  0.
          2    1    1    2  501    0  0.42960159920E+01  0.36532312473E+02 -0.81035589765E+03  0.81119032691E+03  0.00000000000E+00 0. -1.
          1    1    1    2  502    0  0.14563380589E+03  0.29276575153E+03  0.39237484559E+03  0.51076316443E+03  0.00000000000E+00 0. -1.
         22    1    3    3    0    0 -0.13316043287E+03 -0.21055161518E+03  0.65433030218E+03  0.70015128929E+03  0.00000000000E+00 0. -1.
         22    1    3    3    0    0 -0.16769389008E+02 -0.11874644882E+03  0.16279735937E+03  0.20220017738E+03  0.00000000000E+00 0. -1.
</event>
<event>
 7    1  0.4402832E-005  0.1411853E+04  0.7818608E-02  0.9871457E-01
          2   -1    0    0  502    0  0.00000000000E+00  0.00000000000E+00  0.14875362583E+04  0.14875362583E+04  0.00000000000E+00 0. -1.
          1   -1    0    0  501    0 -0.00000000000E+00 -0.00000000000E+00 -0.42899554381E+04  0.42899554381E+04  0.00000000000E+00 0. -1.
         25    2    1    2    0    0 -0.11101745093E+04  0.63899349450E+03  0.15790828083E+03  0.12966728744E+04  0.12500156359E+03 0.  0.
          2    1    1    2  501    0  0.13465346384E+04 -0.50987181471E+03 -0.35509106675E+04  0.38317217237E+04  0.00000000000E+00 0. -1.
          1    1    1    2  502    0 -0.23636012912E+03 -0.12912167979E+03  0.59058320677E+03  0.64909709824E+03  0.00000000000E+00 0. -1.
         22    1    3    3    0    0 -0.51706753545E+03  0.35480218604E+03  0.38750413242E+02  0.62828737212E+03  0.00000000000E+00 0. -1.
         22    1    3    3    0    0 -0.59310697386E+03  0.28419130846E+03  0.11915786759E+03  0.66838550228E+03  0.00000000000E+00 0. -1.
</event>
<event>
 7    1  0.4402832E-005  0.9084469E+02  0.7818608E-02  0.1361567E+00
          2   -1    0    0  502    0  0.00000000000E+00  0.00000000000E+00  0.18804829090E+04  0.18804829090E+04  0.00000000000E+00 0. -1.
          1   -1    0    0  501    0 -0.00000000000E+00 -0.00000000000E+00 -0.31309230543E+03  0.31309230543E+03  0.00000000000E+00 0. -1.
         25    2    1    2    0    0 -0.21097924159E+02  0.67803268118E+02  0.70282008941E+03  0.71737317229E+03  0.12500313867E+03 0.  0.
          2    1    1    2  501    0 -0.28790188130E+02 -0.86496291361E+02 -0.29839867809E+03  0.31201322799E+03  0.00000000000E+00 0. -1.
          1    1    1    2  502    0  0.49888112289E+02  0.18693023242E+02  0.11629691923E+04  0.11641888142E+04  0.00000000000E+00 0. -1.
         22    1    3    3    0    0  0.13646777775E+01  0.55879863087E+02  0.68259616018E+03  0.68488096728E+03  0.00000000000E+00 0.  1.
         22    1    3    3    0    0 -0.22462601936E+02  0.11923405032E+02  0.20223929224E+02  0.32492205012E+02  0.00000000000E+00 0.  1.
</event>
<event>
 7    1  0.4402832E-005  0.1930175E+03  0.7818608E-02  0.1301885E+00
          2   -1    0    0  502    0  0.00000000000E+00  0.00000000000E+00  0.13853205178E+04  0.13853205178E+04  0.00000000000E+00 0. -1.
          1   -1    0    0  501    0 -0.00000000000E+00 -0.00000000000E+00 -0.80780422433E+03  0.80780422433E+03  0.00000000000E+00 0. -1.
         25    2    1    2    0    0  0.17308848205E+03 -0.11305277151E+03 -0.53223200239E+03  0.58449665034E+03  0.12499951250E+03 0.  0.
          2    1    1    2  501    0 -0.16245293881E+03  0.72071146129E+02 -0.21740327238E+03  0.28080133595E+03  0.00000000000E+00 0. -1.
          1    1    1    2  502    0 -0.10635543248E+02  0.40981625384E+02  0.13271515682E+04  0.13278267558E+04  0.00000000000E+00 0. -1.
         22    1    3    3    0    0  0.93892379474E+02 -0.12718639911E+03 -0.30670257014E+03  0.34504872927E+03  0.00000000000E+00 0. -1.
         22    1    3    3    0    0  0.79196102579E+02  0.14133627598E+02 -0.22552943225E+03  0.23944792107E+03  0.00000000000E+00 0. -1.
</event>
<event>
 7    1  0.4402832E-005  0.5234689E+03  0.7818608E-02  0.1123598E+00
          2   -1    0    0  502    0  0.00000000000E+00  0.00000000000E+00  0.34601365128E+04  0.34601365128E+04  0.00000000000E+00 0. -1.
          1   -1    0    0  501    0 -0.00000000000E+00 -0.00000000000E+00 -0.25304190973E+03  0.25304190973E+03  0.00000000000E+00 0. -1.
         25    2    1    2    0    0  0.48114713216E+03  0.34940856578E+02  0.29786859305E+04  0.30200859257E+04  0.12500279755E+03 0.  0.
          2    1    1    2  501    0 -0.51119405515E+03 -0.13548420744E+03  0.12014653299E+03  0.54231957541E+03  0.00000000000E+00 0. -1.
          1    1    1    2  502    0  0.30046922996E+02  0.10054335086E+03  0.10826213953E+03  0.15077292144E+03  0.00000000000E+00 0. -1.
         22    1    3    3    0    0  0.18497536877E+03 -0.21938413374E+02  0.85213823623E+03  0.87225956841E+03  0.00000000000E+00 0.  1.
         22    1    3    3    0    0  0.29617176338E+03  0.56879269952E+02  0.21265476943E+04  0.21478263573E+04  0.00000000000E+00 0.  1.
</event>
<event>
 7    1  0.4402832E-005  0.9323709E+03  0.7818608E-02  0.9763373E-01
          2   -1    0    0  502    0  0.00000000000E+00  0.00000000000E+00  0.14295995108E+04  0.14295995108E+04  0.00000000000E+00 0. -1.
          1   -1    0    0  501    0 -0.00000000000E+00 -0.00000000000E+00 -0.19449054971E+04  0.19449054971E+04  0.00000000000E+00 0. -1.
         25    2    1    2    0    0 -0.10153937444E+04  0.13670312212E+03  0.90071080249E+02  0.10360747563E+04  0.12500360505E+03 0.  0.
          2    1    1    2  501    0  0.26775692998E+03  0.40646530570E+03 -0.11618625896E+04  0.12596953979E+04  0.00000000000E+00 0. -1.
          1    1    1    2  502    0  0.74763681445E+03 -0.54316842782E+03  0.55648552306E+03  0.10787348537E+04  0.00000000000E+00 0. -1.
         22    1    3    3    0    0 -0.88932543524E+03  0.14349441630E+03  0.44760188500E+02  0.90193894014E+03  0.00000000000E+00 0. -1.
         22    1    3    3    0    0 -0.12606830920E+03 -0.67912941851E+01  0.45310891748E+02  0.13413581614E+03  0.00000000000E+00 0. -1.
</event>
<event>
 7    1  0.4402832E-005  0.2854379E+03  0.7818608E-02  0.1158173E+00
          2   -1    0    0  502    0  0.00000000000E+00  0.00000000000E+00  0.22392985828E+04  0.22392985828E+04  0.00000000000E+00 0. -1.
          1   -1    0    0  501    0 -0.00000000000E+00 -0.00000000000E+00 -0.21670433403E+03  0.21670433403E+03  0.00000000000E+00 0. -1.
         25    2    1    2    0    0  0.19653596700E+03 -0.22727162438E+03  0.24599051576E+03  0.40794074759E+03  0.12500216850E+03 0.  0.
          2    1    1    2  501    0 -0.26167143571E+03  0.11836443179E+03  0.21092558060E+02  0.28797044116E+03  0.00000000000E+00 0. -1.
          1    1    1    2  502    0  0.65135468706E+02  0.10890719259E+03  0.17555111749E+04  0.17600917280E+04  0.00000000000E+00 0. -1.
         22    1    3    3    0    0  0.78969289674E+02 -0.17985613203E+03  0.17243963028E+03  0.26138057126E+03  0.00000000000E+00 0. -1.
         22    1    3    3    0    0  0.11756667733E+03 -0.47415492353E+02  0.73550885476E+02  0.14656017633E+03  0.00000000000E+00 0. -1.
</event>
<event>
 7    1  0.4402832E-005  0.5237707E+03  0.7818608E-02  0.1136263E+00
          2   -1    0    0  502    0  0.00000000000E+00  0.00000000000E+00  0.18394352029E+04  0.18394352029E+04  0.00000000000E+00 0. -1.
          1   -1    0    0  501    0 -0.00000000000E+00 -0.00000000000E+00 -0.83207169626E+03  0.83207169626E+03  0.00000000000E+00 0. -1.
         25    2    1    2    0    0 -0.55642649094E+03  0.32040660665E+02  0.34454639192E+03  0.66706284127E+03  0.12499429693E+03 0.  0.
          2    1    1    2  501    0  0.51590764958E+03  0.48064361145E+02 -0.56888151062E+03  0.76947843298E+03  0.00000000000E+00 0. -1.
          1    1    1    2  502    0  0.40518841368E+02 -0.80105021810E+02  0.12316986253E+04  0.12349656249E+04  0.00000000000E+00 0. -1.
         22    1    3    3    0    0 -0.43015851615E+03 -0.18023545622E+02  0.29746565261E+03  0.52330393817E+03  0.00000000000E+00 0. -1.
         22    1    3    3    0    0 -0.12626797479E+03  0.50064206287E+02  0.47080739301E+02  0.14375890311E+03  0.00000000000E+00 0. -1.
</event>
<event>
 7    1  0.4402832E-005  0.1118020E+04  0.7818608E-02  0.1014018E+00
          2   -1    0    0  502    0  0.00000000000E+00  0.00000000000E+00  0.30840721974E+04  0.30840721974E+04  0.00000000000E+00 0. -1.
          1   -1    0    0  501    0 -0.00000000000E+00 -0.00000000000E+00 -0.18810582727E+04  0.18810582727E+04  0.00000000000E+00 0. -1.
         25    2    1    2    0    0 -0.51400580296E+03 -0.12101354826E+04 -0.42474979872E+03  0.13873240835E+04  0.12500347737E+03 0.  0.
          2    1    1    2  501    0  0.10451733120E+03  0.19675575023E+03 -0.84520170363E+03  0.87407243269E+03  0.00000000000E+00 0. -1.
          1    1    1    2  502    0  0.40948847176E+03  0.10133797324E+04  0.24729654270E+04  0.27037339539E+04  0.00000000000E+00 0. -1.
         22    1    3    3    0    0 -0.51482168201E+03 -0.11866604129E+04 -0.43024557600E+03  0.13632004825E+04  0.00000000000E+00 0. -1.
         22    1    3    3    0    0  0.81587905030E+00 -0.23475069718E+02  0.54957772858E+01  0.24123600993E+02  0.00000000000E+00 0. -1.
</event>
<event>
 7    1  0.6778294E-005  0.1814850E+03  0.7818608E-02  0.1336161E+00
          2   -1    0    0  502    0  0.00000000000E+00  0.00000000000E+00  0.22320322015E+04  0.22320322015E+04  0.00000000000E+00 0. -1.
          1   -1    0    0  501    0 -0.00000000000E+00 -0.00000000000E+00 -0.99601051591E+03  0.99601051591E+03  0.00000000000E+00 0. -1.
         25    2    1    2    0    0  0.10046530787E+03 -0.14282274404E+03 -0.87412860019E+03  0.90012053424E+03  0.12499820872E+03 0.  0.
          2    1    1    2  501    0 -0.24669263724E+02 -0.22121405211E+02 -0.10255928705E+03  0.10777910976E+03  0.00000000000E+00 0. -1.
          1    1    1    2  502    0 -0.75796044146E+02  0.16494414925E+03  0.22127095729E+04  0.22201430734E+04  0.00000000000E+00 0. -1.
         22    1    3    3    0    0  0.10726584961E+03 -0.49891781677E+02 -0.56507480643E+03  0.57732546214E+03  0.00000000000E+00 0. -1.
         22    1    3    3    0    0 -0.68005417358E+01 -0.92930962363E+02 -0.30905379376E+03  0.32279507210E+03  0.00000000000E+00 0. -1.
</event>
<event>
 7    1  0.4402832E-005  0.2275870E+03  0.7818608E-02  0.1189902E+00
          2   -1    0    0  502    0  0.00000000000E+00  0.00000000000E+00  0.63970840728E+03  0.63970840728E+03  0.00000000000E+00 0. -1.
          1   -1    0    0  501    0 -0.00000000000E+00 -0.00000000000E+00 -0.71495061432E+03  0.71495061432E+03  0.00000000000E+00 0. -1.
         25    2    1    2    0    0 -0.29645898271E+03 -0.95736682898E+02  0.30153744086E+02  0.33703004665E+03  0.12500625257E+03 0.  0.
          2    1    1    2  501    0  0.83082748678E+02  0.73600931152E+02 -0.53022058026E+03  0.54171367337E+03  0.00000000000E+00 0. -1.
          1    1    1    2  502    0  0.21337623403E+03  0.22135751746E+02  0.42482462914E+03  0.47591530158E+03  0.00000000000E+00 0. -1.
         22    1    3    3    0    0 -0.92662149953E+02 -0.63665535300E+02 -0.39685395524E+02  0.11922459913E+03  0.00000000000E+00 0.  1.
         22    1    3    3    0    0 -0.20379683275E+03 -0.32071147598E+02  0.69839139610E+02  0.21780544752E+03  0.00000000000E+00 0.  1.
</event>
<event>
 7    1  0.4402832E-005  0.9617184E+03  0.7818608E-02  0.1077331E+00
          2   -1    0    0  502    0  0.00000000000E+00  0.00000000000E+00  0.21287373608E+04  0.21287373608E+04  0.00000000000E+00 0. -1.
          1   -1    0    0  501    0 -0.00000000000E+00 -0.00000000000E+00 -0.32896371967E+04  0.32896371967E+04  0.00000000000E+00 0. -1.
         25    2    1    2    0    0 -0.70508040528E+03 -0.62998551077E+03 -0.24964338396E+03  0.98588355795E+03  0.12499779598E+03 0.  0.
          2    1    1    2  501    0  0.57332369138E+02 -0.86861149311E+02 -0.25381815806E+04  0.25403144679E+04  0.00000000000E+00 0. -1.
          1    1    1    2  502    0  0.64774803614E+03  0.71684666008E+03  0.16269251287E+04  0.18921765316E+04  0.00000000000E+00 0. -1.
         22    1    3    3    0    0 -0.50468506165E+03 -0.40555941803E+03 -0.12097066236E+03  0.65864964447E+03  0.00000000000E+00 0. -1.
         22    1    3    3    0    0 -0.20039534363E+03 -0.22442609274E+03 -0.12867272160E+03  0.32723391349E+03  0.00000000000E+00 0. -1.
</event>
<event>
 7    1  0.4402832E-005  0.2388654E+03  0.7818608E-02  0.1200307E+00
          2   -1    0    0  502    0  0.00000000000E+00  0.00000000000E+00  0.29871940925E+04  0.29871940925E+04  0.00000000000E+00 0. -1.
          1   -1    0    0  501    0 -0.00000000000E+00 -0.00000000000E+00 -0.82374311547E+03  0.82374311547E+03  0.00000000000E+00 0. -1.
         25    2    1    2    0    0 -0.20271362515E+03  0.37051430599E+02  0.11644242653E+04  0.11891064839E+04  0.12499895192E+03 0.  0.
          2    1    1    2  501    0 -0.37525088996E+02  0.86583475619E+02 -0.79852777209E+03  0.80408422031E+03  0.00000000000E+00 0. -1.
          1    1    1    2  502    0  0.24023871414E+03 -0.12363490622E+03  0.17975544838E+04  0.18177465037E+04  0.00000000000E+00 0. -1.
         22    1    3    3    0    0 -0.19411783688E+03 -0.54508239456E+01  0.10196516497E+04  0.10379792545E+04  0.00000000000E+00 0.  1.
         22    1    3    3    0    0 -0.85957882693E+01  0.42502254545E+02  0.14477261564E+03  0.15112722937E+03  0.00000000000E+00 0.  1.
</event>
<event>
 7    1  0.4402832E-005  0.9361728E+02  0.7818608E-02  0.1298137E+00
          2   -1    0    0  502    0  0.00000000000E+00  0.00000000000E+00  0.54259792446E+03  0.54259792446E+03  0.00000000000E+00 0. -1.
          1   -1    0    0  501    0 -0.00000000000E+00 -0.00000000000E+00 -0.26200741384E+03  0.26200741384E+03  0.00000000000E+00 0. -1.
         25    2    1    2    0    0  0.71832766457E+01  0.33362796863E+02  0.11938304978E+03  0.17618860928E+03  0.12500175114E+03 0.  0.
          2    1    1    2  501    0 -0.96860531810E+02 -0.22256011365E+02 -0.21747189973E+03  0.23910524845E+03  0.00000000000E+00 0. -1.
          1    1    1    2  502    0  0.89677255164E+02 -0.11106785498E+02  0.37867936057E+03  0.38931148057E+03  0.00000000000E+00 0. -1.
         22    1    3    3    0    0 -0.46494126673E+02  0.35521919787E+01  0.10234763125E+03  0.11246937141E+03  0.00000000000E+00 0. -1.
         22    1    3    3    0    0  0.53677403318E+02  0.29810604884E+02  0.17035418529E+02  0.63719237872E+02  0.00000000000E+00 0. -1.
</event>
<event>
 7    1  0.4402832E-005  0.7602765E+02  0.7818608E-02  0.1409812E+00
          2   -1    0    0  502    0  0.00000000000E+00  0.00000000000E+00  0.28746126057E+03  0.28746126057E+03  0.00000000000E+00 0. -1.
          1   -1    0    0  501    0 -0.00000000000E+00 -0.00000000000E+00 -0.56630236041E+03  0.56630236041E+03  0.00000000000E+00 0. -1.
         25    2    1    2    0    0  0.17543187530E+02  0.32331257831E+02 -0.51945471640E+02  0.14027337381E+03  0.12500085485E+03 0.  0.
          2    1    1    2  501    0  0.64200237231E+01  0.42607820731E+02 -0.46280526687E+03  0.46480679657E+03  0.00000000000E+00 0. -1.
          1    1    1    2  502    0 -0.23963211253E+02 -0.74939078562E+02  0.23590963867E+03  0.24868345061E+03  0.00000000000E+00 0. -1.
         22    1    3    3    0    0 -0.12106249741E+01 -0.45644837829E+02 -0.36826862902E+02  0.58661185331E+02  0.00000000000E+00 0. -1.
         22    1    3    3    0    0  0.18753812504E+02  0.77976095659E+02 -0.15118608738E+02  0.81612188476E+02  0.00000000000E+00 0. -1.
</event>
<event>
 7    1  0.4402832E-005  0.4270890E+03  0.7818608E-02  0.1090039E+00
          2   -1    0    0  502    0  0.00000000000E+00  0.00000000000E+00  0.39678642920E+03  0.39678642920E+03  0.00000000000E+00 0. -1.
          1   -1    0    0  501    0 -0.00000000000E+00 -0.00000000000E+00 -0.16738726964E+04  0.16738726964E+04  0.00000000000E+00 0. -1.
         25    2    1    2    0    0 -0.51988900314E+03 -0.21331635619E+03 -0.33345948715E+03  0.66528889141E+03  0.12500254421E+03 0.  0.
          2    1    1    2  501    0  0.32353240004E+03  0.23653014683E+03 -0.10887063163E+04  0.11601298062E+04  0.00000000000E+00 0. -1.
          1    1    1    2  502    0  0.19635660310E+03 -0.23213790638E+02  0.14507953624E+03  0.24524042793E+03  0.00000000000E+00 0. -1.
         22    1    3    3    0    0 -0.81178851509E+02 -0.49516931533E+02 -0.88662216728E+01  0.95501530498E+02  0.00000000000E+00 0. -1.
         22    1    3    3    0    0 -0.43871015163E+03 -0.16379942466E+03 -0.32459326547E+03  0.56978736091E+03  0.00000000000E+00 0. -1.
</event>
<event>
 7    1  0.4402832E-005  0.1977797E+03  0.7818608E-02  0.1214339E+00
          2   -1    0    0  502    0  0.00000000000E+00  0.00000000000E+00  0.50859281074E+03  0.50859281074E+03  0.00000000000E+00 0. -1.
          1   -1    0    0  501    0 -0.00000000000E+00 -0.00000000000E+00 -0.48174135807E+03  0.48174135807E+03  0.00000000000E+00 0. -1.
         25    2    1    2    0    0 -0.44696937626E+02 -0.18155196428E+03 -0.22327457932E+03  0.31691582072E+03  0.12500067072E+03 0.  0.
          2    1    1    2  501    0  0.97318187852E+02 -0.11910608824E+02 -0.17657147152E+03  0.20196578137E+03  0.00000000000E+00 0. -1.
          1    1    1    2  502    0 -0.52621250226E+02  0.19346257310E+03  0.42669750351E+03  0.47145256672E+03  0.00000000000E+00 0. -1.
         22    1    3    3    0    0  0.25035988026E+02 -0.33273650057E+02 -0.21482753638E+01  0.41695941908E+02  0.00000000000E+00 0. -1.
         22    1    3    3    0    0 -0.69732925652E+02 -0.14827831422E+03 -0.22112630396E+03  0.27521987881E+03  0.00000000000E+00 0. -1.
</event>
<event>
 7    1  0.4402832E-005  0.6184614E+03  0.7818608E-02  0.1141752E+00
          2   -1    0    0  502    0  0.00000000000E+00  0.00000000000E+00  0.13698705038E+04  0.13698705038E+04  0.00000000000E+00 0. -1.
          1   -1    0    0  501    0 -0.00000000000E+00 -0.00000000000E+00 -0.22353681832E+04  0.22353681832E+04  0.00000000000E+00 0. -1.
         25    2    1    2    0    0  0.51082798756E+03  0.36256317046E+03 -0.58326634730E+03  0.86499819150E+03  0.12499981590E+03 0.  0.
          2    1    1    2  501    0 -0.53957547440E+03 -0.29748332352E+03 -0.14473030655E+04  0.15729984690E+04  0.00000000000E+00 0. -1.
          1    1    1    2  502    0  0.28747486846E+02 -0.65079846936E+02  0.11650717334E+04  0.11672420265E+04  0.00000000000E+00 0. -1.
         22    1    3    3    0    0  0.49465803577E+01 -0.93209721916E+01 -0.62728874135E+01  0.12275923441E+02  0.00000000000E+00 0. -1.
         22    1    3    3    0    0  0.50588140720E+03  0.37188414265E+03 -0.57699345988E+03  0.85272226806E+03  0.00000000000E+00 0. -1.
</event>
<event>
 7    1  0.4402832E-005  0.3613567E+03  0.7818608E-02  0.1250251E+00
          2   -1    0    0  502    0  0.00000000000E+00  0.00000000000E+00  0.11709778882E+04  0.11709778882E+04  0.00000000000E+00 0. -1.
          1   -1    0    0  501    0 -0.00000000000E+00 -0.00000000000E+00 -0.49517730479E+03  0.49517730479E+03  0.00000000000E+00 0. -1.
         25    2    1    2    0    0 -0.33209314122E+03 -0.13057912756E+03  0.34464369606E+03  0.51160985609E+03  0.12501441765E+03 0.  0.
          2    1    1    2  501    0 -0.18734345174E+02  0.32007231055E+02 -0.36600925229E+03  0.36788342079E+03  0.00000000000E+00 0. -1.
          1    1    1    2  502    0  0.35082748639E+03  0.98571896502E+02  0.69716613969E+03  0.78666191615E+03  0.00000000000E+00 0. -1.
         22    1    3    3    0    0 -0.28286757496E+03 -0.84593166914E+02  0.21407900236E+03  0.36469149716E+03  0.00000000000E+00 0. -1.
         22    1    3    3    0    0 -0.49225566256E+02 -0.45985960644E+02  0.13056469370E+03  0.14691835893E+03  0.00000000000E+00 0. -1.
</event>
<event>
 7    1  0.4402832E-005  0.1282298E+03  0.7818608E-02  0.1320500E+00
          2   -1    0    0  502    0  0.00000000000E+00  0.00000000000E+00  0.14566563513E+03  0.14566563513E+03  0.00000000000E+00 0. -1.
          1   -1    0    0  501    0 -0.00000000000E+00 -0.00000000000E+00 -0.44146682935E+03  0.44146682935E+03  0.00000000000E+00 0. -1.
         25    2    1    2    0    0  0.14108468951E+03  0.63409340907E+02  0.17783466634E+02  0.19966586344E+03  0.12499828483E+03 0.  0.
          2    1    1    2  501    0 -0.12548511260E+03 -0.11876068013E+02 -0.30865374154E+03  0.33339869022E+03  0.00000000000E+00 0. -1.
          1    1    1    2  502    0 -0.15599576911E+02 -0.51533272894E+02 -0.49309193145E+01  0.54067910818E+02  0.00000000000E+00 0. -1.
         22    1    3    3    0    0  0.63166660153E+01  0.16482655021E+02 -0.41530183727E+02  0.45125761450E+02  0.00000000000E+00 0. -1.
         22    1    3    3    0    0  0.13476802350E+03  0.46926685887E+02  0.59313650361E+02  0.15454010199E+03  0.00000000000E+00 0. -1.
</event>
<event>
 7    1  0.4402832E-005  0.1056670E+04  0.7818608E-02  0.1059620E+00
          2   -1    0    0  502    0  0.00000000000E+00  0.00000000000E+00  0.26969871923E+04  0.26969871923E+04  0.00000000000E+00 0. -1.
          1   -1    0    0  501    0 -0.00000000000E+00 -0.00000000000E+00 -0.90738095432E+03  0.90738095432E+03  0.00000000000E+00 0. -1.
         25    2    1    2    0    0  0.10174382629E+04 -0.49045689993E+03  0.10229348400E+04  0.15289699044E+04  0.12499876835E+03 0.  0.
          2    1    1    2  501    0 -0.95983698135E+03  0.38418207432E+03 -0.24011166948E+03  0.10613842428E+04  0.00000000000E+00 0. -1.
          1    1    1    2  502    0 -0.57601281560E+02  0.10627482561E+03  0.10067830675E+04  0.10140139995E+04  0.00000000000E+00 0. -1.
         22    1    3    3    0    0  0.91783908502E+03 -0.40965455792E+03  0.86968894364E+03  0.13291366753E+04  0.00000000000E+00 0. -1.
         22    1    3    3    0    0  0.99599177887E+02 -0.80802342010E+02  0.15324589637E+03  0.19983322913E+03  0.00000000000E+00 0. -1.
</event>
<event>
 7    1  0.4402832E-005  0.7326054E+02  0.7818608E-02  0.1462970E+00
          2   -1    0    0  502    0  0.00000000000E+00  0.00000000000E+00  0.86184625968E+02  0.86184625968E+02  0.00000000000E+00 0. -1.
          1   -1    0    0  501    0 -0.00000000000E+00 -0.00000000000E+00 -0.33724815206E+03  0.33724815206E+03  0.00000000000E+00 0. -1.
         25    2    1    2    0    0 -0.41653819564E+02  0.61292632676E+02  0.50144645419E+01  0.14540595620E+03  0.12500367891E+03 0.  0.
          2    1    1    2  501    0  0.62201075000E+02 -0.39445583813E+02 -0.21425712597E+03  0.22656355365E+03  0.00000000000E+00 0. -1.
          1    1    1    2  502    0 -0.20547255435E+02 -0.21847048863E+02 -0.41820864671E+02  0.51463268180E+02  0.00000000000E+00 0. -1.
         22    1    3    3    0    0 -0.57969724865E+01  0.50228800382E+02  0.60234071967E+02  0.78642740946E+02  0.00000000000E+00 0. -1.
         22    1    3    3    0    0 -0.35856847078E+02  0.11063832294E+02 -0.55219607425E+02  0.66763215258E+02  0.00000000000E+00 0. -1.
</event>
<event>
 7    1  0.4402832E-005  0.1498255E+03  0.7818608E-02  0.1223965E+00
          2   -1    0    0  502    0  0.00000000000E+00  0.00000000000E+00  0.31810633435E+02  0.31810633435E+02  0.00000000000E+00 0. -1.
          1   -1    0    0  501    0 -0.00000000000E+00 -0.00000000000E+00 -0.25532377418E+04  0.25532377418E+04  0.00000000000E+00 0. -1.
         25    2    1    2    0    0 -0.21311123354E+03 -0.70939443003E+02 -0.88292066974E+03  0.91957778943E+03  0.12500239727E+03 0.  0.
          2    1    1    2  501    0  0.11676912689E+03 -0.68075076232E+01 -0.12961672174E+04  0.13014341423E+04  0.00000000000E+00 0. -1.
          1    1    1    2  502    0  0.96342106647E+02  0.77746950626E+02 -0.34233922118E+03  0.36403644351E+03  0.00000000000E+00 0. -1.
         22    1    3    3    0    0 -0.13417624275E+03  0.12627129627E+02 -0.36584633794E+03  0.38987979110E+03  0.00000000000E+00 0.  1.
         22    1    3    3    0    0 -0.78934990787E+02 -0.83566572629E+02 -0.51707433179E+03  0.52969799833E+03  0.00000000000E+00 0.  1.
</event>
<event>
 7    1  0.4402832E-005  0.1493092E+03  0.7818608E-02  0.1298603E+00
          2   -1    0    0  502    0  0.00000000000E+00  0.00000000000E+00  0.74013683847E+03  0.74013683847E+03  0.00000000000E+00 0. -1.
          1   -1    0    0  501    0 -0.00000000000E+00 -0.00000000000E+00 -0.16819601407E+03  0.16819601407E+03  0.00000000000E+00 0. -1.
         25    2    1    2    0    0  0.12250961643E+03  0.11001622833E+03  0.64193274316E+03  0.67439967018E+03  0.12500036716E+03 0.  0.
          2    1    1    2  501    0 -0.50223766435E+02 -0.25693246010E+02 -0.10353988135E+03  0.11791130834E+03  0.00000000000E+00 0. -1.
          1    1    1    2  502    0 -0.72285849998E+02 -0.84322982320E+02  0.33547962588E+02  0.11602187402E+03  0.00000000000E+00 0. -1.
         22    1    3    3    0    0  0.12827378666E+03  0.44232568772E+02  0.35702490024E+03  0.38193908398E+03  0.00000000000E+00 0.  1.
         22    1    3    3    0    0 -0.57641702268E+01  0.65783659558E+02  0.28490784292E+03  0.29246058620E+03  0.00000000000E+00 0.  1.
</event>
<event>
 7    1  0.4402832E-005  0.6434964E+02  0.7818608E-02  0.1520541E+00
          2   -1    0    0  502    0  0.00000000000E+00  0.00000000000E+00  0.94894218159E+03  0.94894218159E+03  0.00000000000E+00 0. -1.
          1   -1    0    0  501    0 -0.00000000000E+00 -0.00000000000E+00 -0.36265061247E+03  0.36265061247E+03  0.00000000000E+00 0. -1.
         25    2    1    2    0    0  0.50973425009E+02  0.58213288262E+02  0.10157836094E+03  0.17868405723E+03  0.12499100732E+03 0.  0.
          2    1    1    2  501    0 -0.53414682187E+02 -0.35461848974E+02 -0.32076284064E+03  0.32710773599E+03  0.00000000000E+00 0. -1.
          1    1    1    2  502    0  0.24412571779E+01 -0.22751439288E+02  0.80547604882E+03  0.80580100084E+03  0.00000000000E+00 0. -1.
         22    1    3    3    0    0 -0.92373809454E+01 -0.13647726431E+02 -0.19513644556E+02  0.25541573314E+02  0.00000000000E+00 0. -1.
         22    1    3    3    0    0  0.60210805955E+02  0.71861014693E+02  0.12109200549E+03  0.15314248392E+03  0.00000000000E+00 0. -1.
</event>
<event>
 7    1  0.4402832E-005  0.1061500E+03  0.7818608E-02  0.1349080E+00
          2   -1    0    0  502    0  0.00000000000E+00  0.00000000000E+00  0.71107096756E+03  0.71107096756E+03  0.00000000000E+00 0. -1.
          1   -1    0    0  501    0 -0.00000000000E+00 -0.00000000000E+00 -0.39658020362E+03  0.39658020362E+03  0.00000000000E+00 0. -1.
         25    2    1    2    0    0 -0.12390014830E+02  0.11070248924E+03 -0.46155647038E+02  0.17367641260E+03  0.12499839578E+03 0.  0.
          2    1    1    2  501    0  0.49472843894E+02 -0.10974221838E+02 -0.28000212648E+03  0.28455085075E+03  0.00000000000E+00 0. -1.
          1    1    1    2  502    0 -0.37082829065E+02 -0.99728267403E+02  0.64064853746E+03  0.64942390784E+03  0.00000000000E+00 0. -1.
         22    1    3    3    0    0 -0.28176207813E+02  0.12143804797E+03 -0.10185401581E+01  0.12466810180E+03  0.00000000000E+00 0. -1.
         22    1    3    3    0    0  0.15786192983E+02 -0.10735558728E+02 -0.45137106880E+02  0.49008310801E+02  0.00000000000E+00 0. -1.
</event>
<event>
 7    1  0.4402832E-005  0.1441430E+04  0.7818608E-02  0.1154819E+00
          2   -1    0    0  502    0  0.00000000000E+00  0.00000000000E+00  0.18871516475E+04  0.18871516475E+04  0.00000000000E+00 0. -1.
          1   -1    0    0  501    0 -0.00000000000E+00 -0.00000000000E+00 -0.14930241269E+04  0.14930241269E+04  0.00000000000E+00 0. -1.
         25    2    1    2    0    0  0.90805808534E+03 -0.11355552376E+04 -0.55260570669E+03  0.15604659255E+04  0.12500261368E+03 0.  0.
          2    1    1    2  501    0  0.47692043425E+01  0.25696891306E+02 -0.59788382360E+02  0.65251254380E+02  0.00000000000E+00 0. -1.
          1    1    1    2  502    0 -0.91282728968E+03  0.11098583463E+04  0.10065216096E+04  0.17544585946E+04  0.00000000000E+00 0. -1.
         22    1    3    3    0    0  0.21276507820E+03 -0.29914003577E+03 -0.19404762180E+03  0.41522068714E+03  0.00000000000E+00 0.  1.
         22    1    3    3    0    0  0.69529300713E+03 -0.83641520184E+03 -0.35855808489E+03  0.11452452383E+04  0.00000000000E+00 0.  1.
</event>
<event>
 7    1  0.4402832E-005  0.2538321E+03  0.7818608E-02  0.1117681E+00
          2   -1    0    0  502    0  0.00000000000E+00  0.00000000000E+00  0.54311328096E+03  0.54311328096E+03  0.00000000000E+00 0. -1.
          1   -1    0    0  501    0 -0.00000000000E+00 -0.00000000000E+00 -0.73733986135E+03  0.73733986135E+03  0.00000000000E+00 0. -1.
         25    2    1    2    0    0  0.11975256668E+03  0.44594724982E+03  0.16650450667E+03  0.50651605195E+03  0.12500053318E+03 0.  0.
          2    1    1    2  501    0 -0.10213274362E+03 -0.21360521996E+03 -0.46257125769E+03  0.51964454751E+03  0.00000000000E+00 0. -1.
          1    1    1    2  502    0 -0.17619823060E+02 -0.23234202985E+03  0.10184017062E+03  0.25429254286E+03  0.00000000000E+00 0. -1.
         22    1    3    3    0    0  0.69667857437E+02  0.39944929114E+03  0.11665636043E+03  0.42192659667E+03  0.00000000000E+00 0.  1.
         22    1    3    3    0    0  0.50084709239E+02  0.46497958681E+02  0.49848146235E+02  0.84589455277E+02  0.00000000000E+00 0.  1.
</event>
<event>
 7    1  0.4402832E-005  0.3400520E+03  0.7818608E-02  0.1269015E+00
          2   -1    0    0  502    0  0.00000000000E+00  0.00000000000E+00  0.19672828688E+04  0.19672828688E+04  0.00000000000E+00 0. -1.
          1   -1    0    0  501    0 -0.00000000000E+00 -0.00000000000E+00 -0.12795569084E+04  0.12795569084E+04  0.00000000000E+00 0. -1.
         25    2    1    2    0    0 -0.21216093406E+03  0.24198566460E+03  0.56049342069E+02  0.34976527238E+03  0.12499957281E+03 0.  0.
          2    1    1    2  501    0  0.71105372117E+01  0.31989281202E+02 -0.11158627429E+04  0.11163438246E+04  0.00000000000E+00 0. -1.
          1    1    1    2  502    0  0.20505039685E+03 -0.27397494581E+03  0.17475393612E+04  0.17807306802E+04  0.00000000000E+00 0. -1.
         22    1    3    3    0    0 -0.29903607000E+02 -0.10277912898E+02  0.17588053791E+02  0.36182880501E+02  0.00000000000E+00 0.  1.
         22    1    3    3    0    0 -0.18225732706E+03  0.25226357750E+03  0.38461288278E+02  0.31358239188E+03  0.00000000000E+00 0.  1.
</event>
<event>
 7    1  0.4402832E-005  0.6933673E+02  0.7818608E-02  0.1440782E+00
          2   -1    0    0  502    0  0.00000000000E+00  0.00000000000E+00  0.80157053612E+03  0.80157053612E+03  0.00000000000E+00 0. -1.
          1   -1    0    0  501    0 -0.00000000000E+00 -0.00000000000E+00 -0.32105557142E+03  0.32105557142E+03  0.00000000000E+00 0. -1.
         25    2    1    2    0    0  0.29439556959E+02 -0.28364035407E+02 -0.15441178852E+03  0.20283117508E+03  0.12500511643E+03 0.  0.
          2    1    1    2  501    0  0.36704785106E+02  0.66375109537E+01 -0.13840117384E+03  0.14333939696E+03  0.00000000000E+00 0. -1.
          1    1    1    2  502    0 -0.66144342065E+02  0.21726524454E+02  0.77332792705E+03  0.77645553550E+03  0.00000000000E+00 0. -1.
         22    1    3    3    0    0  0.29981298399E+02 -0.28428605166E+02  0.65809982625E+01  0.41837463875E+02  0.00000000000E+00 0.  1.
         22    1    3    3    0    0 -0.54174144036E+00  0.64569758328E-01 -0.16099278678E+03  0.16099371121E+03  0.00000000000E+00 0.  1.
</event>
<event>
 7    1  0.4402832E-005  0.2782938E+03  0.7818608E-02  0.1297880E+00
          2   -1    0    0  502    0  0.00000000000E+00  0.00000000000E+00  0.38018353368E+03  0.38018353368E+03  0.00000000000E+00 0. -1.
          1   -1    0    0  501    0 -0.00000000000E+00 -0.00000000000E+00 -0.98649564689E+03  0.98649564689E+03  0.00000000000E+00 0. -1.
         25    2    1    2    0    0  0.23864509092E+03  0.19087463639E+03  0.11764316199E+03  0.35049839672E+03  0.12499842521E+03 0.  0.
          2    1    1    2  501    0 -0.21894143148E+03 -0.16763272268E+03 -0.84630473796E+03  0.89009425885E+03  0.00000000000E+00 0. -1.
          1    1    1    2  502    0 -0.19703659439E+02 -0.23241913709E+02  0.12234946277E+03  0.12608652501E+03  0.00000000000E+00 0. -1.
         22    1    3    3    0    0  0.21822221426E+03  0.14124990556E+03  0.50944275186E+02  0.26489203422E+03  0.00000000000E+00 0.  1.
         22    1    3    3    0    0  0.20422876658E+02  0.49624730823E+02  0.66698886801E+02  0.85606362502E+02  0.00000000000E+00 0.  1.
</event>
<event>
 7    1  0.4402832E-005  0.4864995E+03  0.7818608E-02  0.1093786E+00
          2   -1    0    0  502    0  0.00000000000E+00  0.00000000000E+00  0.12328594230E+04  0.12328594230E+04  0.00000000000E+00 0. -1.
          1   -1    0    0  501    0 -0.00000000000E+00 -0.00000000000E+00 -0.37772505370E+03  0.37772505370E+03  0.00000000000E+00 0. -1.
         25    2    1    2    0    0  0.15225379177E+03  0.50078927394E+03  0.32402596792E+03  0.62816387196E+03  0.12500363257E+03 0.  0.
          2    1    1    2  501    0  0.10917997380E+02 -0.47486044278E+03  0.54638480408E+02  0.47811819284E+03  0.00000000000E+00 0. -1.
          1    1    1    2  502    0 -0.16317178915E+03 -0.25928831163E+02  0.47646992093E+03  0.50430241187E+03  0.00000000000E+00 0. -1.
         22    1    3    3    0    0  0.25419180772E+02  0.29264439768E+03  0.16166418450E+03  0.33529417948E+03  0.00000000000E+00 0.  1.
         22    1    3    3    0    0  0.12683461100E+03  0.20814487626E+03  0.16236178342E+03  0.29286969248E+03  0.00000000000E+00 0.  1.
</event>
<event>
 7    1  0.4402832E-005  0.6239772E+03  0.7818608E-02  0.1005658E+00
          2   -1    0    0  502    0  0.00000000000E+00  0.00000000000E+00  0.20458933284E+04  0.20458933284E+04  0.00000000000E+00 0. -1.
          1   -1    0    0  501    0 -0.00000000000E+00 -0.00000000000E+00 -0.17254755814E+04  0.17254755814E+04  0.00000000000E+00 0. -1.
         25    2    1    2    0    0 -0.45646212710E+02  0.66438911417E+03 -0.13262093656E+04  0.14892794475E+04  0.12500207753E+03 0.  0.
          2    1    1    2  501    0  0.42363091957E+03 -0.41250991765E+03  0.18277756832E+02  0.59157557807E+03  0.00000000000E+00 0. -1.
          1    1    1    2  502    0 -0.37798470686E+03 -0.25187919652E+03  0.16283493558E+04  0.16905138842E+04  0.00000000000E+00 0. -1.
         22    1    3    3    0    0  0.13004120439E+02  0.98037001865E+01 -0.13152746626E+02  0.20933571830E+02  0.00000000000E+00 0.  1.
         22    1    3    3    0    0 -0.58650333148E+02  0.65458541399E+03 -0.13130566190E+04  0.14683458756E+04  0.00000000000E+00 0.  1.
</event>
<event>
 7    1  0.4402832E-005  0.9102682E+02  0.7818608E-02  0.1325863E+00
          2   -1    0    0  502    0  0.00000000000E+00  0.00000000000E+00  0.40764980337E+03  0.40764980337E+03  0.00000000000E+00 0. -1.
          1   -1    0    0  501    0 -0.00000000000E+00 -0.00000000000E+00 -0.98676923413E+02  0.98676923413E+02  0.00000000000E+00 0. -1.
         25    2    1    2    0    0  0.26957369644E+02  0.36435642719E+02  0.94675842447E+02  0.16322555381E+03  0.12499924174E+03 0.  0.
          2    1    1    2  501    0 -0.14088308481E+02  0.70931334694E+02 -0.28173121909E+02  0.77610949456E+02  0.00000000000E+00 0. -1.
          1    1    1    2  502    0 -0.12869061163E+02 -0.10736697741E+03  0.24247015942E+03  0.26549022352E+03  0.00000000000E+00 0. -1.
         22    1    3    3    0    0 -0.28066511199E+01  0.32872111900E+02  0.11970837455E+03  0.12417144587E+03  0.00000000000E+00 0.  1.
         22    1    3    3    0    0  0.29764020764E+02  0.35635308194E+01 -0.25032532102E+02  0.39054107945E+02  0.00000000000E+00 0.  1.
</event>
<event>
 7    1  0.4402832E-005  0.5517855E+03  0.7818608E-02  0.1224661E+00
          2   -1    0    0  502    0  0.00000000000E+00  0.00000000000E+00  0.25693282097E+04  0.25693282097E+04  0.00000000000E+00 0. -1.
          1   -1    0    0  501    0 -0.00000000000E+00 -0.00000000000E+00 -0.23232554749E+04  0.23232554749E+04  0.00000000000E+00 0. -1.
         25    2    1    2    0    0 -0.44202742673E+02  0.54112450154E+03  0.15906917773E+03  0.57939502495E+03  0.12500393193E+03 0.  0.
          2    1    1    2  501    0  0.29142710408E+02  0.12036680834E+02 -0.20781755326E+04  0.20784147140E+04  0.00000000000E+00 0. -1.
          1    1    1    2  502    0  0.15060032265E+02 -0.55316118238E+03  0.21651790896E+04  0.22347739456E+04  0.00000000000E+00 0. -1.
         22    1    3    3    0    0  0.16671272608E+02  0.20557632862E+03  0.11327163515E+03  0.23530835418E+03  0.00000000000E+00 0.  1.
         22    1    3    3    0    0 -0.60874015281E+02  0.33554817292E+03  0.45797542577E+02  0.34408667076E+03  0.00000000000E+00 0.  1.
</event>
<event>
 7    1  0.4402832E-005  0.4259463E+02  0.7818608E-02  0.1600822E+00
          2   -1    0    0  502    0  0.00000000000E+00  0.00000000000E+00  0.38784102657E+03  0.38784102657E+03  0.00000000000E+00 0. -1.
          1   -1    0    0  501    0 -0.00000000000E+00 -0.00000000000E+00 -0.52675827152E+03  0.52675827152E+03  0.00000000000E+00 0. -1.
         25    2    1    2    0    0  0.11224125904E+02 -0.21511613170E+02  0.56136060206E+02  0.13916048728E+03  0.12500261382E+03 0.  0.
          2    1    1    2  501    0  0.17873952951E+02 -0.10607456788E+02 -0.48340332401E+03  0.48384994575E+03  0.00000000000E+00 0. -1.
          1    1    1    2  502    0 -0.29098078856E+02  0.32119069958E+02  0.28835001886E+03  0.29158886505E+03  0.00000000000E+00 0. -1.
         22    1    3    3    0    0 -0.42757051724E+02 -0.45130142056E+02  0.72318682648E+01  0.62587499652E+02  0.00000000000E+00 0. -1.
         22    1    3    3    0    0  0.53981177628E+02  0.23618528886E+02  0.48904191942E+02  0.76572987628E+02  0.00000000000E+00 0. -1.
</event>
<event>
 7    1  0.4402832E-005  0.1125425E+04  0.7818608E-02  0.1079298E+00
          2   -1    0    0  502    0  0.00000000000E+00  0.00000000000E+00  0.23191815476E+04  0.23191815476E+04  0.00000000000E+00 0. -1.
          1   -1    0    0  501    0 -0.00000000000E+00 -0.00000000000E+00 -0.27252892167E+04  0.27252892167E+04  0.00000000000E+00 0. -1.
         25    2    1    2    0    0 -0.10202500543E+04  0.53492674037E+03 -0.11143336435E+04  0.16076130082E+04  0.12499329674E+03 0.  0.
          2    1    1    2  501    0  0.10067505630E+04 -0.44938155023E+03 -0.11404076063E+04  0.15861967036E+04  0.00000000000E+00 0. -1.
          1    1    1    2  502    0  0.13499491255E+02 -0.85545190141E+02  0.18486335806E+04  0.18506610525E+04  0.00000000000E+00 0. -1.
         22    1    3    3    0    0 -0.63291945654E+03  0.27574805353E+03 -0.71464798805E+03  0.99365274332E+03  0.00000000000E+00 0.  1.
         22    1    3    3    0    0 -0.38733059776E+03  0.25917868684E+03 -0.39968565549E+03  0.61396026490E+03  0.00000000000E+00 0.  1.
</event>
<event>
 7    1  0.4402832E-005  0.8003369E+03  0.7818608E-02  0.1219012E+00
          2   -1    0    0  502    0  0.00000000000E+00  0.00000000000E+00  0.16813253661E+04  0.16813253661E+04  0.00000000000E+00 0. -1.
          1   -1    0    0  501    0 -0.00000000000E+00 -0.00000000000E+00 -0.11619390839E+04  0.11619390839E+04  0.00000000000E+00 0. -1.
         25    2    1    2    0    0  0.79449657408E+03 -0.97870241211E+02  0.12334203458E+04  0.14757211748E+04  0.12499538366E+03 0.  0.
          2    1    1    2  501    0  0.19256539261E+01  0.22981863216E+02 -0.55060031213E+03  0.55108309528E+03  0.00000000000E+00 0. -1.
          1    1    1    2  502    0 -0.79642222800E+03  0.74888377995E+02 -0.16343375147E+03  0.81646018001E+03  0.00000000000E+00 0. -1.
         22    1    3    3    0    0  0.29448742902E+03 -0.94813946012E+02  0.43969931372E+03  0.53763185982E+03  0.00000000000E+00 0.  1.
         22    1    3    3    0    0  0.50000914506E+03 -0.30562951989E+01  0.79372103206E+03  0.93808931494E+03  0.00000000000E+00 0.  1.
</event>
<event>
 7    1  0.4483422E-005  0.1297152E+04  0.7818608E-02  0.1097667E+00
          2   -1    0    0  502    0  0.00000000000E+00  0.00000000000E+00  0.24918693301E+04  0.24918693301E+04  0.00000000000E+00 0. -1.
          1   -1    0    0  501    0 -0.00000000000E+00 -0.00000000000E+00 -0.18037015481E+04  0.18037015481E+04  0.00000000000E+00 0. -1.
         25    2    1    2    0    0  0.12113886535E+04 -0.38694725738E+03 -0.27322978105E+03  0.13067018343E+04  0.12499808239E+03 0.  0.
          2    1    1    2  501    0 -0.12665850001E+04  0.36639238337E+03 -0.58420616078E+03  0.14421434670E+04  0.00000000000E+00 0. -1.
          1    1    1    2  502    0  0.55196346584E+02  0.20554874015E+02  0.15456037238E+04  0.15467255770E+04  0.00000000000E+00 0. -1.
         22    1    3    3    0    0  0.47810083652E+03 -0.19260453055E+03 -0.61434193807E+02  0.51908677043E+03  0.00000000000E+00 0.  1.
         22    1    3    3    0    0  0.73328781699E+03 -0.19434272683E+03 -0.21179558724E+03  0.78761506385E+03  0.00000000000E+00 0.  1.
</event>
<event>
 7    1  0.4402832E-005  0.1960896E+03  0.7818608E-02  0.1237925E+00
          2   -1    0    0  502    0  0.00000000000E+00  0.00000000000E+00  0.51543541138E+03  0.51543541138E+03  0.00000000000E+00 0. -1.
          1   -1    0    0  501    0 -0.00000000000E+00 -0.00000000000E+00 -0.84794939599E+03  0.84794939599E+03  0.00000000000E+00 0. -1.
         25    2    1    2    0    0  0.25962403277E+03 -0.78592669145E+02  0.41088238543E+03  0.50796725576E+03  0.12499980894E+03 0.  0.
          2    1    1    2  501    0 -0.18429478001E+03  0.60841986056E+02 -0.75283755464E+03  0.77745141127E+03  0.00000000000E+00 0. -1.
          1    1    1    2  502    0 -0.75329252767E+02  0.17750683090E+02  0.94411846069E+01  0.77966140339E+02  0.00000000000E+00 0. -1.
         22    1    3    3    0    0  0.13764142239E+03 -0.10590089080E+03  0.23737844952E+03  0.29412359329E+03  0.00000000000E+00 0. -1.
         22    1    3    3    0    0  0.12198261038E+03  0.27308221657E+02  0.17350393591E+03  0.21384366247E+03  0.00000000000E+00 0. -1.
</event>
<event>
 7    1  0.4402832E-005  0.5679067E+03  0.7818608E-02  0.1084323E+00
          2   -1    0    0  502    0  0.00000000000E+00  0.00000000000E+00  0.11602317221E+04  0.11602317221E+04  0.00000000000E+00 0. -1.
          1   -1    0    0  501    0 -0.00000000000E+00 -0.00000000000E+00 -0.77075265560E+03  0.77075265560E+03  0.00000000000E+00 0. -1.
         25    2    1    2    0    0  0.50434036564E+03  0.48249271663E+03 -0.96273696347E+02  0.71557810465E+03  0.12499989292E+03 0.  0.
          2    1    1    2  501    0 -0.98313941897E+02 -0.12677493232E+03 -0.25352714084E+03  0.30002254212E+03  0.00000000000E+00 0. -1.
          1    1    1    2  502    0 -0.40602642375E+03 -0.35571778431E+03  0.73927990369E+03  0.91538373093E+03  0.00000000000E+00 0. -1.
         22    1    3    3    0    0  0.17435423264E+03  0.12033885418E+03  0.17576838043E+02  0.21257888771E+03  0.00000000000E+00 0. -1.
         22    1    3    3    0    0  0.32998613300E+03  0.36215386245E+03 -0.11385053439E+03  0.50299921694E+03  0.00000000000E+00 0. -1.
</event>
<event>
 7    1  0.4402832E-005  0.8041126E+03  0.7818608E-02  0.1202769E+00
          2   -1    0    0  502    0  0.00000000000E+00  0.00000000000E+00  0.14997641610E+04  0.14997641610E+04  0.00000000000E+00 0. -1.
          1   -1    0    0  501    0 -0.00000000000E+00 -0.00000000000E+00 -0.11648640754E+04  0.11648640754E+04  0.00000000000E+00 0. -1.
         25    2    1    2    0    0 -0.34111893782E+03 -0.75137601095E+03  0.52266187048E+03  0.98474821324E+03  0.12500229223E+03 0.  0.
          2    1    1    2  501    0  0.33827669505E+03  0.72423036439E+03 -0.76238213470E+03  0.11046118153E+04  0.00000000000E+00 0. -1.
          1    1    1    2  502    0  0.28422427616E+01  0.27145646565E+02  0.57462034982E+03  0.57526820779E+03  0.00000000000E+00 0. -1.
         22    1    3    3    0    0 -0.32768764513E+03 -0.66235609682E+03  0.49894005193E+03  0.89164789417E+03  0.00000000000E+00 0.  1.
         22    1    3    3    0    0 -0.13431292681E+02 -0.89019914136E+02  0.23721818551E+02  0.93100319071E+02  0.00000000000E+00 0.  1.
</event>
<event>
 7    1  0.4402832E-005  0.6974669E+02  0.7818608E-02  0.1429787E+00
          2   -1    0    0  502    0  0.00000000000E+00  0.00000000000E+00  0.35147972183E+03  0.35147972183E+03  0.00000000000E+00 0. -1.
          1   -1    0    0  501    0 -0.00000000000E+00 -0.00000000000E+00 -0.35565685715E+03  0.35565685715E+03  0.00000000000E+00 0. -1.
         25    2    1    2    0    0 -0.36454070310E+02  0.66171733883E+02  0.32311923464E+03  0.35459602176E+03  0.12499880498E+03 0.  0.
          2    1    1    2  501    0  0.38028585479E+02 -0.13273387502E+02 -0.27570827667E+03  0.27863490440E+03  0.00000000000E+00 0. -1.
          1    1    1    2  502    0 -0.15745151690E+01 -0.52898346381E+02 -0.51588093300E+02  0.73905652816E+02  0.00000000000E+00 0. -1.
         22    1    3    3    0    0  0.11455820331E+02 -0.33532209010E+02  0.79407171260E+02  0.86954837175E+02  0.00000000000E+00 0. -1.
         22    1    3    3    0    0 -0.47909890641E+02  0.99703942893E+02  0.24371206338E+03  0.26764118459E+03  0.00000000000E+00 0. -1.
</event>
<event>
 7    1  0.4402832E-005  0.8508294E+03  0.7818608E-02  0.1105987E+00
          2   -1    0    0  502    0  0.00000000000E+00  0.00000000000E+00  0.16852523028E+04  0.16852523028E+04  0.00000000000E+00 0. -1.
          1   -1    0    0  501    0 -0.00000000000E+00 -0.00000000000E+00 -0.77648932500E+03  0.77648932500E+03  0.00000000000E+00 0. -1.
         25    2    1    2    0    0  0.46235860999E+03  0.71093366562E+03  0.84308696718E+03  0.12023405654E+04  0.12500015933E+03 0.  0.
          2    1    1    2  501    0  0.70488073935E+02 -0.39165576315E+02 -0.31215983218E+03  0.32240699708E+03  0.00000000000E+00 0. -1.
          1    1    1    2  502    0 -0.53284668392E+03 -0.67176808930E+03  0.37783584284E+03  0.93699406535E+03  0.00000000000E+00 0. -1.
         22    1    3    3    0    0  0.21862442004E+03  0.22627493601E+03  0.31781463672E+03  0.44721709160E+03  0.00000000000E+00 0. -1.
         22    1    3    3    0    0  0.24373418995E+03  0.48465872961E+03  0.52527233045E+03  0.75512347379E+03  0.00000000000E+00 0. -1.
</event>
<event>
 7    1  0.4402832E-005  0.1121187E+04  0.7818608E-02  0.1001484E+00
          2   -1    0    0  502    0  0.00000000000E+00  0.00000000000E+00  0.21539612435E+04  0.21539612435E+04  0.00000000000E+00 0. -1.
          1   -1    0    0  501    0 -0.00000000000E+00 -0.00000000000E+00 -0.81787876909E+03  0.81787876909E+03  0.00000000000E+00 0. -1.
         25    2    1    2    0    0 -0.99298145604E+03 -0.69432079946E+03  0.11463057231E+04  0.16726431985E+04  0.12499965635E+03 0.  0.
          2    1    1    2  501    0  0.26955495243E+03  0.12520234199E+02 -0.55066166415E+02  0.27540681060E+03  0.00000000000E+00 0. -1.
          1    1    1    2  502    0  0.72342650361E+03  0.68180056526E+03  0.24484291778E+03  0.10237900035E+04  0.00000000000E+00 0. -1.
         22    1    3    3    0    0 -0.91008498276E+03 -0.65772011150E+03  0.10955351556E+04  0.15687726725E+04  0.00000000000E+00 0. -1.
         22    1    3    3    0    0 -0.82896473284E+02 -0.36600687958E+02  0.50770567483E+02  0.10387052597E+03  0.00000000000E+00 0. -1.
</event>
<event>
 7    1  0.4402832E-005  0.1321239E+03  0.7818608E-02  0.1286270E+00
          2   -1    0    0  502    0  0.00000000000E+00  0.00000000000E+00  0.57326329864E+02  0.57326329864E+02  0.00000000000E+00 0. -1.
          1   -1    0    0  501    0 -0.00000000000E+00 -0.00000000000E+00 -0.76043708646E+03  0.76043708646E+03  0.00000000000E+00 0. -1.
         25    2    1    2    0    0  0.47035455945E+02  0.13519627352E+03 -0.19561703010E+03  0.27272794519E+03  0.12499657247E+03 0.  0.
          2    1    1    2  501    0  0.49137702962E+02 -0.51974778527E+02 -0.18986253536E+03  0.20288832837E+03  0.00000000000E+00 0. -1.
          1    1    1    2  502    0 -0.96173158907E+02 -0.83221494996E+02 -0.31763119113E+03  0.34214714277E+03  0.00000000000E+00 0. -1.
         22    1    3    3    0    0  0.12722089648E+01  0.59239183534E+02 -0.17058801590E+03  0.18058563218E+03  0.00000000000E+00 0. -1.
         22    1    3    3    0    0  0.45763246980E+02  0.75957089990E+02 -0.25029014200E+02  0.92142313004E+02  0.00000000000E+00 0. -1.
</event>
<event>
 7    1  0.4402832E-005  0.6341747E+03  0.7818608E-02  0.1213740E+00
          2   -1    0    0  502    0  0.00000000000E+00  0.00000000000E+00  0.26786471161E+04  0.26786471161E+04  0.00000000000E+00 0. -1.
          1   -1    0    0  501    0 -0.00000000000E+00 -0.00000000000E+00 -0.43184406646E+03  0.43184406646E+03  0.00000000000E+00 0. -1.
         25    2    1    2    0    0 -0.26186040478E+03 -0.58921468440E+03  0.69229305666E+02  0.66042613947E+03  0.12500069212E+03 0.  0.
          2    1    1    2  501    0  0.24823826896E+03  0.56162217267E+03  0.55648434923E+03  0.82868361511E+03  0.00000000000E+00 0. -1.
          1    1    1    2  502    0  0.13622135812E+02  0.27592511733E+02  0.16210893947E+04  0.16213814280E+04  0.00000000000E+00 0. -1.
         22    1    3    3    0    0  0.47378341438E+01  0.18345777517E+01 -0.57950334269E+01  0.77068255670E+01  0.00000000000E+00 0. -1.
         22    1    3    3    0    0 -0.26659823892E+03 -0.59104926215E+03  0.75024339093E+02  0.65271931390E+03  0.00000000000E+00 0. -1.
</event>
<event>
 7    1  0.4402832E-005  0.7351061E+02  0.7818608E-02  0.1379383E+00
          2   -1    0    0  502    0  0.00000000000E+00  0.00000000000E+00  0.12219509801E+04  0.12219509801E+04  0.00000000000E+00 0. -1.
          1   -1    0    0  501    0 -0.00000000000E+00 -0.00000000000E+00 -0.12184658028E+03  0.12184658028E+03  0.00000000000E+00 0. -1.
         25    2    1    2    0    0  0.45948870833E+02  0.22626772503E+01  0.49299052743E+03  0.51066748472E+03  0.12500080549E+03 0.  0.
          2    1    1    2  501    0 -0.51116796541E+02  0.54317288439E+02 -0.99435023700E+02  0.12430051750E+03  0.00000000000E+00 0. -1.
          1    1    1    2  502    0  0.51679257082E+01 -0.56579965690E+02  0.70654889612E+03  0.70882955820E+03  0.00000000000E+00 0. -1.
         22    1    3    3    0    0 -0.54496568595E+01 -0.47265190031E+02  0.32018569765E+03  0.32370137152E+03  0.00000000000E+00 0. -1.
         22    1    3    3    0    0  0.51398527693E+02  0.49527867281E+02  0.17280482978E+03  0.18696611319E+03  0.00000000000E+00 0. -1.
</event>
<event>
 7    1  0.4402832E-005  0.7164765E+02  0.7818608E-02  0.1388561E+00
          2   -1    0    0  502    0  0.00000000000E+00  0.00000000000E+00  0.10294119637E+03  0.10294119637E+03  0.00000000000E+00 0. -1.
          1   -1    0    0  501    0 -0.00000000000E+00 -0.00000000000E+00 -0.23334528037E+04  0.23334528037E+04  0.00000000000E+00 0. -1.
         25    2    1    2    0    0 -0.99037664016E+02 -0.62029832378E+02 -0.22597690002E+04  0.22662384218E+04  0.12499796417E+03 0.  0.
          2    1    1    2  501    0  0.53670619911E+02  0.69053690112E+01 -0.42594615286E+02  0.68865962668E+02  0.00000000000E+00 0. -1.
          1    1    1    2  502    0  0.45367044105E+02  0.55124463367E+02  0.71852008176E+02  0.10128961561E+03  0.00000000000E+00 0. -1.
         22    1    3    3    0    0 -0.60748685777E+02 -0.61280938626E+02 -0.21061835061E+04  0.21079503593E+04  0.00000000000E+00 0. -1.
         22    1    3    3    0    0 -0.38288978239E+02 -0.74889375232E+00 -0.15358549415E+03  0.15828806244E+03  0.00000000000E+00 0. -1.
</event>
<event>
 7    1  0.4402832E-005  0.3173668E+03  0.7818608E-02  0.1244481E+00
          2   -1    0    0  502    0  0.00000000000E+00  0.00000000000E+00  0.19886343124E+04  0.19886343124E+04  0.00000000000E+00 0. -1.
          1   -1    0    0  501    0 -0.00000000000E+00 -0.00000000000E+00 -0.81053122926E+03  0.81053122926E+03  0.00000000000E+00 0. -1.
         25    2    1    2    0    0  0.32232190321E+03 -0.57958919139E+02 -0.57187022224E+03  0.67075255971E+03  0.12499119841E+03 0.  0.
          2    1    1    2  501    0 -0.29391379797E+03  0.23390199450E+02 -0.73922298741E+02  0.30396863049E+03  0.00000000000E+00 0. -1.
          1    1    1    2  502    0 -0.28408105236E+02  0.34568719689E+02  0.18238956041E+04  0.18244443515E+04  0.00000000000E+00 0. -1.
         22    1    3    3    0    0  0.85960969374E+02  0.32724335490E+02 -0.10443556195E+03  0.13916521472E+03  0.00000000000E+00 0.  1.
         22    1    3    3    0    0  0.23636093383E+03 -0.90683254629E+02 -0.46743466029E+03  0.53158734499E+03  0.00000000000E+00 0.  1.
</event>
<event>
 7    1  0.4402832E-005  0.3534428E+03  0.7818608E-02  0.1185647E+00
          2   -1    0    0  502    0  0.00000000000E+00  0.00000000000E+00  0.71568751361E+03  0.71568751361E+03  0.00000000000E+00 0. -1.
          1   -1    0    0  501    0 -0.00000000000E+00 -0.00000000000E+00 -0.19814729763E+04  0.19814729763E+04  0.00000000000E+00 0. -1.
         25    2    1    2    0    0  0.18366154047E+03 -0.26968791084E+03 -0.15468850058E+03  0.38212126315E+03  0.12499998737E+03 0.  0.
          2    1    1    2  501    0 -0.42744492010E+02 -0.61534839522E+02 -0.16583374271E+04  0.16600291113E+04  0.00000000000E+00 0. -1.
          1    1    1    2  502    0 -0.14091704846E+03  0.33122275036E+03  0.54724046499E+03  0.65501011551E+03  0.00000000000E+00 0. -1.
         22    1    3    3    0    0  0.11297881139E+03 -0.15436889187E+03 -0.21846756214E+02  0.19253895023E+03  0.00000000000E+00 0. -1.
         22    1    3    3    0    0  0.70682729081E+02 -0.11531901897E+03 -0.13284174436E+03  0.18958231292E+03  0.00000000000E+00 0. -1.
</event>
<event>
 7    1  0.4402832E-005  0.1041625E+03  0.7818608E-02  0.1433082E+00
          2   -1    0    0  502    0  0.00000000000E+00  0.00000000000E+00  0.66143095000E+03  0.66143095000E+03  0.00000000000E+00 0. -1.
          1   -1    0    0  501    0 -0.00000000000E+00 -0.00000000000E+00 -0.56643314032E+02  0.56643314032E+02  0.00000000000E+00 0. -1.
         25    2    1    2    0    0  0.62534773089E+02  0.57085468900E+02  0.99964674885E+02  0.18107379572E+03  0.12500173865E+03 0.  0.
          2    1    1    2  501    0  0.51417462239E+01  0.25798889767E+02  0.62024581759E+01  0.27027592472E+02  0.00000000000E+00 0. -1.
          1    1    1    2  502    0 -0.67676519313E+02 -0.82884358667E+02  0.49862050291E+03  0.50997287585E+03  0.00000000000E+00 0. -1.
         22    1    3    3    0    0  0.53580916693E+02  0.96389175970E+02  0.67337007376E+02  0.12921323632E+03  0.00000000000E+00 0. -1.
         22    1    3    3    0    0  0.89538563961E+01 -0.39303707069E+02  0.32627667509E+02  0.51860559396E+02  0.00000000000E+00 0. -1.
</event>
<event>
 7    1  0.4402832E-005  0.3980881E+03  0.7818608E-02  0.1106863E+00
          2   -1    0    0  502    0  0.00000000000E+00  0.00000000000E+00  0.11200494823E+04  0.11200494823E+04  0.00000000000E+00 0. -1.
          1   -1    0    0  501    0 -0.00000000000E+00 -0.00000000000E+00 -0.61783473831E+03  0.61783473831E+03  0.00000000000E+00 0. -1.
         25    2    1    2    0    0  0.27994039300E+03 -0.39875983879E+03 -0.24958273606E+03  0.56150846056E+03  0.12499670585E+03 0.  0.
          2    1    1    2  501    0 -0.22100478865E+03  0.23885240612E+03 -0.73546427836E+02  0.33362054128E+03  0.00000000000E+00 0. -1.
          1    1    1    2  502    0 -0.58935604348E+02  0.15990743266E+03  0.82534390791E+03  0.84275521879E+03  0.00000000000E+00 0. -1.
         22    1    3    3    0    0  0.15162310358E+03 -0.11367348264E+03 -0.78425846374E+02  0.20508983294E+03  0.00000000000E+00 0. -1.
         22    1    3    3    0    0  0.12831728942E+03 -0.28508635615E+03 -0.17115688969E+03  0.35641862762E+03  0.00000000000E+00 0. -1.
</event>
<event>
 7    1  0.4402832E-005  0.3750725E+03  0.7818608E-02  0.1114403E+00
          2   -1    0    0  502    0  0.00000000000E+00  0.00000000000E+00  0.37931579995E+03  0.37931579995E+03  0.00000000000E+00 0. -1.
          1   -1    0    0  501    0 -0.00000000000E+00 -0.00000000000E+00 -0.10218609825E+04  0.10218609825E+04  0.00000000000E+00 0. -1.
         25    2    1    2    0    0 -0.33012182726E+01 -0.40465826891E+03 -0.60337055255E+03  0.73718426608E+03  0.12500162333E+03 0.  0.
          2    1    1    2  501    0 -0.13906728159E+03  0.32257656981E+03 -0.22404257830E+03  0.41664184751E+03  0.00000000000E+00 0. -1.
          1    1    1    2  502    0  0.14236849986E+03  0.82081699100E+02  0.18486794830E+03  0.24735066887E+03  0.00000000000E+00 0. -1.
         22    1    3    3    0    0  0.26623993453E+02 -0.38506659123E+03 -0.53108688028E+03  0.65653514081E+03  0.00000000000E+00 0. -1.
         22    1    3    3    0    0 -0.29925211726E+02 -0.19591677687E+02 -0.72283672268E+02  0.80649125277E+02  0.00000000000E+00 0. -1.
</event>
<event>
 7    1  0.4402832E-005  0.2645799E+03  0.7818608E-02  0.1204023E+00
          2   -1    0    0  502    0  0.00000000000E+00  0.00000000000E+00  0.25490310288E+04  0.25490310288E+04  0.00000000000E+00 0. -1.
          1   -1    0    0  501    0 -0.00000000000E+00 -0.00000000000E+00 -0.45970685589E+03  0.45970685589E+03  0.00000000000E+00 0. -1.
         25    2    1    2    0    0 -0.25517651567E+03 -0.13911295687E+02  0.27179200418E+03  0.39345206988E+03  0.12500023785E+03 0.  0.
          2    1    1    2  501    0  0.24959997419E+03  0.95557509739E+02 -0.35324877225E+03  0.44296284255E+03  0.00000000000E+00 0. -1.
          1    1    1    2  502    0  0.55765414760E+01 -0.81646214052E+02  0.21707809410E+04  0.21723229723E+04  0.00000000000E+00 0. -1.
         22    1    3    3    0    0 -0.20598624409E+03 -0.23088011286E+02  0.13390673836E+03  0.24676791444E+03  0.00000000000E+00 0. -1.
         22    1    3    3    0    0 -0.49190271575E+02  0.91767155987E+01  0.13788526582E+03  0.14668415544E+03  0.00000000000E+00 0. -1.
</event>
<event>
 7    1  0.4402832E-005  0.7444702E+03  0.7818608E-02  0.1179050E+00
          2   -1    0    0  502    0  0.00000000000E+00  0.00000000000E+00  0.34441497673E+04  0.34441497673E+04  0.00000000000E+00 0. -1.
          1   -1    0    0  501    0 -0.00000000000E+00 -0.00000000000E+00 -0.11323232835E+04  0.11323232835E+04  0.00000000000E+00 0. -1.
         25    2    1    2    0    0  0.60374753690E+03 -0.45072016960E+03  0.91124662790E+03  0.11889721850E+04  0.12499872062E+03 0.  0.
          2    1    1    2  501    0 -0.57302056355E+03  0.47357867732E+03 -0.85420837652E+03  0.11323874250E+04  0.00000000000E+00 0. -1.
          1    1    1    2  502    0 -0.30726973347E+02 -0.22858507721E+02  0.22547882323E+04  0.22551134408E+04  0.00000000000E+00 0. -1.
         22    1    3    3    0    0  0.18473061952E+03 -0.11766524748E+03  0.35416683667E+03  0.41641885218E+03  0.00000000000E+00 0.  1.
         22    1    3    3    0    0  0.41901691737E+03 -0.33305492212E+03  0.55707979123E+03  0.77255333278E+03  0.00000000000E+00 0.  1.
</event>
<event>
 7    1  0.4402832E-005  0.1567764E+04  0.7818608E-02  0.1003080E+00
          2   -1    0    0  502    0  0.00000000000E+00  0.00000000000E+00  0.31037689788E+04  0.31037689788E+04  0.00000000000E+00 0. -1.
          1   -1    0    0  501    0 -0.00000000000E+00 -0.00000000000E+00 -0.13271913860E+04  0.13271913860E+04  0.00000000000E+00 0. -1.
         25    2    1    2    0    0  0.11114353264E+04  0.12790460153E+04  0.11564350306E+04  0.20552892509E+04  0.12499892358E+03 0.  0.
          2    1    1    2  501    0 -0.95130974615E+03 -0.11801386173E+04 -0.20474240197E+03  0.15295871470E+04  0.00000000000E+00 0. -1.
          1    1    1    2  502    0 -0.16012558026E+03 -0.98907398074E+02  0.82488496416E+03  0.84608396684E+03  0.00000000000E+00 0. -1.
         22    1    3    3    0    0  0.40570857203E+03  0.49130774792E+03  0.50613144147E+03  0.81372709468E+03  0.00000000000E+00 0. -1.
         22    1    3    3    0    0  0.70572675438E+03  0.78773826743E+03  0.65030358909E+03  0.12415621562E+04  0.00000000000E+00 0. -1.
</event>
<event>
 7    1  0.4402832E-005  0.1423369E+03  0.7818608E-02  0.1249126E+00
          2   -1    0    0  502    0  0.00000000000E+00  0.00000000000E+00  0.22094008338E+03  0.22094008338E+03  0.00000000000E+00 0. -1.
          1   -1    0    0  501    0 -0.00000000000E+00 -0.00000000000E+00 -0.33455015573E+03  0.33455015573E+03  0.00000000000E+00 0. -1.
         25    2    1    2    0    0 -0.14106976405E+03  0.85459570522E+02 -0.19248857530E+02  0.20784755746E+03  0.12500428833E+03 0.  0.
          2    1    1    2  501    0  0.14218201517E+03  0.97525907327E+01 -0.17300475857E+03  0.22414612411E+03  0.00000000000E+00 0. -1.
          1    1    1    2  502    0 -0.11122511236E+01 -0.95212161254E+02  0.78643543749E+02  0.12349655755E+03  0.00000000000E+00 0. -1.
         22    1    3    3    0    0 -0.53897325026E+02  0.11596497779E+02 -0.64592798690E+02  0.84921316807E+02  0.00000000000E+00 0.  1.
         22    1    3    3    0    0 -0.87172439023E+02  0.73863072743E+02  0.45343941160E+02  0.12292624065E+03  0.00000000000E+00 0.  1.
</event>
<event>
 7    1  0.4402832E-005  0.1807828E+03  0.7818608E-02  0.1223793E+00
          2   -1    0    0  502    0  0.00000000000E+00  0.00000000000E+00  0.41033792935E+03  0.41033792935E+03  0.00000000000E+00 0. -1.
          1   -1    0    0  501    0 -0.00000000000E+00 -0.00000000000E+00 -0.19821252595E+03  0.19821252595E+03  0.00000000000E+00 0. -1.
         25    2    1    2    0    0  0.16230344114E+03  0.17393793927E+03  0.31166788897E+02  0.27054274492E+03  0.12500077750E+03 0.  0.
          2    1    1    2  501    0 -0.12327439405E+03 -0.85013498600E+02  0.21467021265E+02  0.15127691223E+03  0.00000000000E+00 0. -1.
          1    1    1    2  502    0 -0.39029047085E+02 -0.88924440668E+02  0.15949159324E+03  0.18673079815E+03  0.00000000000E+00 0. -1.
         22    1    3    3    0    0 -0.86299261399E+01  0.64891680388E+02  0.14897709503E+02  0.67136782446E+02  0.00000000000E+00 0.  1.
         22    1    3    3    0    0  0.17093336728E+03  0.10904625888E+03  0.16269079394E+02  0.20340596247E+03  0.00000000000E+00 0.  1.
</event>
<event>
 7    1  0.4402832E-005  0.9264131E+02  0.7818608E-02  0.1376805E+00
          2   -1    0    0  502    0  0.00000000000E+00  0.00000000000E+00  0.57194224788E+03  0.57194224788E+03  0.00000000000E+00 0. -1.
          1   -1    0    0  501    0 -0.00000000000E+00 -0.00000000000E+00 -0.16492837749E+03  0.16492837749E+03  0.00000000000E+00 0. -1.
         25    2    1    2    0    0  0.83283382867E+02  0.72578362211E+02  0.16571620472E+03  0.23513672947E+03  0.12499472196E+03 0.  0.
          2    1    1    2  501    0 -0.87919494470E+02 -0.26768878252E+02 -0.11232172382E+03  0.14512952833E+03  0.00000000000E+00 0. -1.
          1    1    1    2  502    0  0.46361116023E+01 -0.45809483958E+02  0.35361938949E+03  0.35660436758E+03  0.00000000000E+00 0. -1.
         22    1    3    3    0    0  0.86098796647E+01 -0.17043960651E+02  0.98849350913E+02  0.10067681361E+03  0.00000000000E+00 0.  1.
         22    1    3    3    0    0  0.74673503203E+02  0.89622322861E+02  0.66866853803E+02  0.13445991586E+03  0.00000000000E+00 0.  1.
</event>
<event>
 7    1  0.4402832E-005  0.6005853E+03  0.7818608E-02  0.1183582E+00
          2   -1    0    0  502    0  0.00000000000E+00  0.00000000000E+00  0.24060433015E+04  0.24060433015E+04  0.00000000000E+00 0. -1.
          1   -1    0    0  501    0 -0.00000000000E+00 -0.00000000000E+00 -0.72961284841E+03  0.72961284841E+03  0.00000000000E+00 0. -1.
         25    2    1    2    0    0  0.26128521514E+03  0.53535416399E+03  0.68823329429E+03  0.91878333682E+03  0.12499483229E+03 0.  0.
          2    1    1    2  501    0  0.42870621000E+02 -0.14068072276E+02 -0.55656846460E+03  0.55839435580E+03  0.00000000000E+00 0. -1.
          1    1    1    2  502    0 -0.30415583614E+03 -0.52128609171E+03  0.15447656234E+04  0.16584784573E+04  0.00000000000E+00 0. -1.
         22    1    3    3    0    0  0.13760137060E+03  0.27687400657E+03  0.45085247323E+03  0.54668208798E+03  0.00000000000E+00 0.  1.
         22    1    3    3    0    0  0.12368384454E+03  0.25848015742E+03  0.23738082107E+03  0.37210124884E+03  0.00000000000E+00 0.  1.
</event>
<event>
 7    1  0.4402832E-005  0.5378153E+03  0.7818608E-02  0.1196771E+00
          2   -1    0    0  502    0  0.00000000000E+00  0.00000000000E+00  0.56422903474E+03  0.56422903474E+03  0.00000000000E+00 0. -1.
          1   -1    0    0  501    0 -0.00000000000E+00 -0.00000000000E+00 -0.24945915878E+04  0.24945915878E+04  0.00000000000E+00 0. -1.
         25    2    1    2    0    0 -0.48853186871E+03  0.29083211507E+03 -0.67371930072E+03  0.89037560351E+03  0.12499725303E+03 0.  0.
          2    1    1    2  501    0  0.43554691803E+02  0.38520793467E+00 -0.15570516529E+04  0.15576607491E+04  0.00000000000E+00 0. -1.
          1    1    1    2  502    0  0.44497717691E+03 -0.29121732300E+03  0.30040840059E+03  0.61078426988E+03  0.00000000000E+00 0. -1.
         22    1    3    3    0    0 -0.43933870261E+03  0.24678493719E+03 -0.64465574935E+03  0.81823122405E+03  0.00000000000E+00 0. -1.
         22    1    3    3    0    0 -0.49193166105E+02  0.44047177875E+02 -0.29063551368E+02  0.72144379464E+02  0.00000000000E+00 0. -1.
</event>
<event>
 7    1  0.4402832E-005  0.2393536E+03  0.7818608E-02  0.1287150E+00
          2   -1    0    0  502    0  0.00000000000E+00  0.00000000000E+00  0.11339351868E+04  0.11339351868E+04  0.00000000000E+00 0. -1.
          1   -1    0    0  501    0 -0.00000000000E+00 -0.00000000000E+00 -0.90543156270E+03  0.90543156270E+03  0.00000000000E+00 0. -1.
         25    2    1    2    0    0  0.69350349302E+02 -0.23461341169E+03 -0.69620727996E+03  0.74845352496E+03  0.12500071390E+03 0.  0.
          2    1    1    2  501    0 -0.95782432447E+02  0.20572440323E+03 -0.11227752000E+03  0.25318579333E+03  0.00000000000E+00 0. -1.
          1    1    1    2  502    0  0.26432083145E+02  0.28889008455E+02  0.10369884241E+04  0.10377274312E+04  0.00000000000E+00 0. -1.
         22    1    3    3    0    0 -0.29907974271E+02 -0.50118811036E+02 -0.91951693506E+02  0.10891049574E+03  0.00000000000E+00 0. -1.
         22    1    3    3    0    0  0.99258323573E+02 -0.18449460065E+03 -0.60425558645E+03  0.63954302922E+03  0.00000000000E+00 0. -1.
</event>
<event>
 7    1  0.4402832E-005  0.4176732E+03  0.7818608E-02  0.1155830E+00
          2   -1    0    0  502    0  0.00000000000E+00  0.00000000000E+00  0.10392062541E+04  0.10392062541E+04  0.00000000000E+00 0. -1.
          1   -1    0    0  501    0 -0.00000000000E+00 -0.00000000000E+00 -0.19878914107E+04  0.19878914107E+04  0.00000000000E+00 0. -1.
         25    2    1    2    0    0  0.33942908051E+03  0.16558993751E+03 -0.24820821363E+03  0.46889663657E+03  0.12499844149E+03 0.  0.
          2    1    1    2  501    0 -0.34563197512E+03 -0.25450715023E+03 -0.15988267362E+04  0.16554402086E+04  0.00000000000E+00 0. -1.
          1    1    1    2  502    0  0.62028946110E+01  0.88917212712E+02  0.89834979317E+03  0.90276081966E+03  0.00000000000E+00 0. -1.
         22    1    3    3    0    0  0.33778766551E+03  0.13912524464E+03 -0.20697876245E+03  0.41987682571E+03  0.00000000000E+00 0.  1.
         22    1    3    3    0    0  0.16414150029E+01  0.26464692876E+02 -0.41229451182E+02  0.49019810863E+02  0.00000000000E+00 0.  1.
</event>
<event>
 7    1  0.4402832E-005  0.7287035E+03  0.7818608E-02  0.1164629E+00
          2   -1    0    0  502    0  0.00000000000E+00  0.00000000000E+00  0.22271247128E+04  0.22271247128E+04  0.00000000000E+00 0. -1.
          1   -1    0    0  501    0 -0.00000000000E+00 -0.00000000000E+00 -0.15181547771E+04  0.15181547771E+04  0.00000000000E+00 0. -1.
         25    2    1    2    0    0  0.54282697400E+02 -0.76455874901E+03  0.11778899803E+04  0.14108672532E+04  0.12499963368E+03 0.  0.
          2    1    1    2  501    0 -0.72799470773E+02  0.72232184772E+03 -0.13069856885E+04  0.14950786617E+04  0.00000000000E+00 0. -1.
          1    1    1    2  502    0  0.18516773373E+02  0.42236901290E+02  0.83806564387E+03  0.83933357502E+03  0.00000000000E+00 0. -1.
         22    1    3    3    0    0  0.28898100204E+02 -0.14249777463E+03  0.31384550509E+03  0.34588974693E+03  0.00000000000E+00 0.  1.
         22    1    3    3    0    0  0.25384597195E+02 -0.62206097438E+03  0.86404447522E+03  0.10649775062E+04  0.00000000000E+00 0.  1.
</event>
<event>
 7    1  0.4402832E-005  0.1802030E+03  0.7818608E-02  0.1287573E+00
          2   -1    0    0  502    0  0.00000000000E+00  0.00000000000E+00  0.73721282809E+03  0.73721282809E+03  0.00000000000E+00 0. -1.
          1   -1    0    0  501    0 -0.00000000000E+00 -0.00000000000E+00 -0.12772484197E+03  0.12772484197E+03  0.00000000000E+00 0. -1.
         25    2    1    2    0    0 -0.14187370186E+02  0.18825841947E+03  0.20525497879E+03  0.30561084714E+03  0.12500347836E+03 0.  0.
          2    1    1    2  501    0 -0.35915803416E+02 -0.17509733855E+03  0.29658039661E+02  0.18118670541E+03  0.00000000000E+00 0. -1.
          1    1    1    2  502    0  0.50103173602E+02 -0.13161080922E+02  0.37457496768E+03  0.37814011751E+03  0.00000000000E+00 0. -1.
         22    1    3    3    0    0  0.32011611731E+02  0.88962316535E+02  0.16258025137E+03  0.18807279225E+03  0.00000000000E+00 0. -1.
         22    1    3    3    0    0 -0.46198981917E+02  0.99296102935E+02  0.42674727415E+02  0.11753805489E+03  0.00000000000E+00 0. -1.
</event>
<event>
 7    1  0.4402832E-005  0.1998558E+04  0.7818608E-02  0.1088300E+00
          2   -1    0    0  502    0  0.00000000000E+00  0.00000000000E+00  0.26656077650E+04  0.26656077650E+04  0.00000000000E+00 0. -1.
          1   -1    0    0  501    0 -0.00000000000E+00 -0.00000000000E+00 -0.32528360933E+04  0.32528360933E+04  0.00000000000E+00 0. -1.
         25    2    1    2    0    0 -0.19194955671E+04 -0.62705344462E+03 -0.11226337138E+04  0.23137826505E+04  0.12499777416E+03 0.  0.
          2    1    1    2  501    0  0.18771335441E+04  0.61839908886E+03 -0.89784831873E+03  0.21707554858E+04  0.00000000000E+00 0. -1.
          1    1    1    2  502    0  0.42362023007E+02  0.86543557540E+01  0.14332537043E+04  0.14339057220E+04  0.00000000000E+00 0. -1.
         22    1    3    3    0    0 -0.46277849248E+03 -0.20763862003E+03 -0.28966465265E+03  0.58410901434E+03  0.00000000000E+00 0.  1.
         22    1    3    3    0    0 -0.14567170747E+04 -0.41941482459E+03 -0.83296906115E+03  0.17296736361E+04  0.00000000000E+00 0.  1.
</event>
<event>
 7    1  0.4402832E-005  0.7528547E+03  0.7818608E-02  0.1141732E+00
          2   -1    0    0  502    0  0.00000000000E+00  0.00000000000E+00  0.17327317667E+04  0.17327317667E+04  0.00000000000E+00 0. -1.
          1   -1    0    0  501    0 -0.00000000000E+00 -0.00000000000E+00 -0.12801238338E+04  0.12801238338E+04  0.00000000000E+00 0. -1.
         25    2    1    2    0    0  0.74541619426E+03  0.17053345996E+03  0.11483041042E+04  0.13852632261E+04  0.12499970512E+03 0.  0.
          2    1    1    2  501    0 -0.29962112254E+02 -0.50198328299E+02 -0.87767046437E+03  0.87961528202E+03  0.00000000000E+00 0. -1.
          1    1    1    2  502    0 -0.71545408201E+03 -0.12033513166E+03  0.18197429317E+03  0.74797709239E+03  0.00000000000E+00 0. -1.
         22    1    3    3    0    0  0.60874911953E+03  0.18749238142E+03  0.93396798446E+03  0.11304977132E+04  0.00000000000E+00 0. -1.
         22    1    3    3    0    0  0.13666707473E+03 -0.16958921459E+02  0.21433611971E+03  0.25476551286E+03  0.00000000000E+00 0. -1.
</event>
<event>
 7    1  0.4619722E-005  0.2495918E+03  0.7818608E-02  0.1146555E+00
          2   -1    0    0  502    0  0.00000000000E+00  0.00000000000E+00  0.19214776374E+04  0.19214776374E+04  0.00000000000E+00 0. -1.
          1   -1    0    0  501    0 -0.00000000000E+00 -0.00000000000E+00 -0.46539791228E+03  0.46539791228E+03  0.00000000000E+00 0. -1.
         25    2    1    2    0    0  0.12476546964E+03  0.28701860255E+03 -0.87970892678E+02  0.34829510364E+03  0.12499800255E+03 0.  0.
          2    1    1    2  501    0  0.32538733564E+02 -0.23262434010E+03 -0.18657351205E+03  0.29997087890E+03  0.00000000000E+00 0. -1.
          1    1    1    2  502    0 -0.15730420320E+03 -0.54394262443E+02  0.17306241298E+04  0.17386095671E+04  0.00000000000E+00 0. -1.
         22    1    3    3    0    0  0.99154744508E+02  0.16260468520E+03  0.55910257275E+01  0.19053400373E+03  0.00000000000E+00 0. -1.
         22    1    3    3    0    0  0.25610725133E+02  0.12441391734E+03 -0.93561918406E+02  0.15776109991E+03  0.00000000000E+00 0. -1.
</event>
<event>
 7    1  0.4402832E-005  0.5242458E+02  0.7818608E-02  0.1565838E+00
          2   -1    0    0  502    0  0.00000000000E+00  0.00000000000E+00  0.90560545654E+02  0.90560545654E+02  0.00000000000E+00 0. -1.
          1   -1    0    0  501    0 -0.00000000000E+00 -0.00000000000E+00 -0.13516206427E+04  0.13516206427E+04  0.00000000000E+00 0. -1.
         25    2    1    2    0    0 -0.32546345581E+02  0.37253909997E+02 -0.13361302437E+03  0.18950191747E+03  0.12494566029E+03 0.  0.
          2    1    1    2  501    0  0.47476847317E+02 -0.22571886028E+02 -0.11877146807E+04  0.11888774974E+04  0.00000000000E+00 0. -1.
          1    1    1    2  502    0 -0.14930501736E+02 -0.14682023969E+02  0.60267608074E+02  0.63801773430E+02  0.00000000000E+00 0. -1.
         22    1    3    3    0    0 -0.70080502333E+02 -0.71414554658E+01 -0.45233718845E+02  0.83715987206E+02  0.00000000000E+00 0. -1.
         22    1    3    3    0    0  0.37534156752E+02  0.44395365463E+02 -0.88379305525E+02  0.10578593027E+03  0.00000000000E+00 0. -1.
</event>
<event>
 7    1  0.4402832E-005  0.1430646E+03  0.7818608E-02  0.1274259E+00
          2   -1    0    0  502    0  0.00000000000E+00  0.00000000000E+00  0.13835338297E+04  0.13835338297E+04  0.00000000000E+00 0. -1.
          1   -1    0    0  501    0 -0.00000000000E+00 -0.00000000000E+00 -0.76755411795E+03  0.76755411795E+03  0.00000000000E+00 0. -1.
         25    2    1    2    0    0  0.18848892738E+03  0.22488371895E+02  0.99952959409E+03  0.10250456117E+04  0.12500117610E+03 0.  0.
          2    1    1    2  501    0 -0.12746613307E+03 -0.64435972984E+02 -0.74424425761E+03  0.75782525999E+03  0.00000000000E+00 0. -1.
          1    1    1    2  502    0 -0.61022794303E+02  0.41947601089E+02  0.36069437523E+03  0.36821707590E+03  0.00000000000E+00 0. -1.
         22    1    3    3    0    0  0.18291799890E+02 -0.27811563832E+02  0.57468421235E+02  0.66413044390E+02  0.00000000000E+00 0.  1.
         22    1    3    3    0    0  0.17019712749E+03  0.50299935727E+02  0.94206117286E+03  0.95863256733E+03  0.00000000000E+00 0.  1.
</event>
<event>
 7    1  0.4402832E-005  0.1265341E+03  0.7818608E-02  0.1285588E+00
          2   -1    0    0  502    0  0.00000000000E+00  0.00000000000E+00  0.11701569346E+03  0.11701569346E+03  0.00000000000E+00 0. -1.
          1   -1    0    0  501    0 -0.00000000000E+00 -0.00000000000E+00 -0.32452661464E+03  0.32452661464E+03  0.00000000000E+00 0. -1.
         25    2    1    2    0    0  0.53476230781E+02 -0.13658223097E+03 -0.96468782009E+02  0.21551131753E+03  0.12499795601E+03 0.  0.
          2    1    1    2  501    0  0.19832041144E+02  0.11997084311E+03 -0.64954606841E+02  0.13786012477E+03  0.00000000000E+00 0. -1.
          1    1    1    2  502    0 -0.73308271925E+02  0.16611387864E+02 -0.46087532323E+02  0.88170865795E+02  0.00000000000E+00 0. -1.
         22    1    3    3    0    0  0.73502016839E+02 -0.27610542854E+02 -0.20426971262E+02  0.81130448729E+02  0.00000000000E+00 0.  1.
         22    1    3    3    0    0 -0.20025786058E+02 -0.10897168812E+03 -0.76041810746E+02  0.13438086880E+03  0.00000000000E+00 0.  1.
</event>
<event>
 7    1  0.4402832E-005  0.2052458E+03  0.7818608E-02  0.1164072E+00
          2   -1    0    0  502    0  0.00000000000E+00  0.00000000000E+00  0.58688178829E+03  0.58688178829E+03  0.00000000000E+00 0. -1.
          1   -1    0    0  501    0 -0.00000000000E+00 -0.00000000000E+00 -0.58541654882E+03  0.58541654882E+03  0.00000000000E+00 0. -1.
         25    2    1    2    0    0  0.32984419612E+03  0.11738676257E+03  0.15574058484E+02  0.37208079869E+03  0.12499889484E+03 0.  0.
          2    1    1    2  501    0 -0.18400375617E+03 -0.40662328947E+02 -0.36599339863E+03  0.41165759451E+03  0.00000000000E+00 0. -1.
          1    1    1    2  502    0 -0.14584043996E+03 -0.76724433626E+02  0.35188457961E+03  0.38855994391E+03  0.00000000000E+00 0. -1.
         22    1    3    3    0    0  0.83379654571E+02  0.59678177630E+01  0.53068318058E+02  0.99015291884E+02  0.00000000000E+00 0.  1.
         22    1    3    3    0    0  0.24646454155E+03  0.11141894481E+03 -0.37494259575E+02  0.27306550681E+03  0.00000000000E+00 0.  1.
</event>
<event>
 7    1  0.4402832E-005  0.3036653E+03  0.7818608E-02  0.1094712E+00
          2   -1    0    0  502    0  0.00000000000E+00  0.00000000000E+00  0.99531231335E+03  0.99531231335E+03  0.00000000000E+00 0. -1.
          1   -1    0    0  501    0 -0.00000000000E+00 -0.00000000000E+00 -0.22214785732E+04  0.22214785732E+04  0.00000000000E+00 0. -1.
         25    2    1    2    0    0  0.27048333946E+03  0.11686645826E+03  0.34990435780E+03  0.47421281592E+03  0.12500291672E+03 0.  0.
          2    1    1    2  501    0 -0.23991714385E+03  0.18615145463E+03 -0.21079311701E+04  0.21296916251E+04  0.00000000000E+00 0. -1.
          1    1    1    2  502    0 -0.30566195603E+02 -0.30301791289E+03  0.53186055247E+03  0.61288644554E+03  0.00000000000E+00 0. -1.
         22    1    3    3    0    0  0.18173100022E+03  0.97352114918E+02  0.15104497539E+03  0.25557420706E+03  0.00000000000E+00 0. -1.
         22    1    3    3    0    0  0.88752339232E+02  0.19514343339E+02  0.19885938241E+03  0.21863860886E+03  0.00000000000E+00 0. -1.
</event>
<event>
 7    1  0.4402832E-005  0.1202433E+03  0.7818608E-02  0.1277421E+00
          2   -1    0    0  502    0  0.00000000000E+00  0.00000000000E+00  0.32328184408E+04  0.32328184408E+04  0.00000000000E+00 0. -1.
          1   -1    0    0  501    0 -0.00000000000E+00 -0.00000000000E+00 -0.23618255240E+02  0.23618255240E+02  0.00000000000E+00 0. -1.
         25    2    1    2    0    0 -0.13130279785E+03  0.10504300604E+03  0.24059843989E+04  0.24150900733E+04  0.12499870809E+03 0.  0.
          2    1    1    2  501    0  0.80403831132E+02 -0.29003814987E+02  0.97244049960E+02  0.12946969760E+03  0.00000000000E+00 0. -1.
          1    1    1    2  502    0  0.50898966717E+02 -0.76039191051E+02  0.70597173672E+03  0.71187692506E+03  0.00000000000E+00 0. -1.
         22    1    3    3    0    0 -0.87837575872E+02 -0.44573142106E+01  0.12600083503E+04  0.12630741666E+04  0.00000000000E+00 0. -1.
         22    1    3    3    0    0 -0.43465221978E+02  0.10950032025E+03  0.11459760485E+04  0.11520159068E+04  0.00000000000E+00 0. -1.
</event>
<event>
 7    1  0.4402832E-005  0.2281233E+03  0.7818608E-02  0.1226744E+00
          2   -1    0    0  502    0  0.00000000000E+00  0.00000000000E+00  0.63540570276E+03  0.63540570276E+03  0.00000000000E+00 0. -1.
          1   -1    0    0  501    0 -0.00000000000E+00 -0.00000000000E+00 -0.13052378248E+04  0.13052378248E+04  0.00000000000E+00 0. -1.
         25    2    1    2    0    0 -0.16357052926E+03  0.10797091438E+03 -0.80600683786E+03  0.83885847042E+03  0.12499389717E+03 0.  0.
          2    1    1    2  501    0 -0.57525236736E+02 -0.47547769045E+02 -0.45846572107E+03  0.46450054962E+03  0.00000000000E+00 0. -1.
          1    1    1    2  502    0  0.22109576600E+03 -0.60423145332E+02  0.59464043693E+03  0.63728450748E+03  0.00000000000E+00 0. -1.
         22    1    3    3    0    0 -0.77109996795E+02  0.27599227602E+02 -0.56042972294E+03  0.56638250620E+03  0.00000000000E+00 0. -1.
         22    1    3    3    0    0 -0.86460532468E+02  0.80371686775E+02 -0.24557711492E+03  0.27247596423E+03  0.00000000000E+00 0. -1.
</event>
<event>
 7    1  0.4402832E-005  0.2308666E+03  0.7818608E-02  0.1265282E+00
          2   -1    0    0  502    0  0.00000000000E+00  0.00000000000E+00  0.14891460010E+03  0.14891460010E+03  0.00000000000E+00 0. -1.
          1   -1    0    0  501    0 -0.00000000000E+00 -0.00000000000E+00 -0.20492968159E+04  0.20492968159E+04  0.00000000000E+00 0. -1.
         25    2    1    2    0    0  0.50884458678E+02 -0.21723449093E+03 -0.25323214710E+02  0.25699444004E+03  0.12499929929E+03 0.  0.
          2    1    1    2  501    0 -0.25711686495E+02 -0.42941103038E+02 -0.13841494626E+04  0.13850540653E+04  0.00000000000E+00 0. -1.
          1    1    1    2  502    0 -0.25172772183E+02  0.26017559397E+03 -0.49090953853E+03  0.55616291064E+03  0.00000000000E+00 0. -1.
         22    1    3    3    0    0  0.87293499130E+02 -0.18644732445E+03 -0.72349044668E+01  0.20599782432E+03  0.00000000000E+00 0. -1.
         22    1    3    3    0    0 -0.36409040451E+02 -0.30787166482E+02 -0.18088310244E+02  0.50996615712E+02  0.00000000000E+00 0. -1.
</event>
<event>
 7    1  0.4402832E-005  0.1183365E+03  0.7818608E-02  0.1416550E+00
          2   -1    0    0  502    0  0.00000000000E+00  0.00000000000E+00  0.18582313812E+04  0.18582313812E+04  0.00000000000E+00 0. -1.
          1   -1    0    0  501    0 -0.00000000000E+00 -0.00000000000E+00 -0.71811381117E+03  0.71811381117E+03  0.00000000000E+00 0. -1.
         25    2    1    2    0    0  0.21292403296E+02 -0.12273487787E+03  0.48602857480E+03  0.51707427706E+03  0.12499926316E+03 0.  0.
          2    1    1    2  501    0  0.45871019996E+01  0.11821270184E+03 -0.69748251770E+03  0.70744409452E+03  0.00000000000E+00 0. -1.
          1    1    1    2  502    0 -0.25879505295E+02  0.45221760333E+01  0.13515715130E+04  0.13518268208E+04  0.00000000000E+00 0. -1.
         22    1    3    3    0    0 -0.22977766344E+02 -0.48026574684E+02  0.51921212009E+02  0.74366268419E+02  0.00000000000E+00 0.  1.
         22    1    3    3    0    0  0.44270169640E+02 -0.74708303188E+02  0.43410736279E+03  0.44270800864E+03  0.00000000000E+00 0.  1.
</event>
<event>
 7    1  0.4402832E-005  0.1420797E+03  0.7818608E-02  0.1220273E+00
          2   -1    0    0  502    0  0.00000000000E+00  0.00000000000E+00  0.24083257607E+04  0.24083257607E+04  0.00000000000E+00 0. -1.
          1   -1    0    0  501    0 -0.00000000000E+00 -0.00000000000E+00 -0.38140861236E+03  0.38140861236E+03  0.00000000000E+00 0. -1.
         25    2    1    2    0    0  0.69105730014E+02  0.10645903194E+03  0.29729230037E+03  0.34658144497E+03  0.12500743474E+03 0.  0.
          2    1    1    2  501    0  0.79902880238E+02 -0.10025449097E+03 -0.34247980445E+03  0.36568818642E+03  0.00000000000E+00 0. -1.
          1    1    1    2  502    0 -0.14900861025E+03 -0.62045409631E+01  0.20721046524E+04  0.20774647416E+04  0.00000000000E+00 0. -1.
         22    1    3    3    0    0  0.55518856627E+02 -0.55849407367E+01  0.15640772030E+03  0.16606296990E+03  0.00000000000E+00 0.  1.
         22    1    3    3    0    0  0.13586873388E+02  0.11204397267E+03  0.14088458007E+03  0.18051847507E+03  0.00000000000E+00 0.  1.
</event>
<event>
 7    1  0.4402832E-005  0.1759767E+03  0.7818608E-02  0.1234080E+00
          2   -1    0    0  502    0  0.00000000000E+00  0.00000000000E+00  0.13770832912E+04  0.13770832912E+04  0.00000000000E+00 0. -1.
          1   -1    0    0  501    0 -0.00000000000E+00 -0.00000000000E+00 -0.10310594107E+04  0.10310594107E+04  0.00000000000E+00 0. -1.
         25    2    1    2    0    0 -0.21498542982E+03  0.96967923031E+02 -0.10004836755E+04  0.10354754729E+04  0.12498142619E+03 0.  0.
          2    1    1    2  501    0  0.40184815964E+02 -0.80189302665E+02  0.39084985569E+03  0.40100966745E+03  0.00000000000E+00 0. -1.
          1    1    1    2  502    0  0.17480061386E+03 -0.16778620366E+02  0.95565770036E+03  0.97165756157E+03  0.00000000000E+00 0. -1.
         22    1    3    3    0    0 -0.12965708417E+03  0.23047204784E+02 -0.73929836794E+03  0.75093555647E+03  0.00000000000E+00 0.  1.
         22    1    3    3    0    0 -0.85328345653E+02  0.73920718248E+02 -0.26118530759E+03  0.28453991646E+03  0.00000000000E+00 0.  1.
</event>
<event>
 7    1  0.4402832E-005  0.1091244E+04  0.7818608E-02  0.1083314E+00
          2   -1    0    0  502    0  0.00000000000E+00  0.00000000000E+00  0.30123548965E+04  0.30123548965E+04  0.00000000000E+00 0. -1.
          1   -1    0    0  501    0 -0.00000000000E+00 -0.00000000000E+00 -0.61065795190E+03  0.61065795190E+03  0.00000000000E+00 0. -1.
         25    2    1    2    0    0  0.11070644093E+04  0.12758869624E+03  0.37471751419E+03  0.11823337854E+04  0.12501792980E+03 0.  0.
          2    1    1    2  501    0 -0.10372910246E+04 -0.17547570748E+03  0.11460629868E+04  0.15557071586E+04  0.00000000000E+00 0. -1.
          1    1    1    2  502    0 -0.69773384762E+02  0.47887011244E+02  0.88091644359E+03  0.88497190445E+03  0.00000000000E+00 0. -1.
         22    1    3    3    0    0  0.66278930243E+03  0.77875337807E+02  0.15933355026E+03  0.68610597424E+03  0.00000000000E+00 0. -1.
         22    1    3    3    0    0  0.44427510690E+03  0.49713358429E+02  0.21538396392E+03  0.49622781112E+03  0.00000000000E+00 0. -1.
</event>
<event>
 7    1  0.4402832E-005  0.3549640E+03  0.7818608E-02  0.1173330E+00
          2   -1    0    0  502    0  0.00000000000E+00  0.00000000000E+00  0.64561087601E+03  0.64561087601E+03  0.00000000000E+00 0. -1.
          1   -1    0    0  501    0 -0.00000000000E+00 -0.00000000000E+00 -0.17775022189E+04  0.17775022189E+04  0.00000000000E+00 0. -1.
         25    2    1    2    0    0 -0.93464626744E+02 -0.41856800683E+03 -0.38717455655E+03  0.59115451455E+03  0.12499884012E+03 0.  0.
          2    1    1    2  501    0 -0.31640126812E+01  0.85633074099E+02 -0.12314273645E+04  0.12344052772E+04  0.00000000000E+00 0. -1.
          1    1    1    2  502    0  0.96628639425E+02  0.33293493274E+03  0.48671057808E+03  0.59755330324E+03  0.00000000000E+00 0. -1.
         22    1    3    3    0    0 -0.97926978827E+01  0.90341871608E+00  0.48338962701E+01  0.10958086071E+02  0.00000000000E+00 0.  1.
         22    1    3    3    0    0 -0.83671928861E+02 -0.41947142555E+03 -0.39200845282E+03  0.58019642848E+03  0.00000000000E+00 0.  1.
</event>
<event>
 7    1  0.4402832E-005  0.3254578E+03  0.7818608E-02  0.1194945E+00
          2   -1    0    0  502    0  0.00000000000E+00  0.00000000000E+00  0.74219767945E+03  0.74219767945E+03  0.00000000000E+00 0. -1.
          1   -1    0    0  501    0 -0.00000000000E+00 -0.00000000000E+00 -0.64023075640E+03  0.64023075640E+03  0.00000000000E+00 0. -1.
         25    2    1    2    0    0  0.26907531315E+03  0.27882677555E+03 -0.49561359345E+03  0.64140892054E+03  0.12500669750E+03 0.  0.
          2    1    1    2  501    0 -0.26525547140E+02 -0.68469675098E+02  0.13709775361E+02  0.74697115069E+02  0.00000000000E+00 0. -1.
          1    1    1    2  502    0 -0.24254976601E+03 -0.21035710045E+03  0.58387074114E+03  0.66632240024E+03  0.00000000000E+00 0. -1.
         22    1    3    3    0    0  0.18094415747E+03  0.18495711436E+03 -0.41637476063E+03  0.49022225935E+03  0.00000000000E+00 0. -1.
         22    1    3    3    0    0  0.88131155688E+02  0.93869661184E+02 -0.79238832823E+02  0.15118666119E+03  0.00000000000E+00 0. -1.
</event>
<event>
 7    1  0.4402832E-005  0.2800187E+03  0.7818608E-02  0.1120497E+00
          2   -1    0    0  502    0  0.00000000000E+00  0.00000000000E+00  0.15080637478E+04  0.15080637478E+04  0.00000000000E+00 0. -1.
          1   -1    0    0  501    0 -0.00000000000E+00 -0.00000000000E+00 -0.34823687633E+03  0.34823687633E+03  0.00000000000E+00 0. -1.
         25    2    1    2    0    0 -0.32829669771E+03  0.12309742380E+03  0.21023048108E+03  0.42749716851E+03  0.12500110570E+03 0.  0.
          2    1    1    2  501    0  0.26541797708E+03  0.70862979765E+02 -0.14826312325E+03  0.31217017502E+03  0.00000000000E+00 0. -1.
          1    1    1    2  502    0  0.62878720635E+02 -0.19396040357E+03  0.10978595136E+04  0.11166332806E+04  0.00000000000E+00 0. -1.
         22    1    3    3    0    0 -0.21520666376E+03  0.11916501345E+03  0.88847382297E+02  0.26154935652E+03  0.00000000000E+00 0. -1.
         22    1    3    3    0    0 -0.11309003396E+03  0.39324103543E+01  0.12138309879E+03  0.16594781198E+03  0.00000000000E+00 0. -1.
</event>
<event>
 7    1  0.4402832E-005  0.7476897E+03  0.7818608E-02  0.1164502E+00
          2   -1    0    0  502    0  0.00000000000E+00  0.00000000000E+00  0.12378202185E+04  0.12378202185E+04  0.00000000000E+00 0. -1.
          1   -1    0    0  501    0 -0.00000000000E+00 -0.00000000000E+00 -0.17808786073E+04  0.17808786073E+04  0.00000000000E+00 0. -1.
         25    2    1    2    0    0 -0.76414590052E+03 -0.84141323490E+02 -0.67089084458E+03  0.10279682587E+04  0.12500198401E+03 0.  0.
          2    1    1    2  501    0  0.72355257942E+03  0.10359120352E+03 -0.78741604667E+03  0.10743758668E+04  0.00000000000E+00 0. -1.
          1    1    1    2  502    0  0.40593321096E+02 -0.19449880034E+02  0.91524850239E+03  0.91635470026E+03  0.00000000000E+00 0. -1.
         22    1    3    3    0    0 -0.72989971655E+03 -0.10165340528E+03 -0.65632690100E+03  0.98683940538E+03  0.00000000000E+00 0.  1.
         22    1    3    3    0    0 -0.34246183963E+02  0.17512081794E+02 -0.14563943575E+02  0.41128853343E+02  0.00000000000E+00 0.  1.
</event>
<event>
 7    1  0.4402832E-005  0.5170682E+03  0.7818608E-02  0.1155913E+00
          2   -1    0    0  502    0  0.00000000000E+00  0.00000000000E+00  0.23948712841E+04  0.23948712841E+04  0.00000000000E+00 0. -1.
          1   -1    0    0  501    0 -0.00000000000E+00 -0.00000000000E+00 -0.10329708706E+04  0.10329708706E+04  0.00000000000E+00 0. -1.
         25    2    1    2    0    0 -0.26364816999E+03 -0.48746181365E+03  0.20196578164E+03  0.60294594222E+03  0.12499701991E+03 0.  0.
          2    1    1    2  501    0 -0.27032148795E+02  0.66656542829E+02 -0.79801557631E+03  0.80125070471E+03  0.00000000000E+00 0. -1.
          1    1    1    2  502    0  0.29068031878E+03  0.42080527082E+03  0.19579502082E+04  0.20236455078E+04  0.00000000000E+00 0. -1.
         22    1    3    3    0    0 -0.95880471109E+01 -0.12470478829E+03  0.38483542654E+02  0.13085945867E+03  0.00000000000E+00 0.  1.
         22    1    3    3    0    0 -0.25406012288E+03 -0.36275702536E+03  0.16348223898E+03  0.47208648354E+03  0.00000000000E+00 0.  1.
</event>
<event>
 7    1  0.4402832E-005  0.5580650E+03  0.7818608E-02  0.1152375E+00
          2   -1    0    0  502    0  0.00000000000E+00  0.00000000000E+00  0.12511123602E+04  0.12511123602E+04  0.00000000000E+00 0. -1.
          1   -1    0    0  501    0 -0.00000000000E+00 -0.00000000000E+00 -0.90376340574E+03  0.90376340574E+03  0.00000000000E+00 0. -1.
         25    2    1    2    0    0  0.54388458948E+03  0.25897587099E+03 -0.50345667607E+03  0.79497025518E+03  0.12502053234E+03 0.  0.
          2    1    1    2  501    0 -0.25627490460E+02 -0.64577562453E+02 -0.17831500180E+03  0.19137207138E+03  0.00000000000E+00 0. -1.
          1    1    1    2  502    0 -0.51825709902E+03 -0.19439830854E+03  0.10291206323E+04  0.11685334393E+04  0.00000000000E+00 0. -1.
         22    1    3    3    0    0  0.10798720410E+03  0.74203498132E+02 -0.52571901837E+02  0.14117790283E+03  0.00000000000E+00 0.  1.
         22    1    3    3    0    0  0.43589738538E+03  0.18477237286E+03 -0.45088477424E+03  0.65379235235E+03  0.00000000000E+00 0.  1.
</event>
<event>
 7    1  0.4575228E-005  0.8890814E+02  0.7818608E-02  0.1311820E+00
          2   -1    0    0  502    0  0.00000000000E+00  0.00000000000E+00  0.23065236301E+04  0.23065236301E+04  0.00000000000E+00 0. -1.
          1   -1    0    0  501    0 -0.00000000000E+00 -0.00000000000E+00 -0.21701562824E+03  0.21701562824E+03  0.00000000000E+00 0. -1.
         25    2    1    2    0    0 -0.96081679119E+01  0.33266294980E+02  0.63368562682E+02  0.14435848581E+03  0.12499933766E+03 0.  0.
          2    1    1    2  501    0 -0.80544793740E+02 -0.23689301574E+02 -0.16554748462E+03  0.18561954766E+03  0.00000000000E+00 0. -1.
          1    1    1    2  502    0  0.90152961652E+02 -0.95769934061E+01  0.21916869238E+04  0.21935612249E+04  0.00000000000E+00 0. -1.
         22    1    3    3    0    0 -0.15899228666E+01 -0.33050619230E+02  0.69803919987E+02  0.77249327064E+02  0.00000000000E+00 0.  1.
         22    1    3    3    0    0 -0.80182450452E+01  0.66316914209E+02 -0.64353573054E+01  0.67109158745E+02  0.00000000000E+00 0.  1.
</event>
<event>
 7    1  0.5958980E-005  0.1204580E+04  0.7818608E-02  0.1114801E+00
          2   -1    0    0  502    0  0.00000000000E+00  0.00000000000E+00  0.35533516684E+04  0.35533516684E+04  0.00000000000E+00 0. -1.
          1   -1    0    0  501    0 -0.00000000000E+00 -0.00000000000E+00 -0.23139388769E+04  0.23139388769E+04  0.00000000000E+00 0. -1.
         25    2    1    2    0    0 -0.63813975568E+02  0.11996641614E+04 -0.18793957792E+04  0.22340591960E+04  0.12500269063E+03 0.  0.
          2    1    1    2  501    0  0.10650781948E+03 -0.12274024876E+04  0.12203949220E+04  0.17341351008E+04  0.00000000000E+00 0. -1.
          1    1    1    2  502    0 -0.42693843915E+02  0.27738326107E+02  0.18984136487E+04  0.18990962484E+04  0.00000000000E+00 0. -1.
         22    1    3    3    0    0  0.31126160159E+01  0.43686366629E+03 -0.58494590319E+03  0.73008305073E+03  0.00000000000E+00 0.  1.
         22    1    3    3    0    0 -0.66926591584E+02  0.76280049516E+03 -0.12944498760E+04  0.15039761453E+04  0.00000000000E+00 0.  1.
</event>
<event>
 7    1  0.4402832E-005  0.2589166E+03  0.7818608E-02  0.1272442E+00
          2   -1    0    0  502    0  0.00000000000E+00  0.00000000000E+00  0.45584726867E+03  0.45584726867E+03  0.00000000000E+00 0. -1.
          1   -1    0    0  501    0 -0.00000000000E+00 -0.00000000000E+00 -0.10420567174E+04  0.10420567174E+04  0.00000000000E+00 0. -1.
         25    2    1    2    0    0 -0.19762377566E+03  0.15590907039E+03 -0.20724787543E+03  0.34919730733E+03  0.12499713053E+03 0.  0.
          2    1    1    2  501    0  0.21257596214E+02  0.35802573988E+02 -0.71908432270E+03  0.72028881211E+03  0.00000000000E+00 0. -1.
          1    1    1    2  502    0  0.17636617944E+03 -0.19171164437E+03  0.34012274937E+03  0.42841786667E+03  0.00000000000E+00 0. -1.
         22    1    3    3    0    0 -0.13078355964E+03  0.28891772609E+02 -0.72372271266E+02  0.15223934986E+03  0.00000000000E+00 0.  1.
         22    1    3    3    0    0 -0.66840216011E+02  0.12701729778E+03 -0.13487560416E+03  0.19695795747E+03  0.00000000000E+00 0.  1.
</event>
<event>
 7    1  0.4402832E-005  0.8340722E+02  0.7818608E-02  0.1465733E+00
          2   -1    0    0  502    0  0.00000000000E+00  0.00000000000E+00  0.16545347075E+04  0.16545347075E+04  0.00000000000E+00 0. -1.
          1   -1    0    0  501    0 -0.00000000000E+00 -0.00000000000E+00 -0.49608320712E+03  0.49608320712E+03  0.00000000000E+00 0. -1.
         25    2    1    2    0    0 -0.95055558048E+02  0.34268096019E+02  0.58784188430E+02  0.17114326516E+03  0.12499829951E+03 0.  0.
          2    1    1    2  501    0  0.24169384977E+02  0.90911559623E+01 -0.43840223860E+03  0.43916207839E+03  0.00000000000E+00 0. -1.
          1    1    1    2  502    0  0.70886173071E+02 -0.43359251982E+02  0.15380695506E+04  0.15403125711E+04  0.00000000000E+00 0. -1.
         22    1    3    3    0    0 -0.11094182639E+02  0.57815417599E+02  0.59829534316E+02  0.83936145831E+02  0.00000000000E+00 0.  1.
         22    1    3    3    0    0 -0.83961375409E+02 -0.23547321580E+02 -0.10453458854E+01  0.87207119332E+02  0.00000000000E+00 0.  1.
</event>
<event>
 7    1  0.4402832E-005  0.1407253E+03  0.7818608E-02  0.1276822E+00
          2   -1    0    0  502    0  0.00000000000E+00  0.00000000000E+00  0.17321222398E+04  0.17321222398E+04  0.00000000000E+00 0. -1.
          1   -1    0    0  501    0 -0.00000000000E+00 -0.00000000000E+00 -0.15347114133E+03  0.15347114133E+03  0.00000000000E+00 0. -1.
         25    2    1    2    0    0  0.79809544742E+02 -0.11843178324E+03  0.37551900827E+03  0.42075550423E+03  0.12500007223E+03 0.  0.
          2    1    1    2  501    0 -0.69308753630E+02 -0.24328463561E+02 -0.11635920153E+03  0.13760465563E+03  0.00000000000E+00 0. -1.
          1    1    1    2  502    0 -0.10500791112E+02  0.14276024680E+03  0.13194912917E+04  0.13272332212E+04  0.00000000000E+00 0. -1.
         22    1    3    3    0    0  0.32863345489E+02  0.11176676991E+02  0.21464633373E+02  0.40812351943E+02  0.00000000000E+00 0.  1.
         22    1    3    3    0    0  0.46946199253E+02 -0.12960846023E+03  0.35405437490E+03  0.37994315229E+03  0.00000000000E+00 0.  1.
</event>
<event>
 7    1  0.4402832E-005  0.4997276E+03  0.7818608E-02  0.1150480E+00
          2   -1    0    0  502    0  0.00000000000E+00  0.00000000000E+00  0.63128618374E+03  0.63128618374E+03  0.00000000000E+00 0. -1.
          1   -1    0    0  501    0 -0.00000000000E+00 -0.00000000000E+00 -0.10205914195E+04  0.10205914195E+04  0.00000000000E+00 0. -1.
         25    2    1    2    0    0 -0.30499060827E+02 -0.45690252970E+03  0.62066231259E+02  0.47871372479E+03  0.12499799552E+03 0.  0.
          2    1    1    2  501    0 -0.26177160215E+02  0.51242935652E+03 -0.72503759846E+03  0.88822779078E+03  0.00000000000E+00 0. -1.
          1    1    1    2  502    0  0.56676221042E+02 -0.55526826815E+02  0.27366613147E+03  0.28493608764E+03  0.00000000000E+00 0. -1.
         22    1    3    3    0    0 -0.48662626349E+02 -0.25563169509E+03  0.88596844752E+02  0.27489091589E+03  0.00000000000E+00 0.  1.
         22    1    3    3    0    0  0.18163565521E+02 -0.20127083461E+03 -0.26530613493E+02  0.20382280890E+03  0.00000000000E+00 0.  1.
</event>
<event>
 7    1  0.4402832E-005  0.7999861E+02  0.7818608E-02  0.1340876E+00
          2   -1    0    0  502    0  0.00000000000E+00  0.00000000000E+00  0.14502063532E+04  0.14502063532E+04  0.00000000000E+00 0. -1.
          1   -1    0    0  501    0 -0.00000000000E+00 -0.00000000000E+00 -0.63951269871E+02  0.63951269871E+02  0.00000000000E+00 0. -1.
         25    2    1    2    0    0  0.11531570149E+03 -0.25091141838E+02  0.75307681153E+03  0.77244955730E+03  0.12500543231E+03 0.  0.
          2    1    1    2  501    0 -0.46302694634E+02  0.55339123486E+02 -0.27150408508E+02  0.77094116512E+02  0.00000000000E+00 0. -1.
          1    1    1    2  502    0 -0.69013006854E+02 -0.30247981649E+02  0.66032868028E+03  0.66461394923E+03  0.00000000000E+00 0. -1.
         22    1    3    3    0    0  0.12183629743E+03 -0.51581057561E+02  0.70377483799E+03  0.71610314303E+03  0.00000000000E+00 0. -1.
         22    1    3    3    0    0 -0.65205959424E+01  0.26489915724E+02  0.49301973536E+02  0.56346414270E+02  0.00000000000E+00 0. -1.
</event>
<event>
 7    1  0.4402832E-005  0.1740940E+04  0.7818608E-02  0.1043483E+00
          2   -1    0    0  502    0  0.00000000000E+00  0.00000000000E+00  0.43806500033E+04  0.43806500033E+04  0.00000000000E+00 0. -1.
          1   -1    0    0  501    0 -0.00000000000E+00 -0.00000000000E+00 -0.21590146562E+04  0.21590146562E+04  0.00000000000E+00 0. -1.
         25    2    1    2    0    0  0.16834972268E+04 -0.40185712235E+03 -0.21354487638E+03  0.17483933067E+04  0.12500272468E+03 0.  0.
          2    1    1    2  501    0 -0.17215328689E+04  0.31775947913E+03 -0.52656278520E+03  0.18280904989E+04  0.00000000000E+00 0. -1.
          1    1    1    2  502    0  0.38035642112E+02  0.84097643226E+02  0.29617430087E+04  0.29631808540E+04  0.00000000000E+00 0. -1.
         22    1    3    3    0    0  0.70085876965E+03 -0.10603877517E+03 -0.10235349945E+03  0.71618676034E+03  0.00000000000E+00 0.  1.
         22    1    3    3    0    0  0.98263845714E+03 -0.29581834718E+03 -0.11119137693E+03  0.10322065463E+04  0.00000000000E+00 0.  1.
</event>
<event>
 7    1  0.4402832E-005  0.3077643E+03  0.7818608E-02  0.1200575E+00
          2   -1    0    0  502    0  0.00000000000E+00  0.00000000000E+00  0.42126387770E+03  0.42126387770E+03  0.00000000000E+00 0. -1.
          1   -1    0    0  501    0 -0.00000000000E+00 -0.00000000000E+00 -0.87682878732E+03  0.87682878732E+03  0.00000000000E+00 0. -1.
         25    2    1    2    0    0  0.20179110855E+02  0.34858803892E+03  0.70332796483E+02  0.37748220262E+03  0.12500117455E+03 0.  0.
          2    1    1    2  501    0  0.34766030538E+02 -0.30048475416E+03 -0.68320778891E+03  0.74717644983E+03  0.00000000000E+00 0. -1.
          1    1    1    2  502    0 -0.54945141393E+02 -0.48103284762E+02  0.15731008280E+03  0.17343401258E+03  0.00000000000E+00 0. -1.
         22    1    3    3    0    0  0.13732046685E+02  0.23411516596E+02 -0.26702782114E+02  0.38075015274E+02  0.00000000000E+00 0.  1.
         22    1    3    3    0    0  0.64470641701E+01  0.32517652232E+03  0.97035578597E+02  0.33940718734E+03  0.00000000000E+00 0.  1.
</event>
<event>
 7    1  0.4402832E-005  0.5999625E+03  0.7818608E-02  0.1192752E+00
          2   -1    0    0  502    0  0.00000000000E+00  0.00000000000E+00  0.64179292775E+03  0.64179292775E+03  0.00000000000E+00 0. -1.
          1   -1    0    0  501    0 -0.00000000000E+00 -0.00000000000E+00 -0.19297427370E+04  0.19297427370E+04  0.00000000000E+00 0. -1.
         25    2    1    2    0    0  0.60284825545E+03  0.63846354973E+01  0.14685199532E+02  0.61587291454E+03  0.12496803236E+03 0.  0.
          2    1    1    2  501    0 -0.59782152951E+03 -0.46876187018E+02 -0.15723822942E+04  0.16828470034E+04  0.00000000000E+00 0. -1.
          1    1    1    2  502    0 -0.50267259444E+01  0.40491551521E+02  0.26974728537E+03  0.27281574676E+03  0.00000000000E+00 0. -1.
         22    1    3    3    0    0  0.32718134926E+03 -0.58104777251E+02  0.17304926131E+02  0.33275104945E+03  0.00000000000E+00 0. -1.
         22    1    3    3    0    0  0.27566690619E+03  0.64489412749E+02 -0.26197265988E+01  0.28312186509E+03  0.00000000000E+00 0. -1.
</event>
<event>
 7    1  0.4402832E-005  0.3401380E+03  0.7818608E-02  0.1152034E+00
          2   -1    0    0  502    0  0.00000000000E+00  0.00000000000E+00  0.15726029853E+04  0.15726029853E+04  0.00000000000E+00 0. -1.
          1   -1    0    0  501    0 -0.00000000000E+00 -0.00000000000E+00 -0.16658328126E+04  0.16658328126E+04  0.00000000000E+00 0. -1.
         25    2    1    2    0    0 -0.77365765597E+02  0.22627789253E+03  0.19708893991E+03  0.33415106471E+03  0.12500294985E+03 0.  0.
          2    1    1    2  501    0  0.69460818868E+02 -0.34045437819E+03 -0.15758327228E+04  0.16136860783E+04  0.00000000000E+00 0. -1.
          1    1    1    2  502    0  0.79049467291E+01  0.11417648566E+03  0.12855139556E+04  0.12905986549E+04  0.00000000000E+00 0. -1.
         22    1    3    3    0    0 -0.21771961273E+01  0.29072153652E+02  0.95634186867E+02  0.99979137817E+02  0.00000000000E+00 0. -1.
         22    1    3    3    0    0 -0.75188569469E+02  0.19720573888E+03  0.10145475305E+03  0.23417192689E+03  0.00000000000E+00 0. -1.
</event>
<event>
 7    1  0.4402832E-005  0.2499773E+03  0.7818608E-02  0.1242369E+00
          2   -1    0    0  502    0  0.00000000000E+00  0.00000000000E+00  0.64297037880E+03  0.64297037880E+03  0.00000000000E+00 0. -1.
          1   -1    0    0  501    0 -0.00000000000E+00 -0.00000000000E+00 -0.13878989231E+03  0.13878989231E+03  0.00000000000E+00 0. -1.
         25    2    1    2    0    0 -0.15673196338E+03 -0.18639853673E+03  0.19176696227E+03  0.33422856047E+03  0.12499935988E+03 0.  0.
          2    1    1    2  501    0  0.11982145225E+03  0.23117782480E+03  0.23474999438E+03  0.35058226846E+03  0.00000000000E+00 0. -1.
          1    1    1    2  502    0  0.36910511131E+02 -0.44779288065E+02  0.77663529850E+02  0.96949442187E+02  0.00000000000E+00 0. -1.
         22    1    3    3    0    0 -0.89383155213E+02 -0.37271028881E+02  0.12346730548E+03  0.15691607168E+03  0.00000000000E+00 0. -1.
         22    1    3    3    0    0 -0.67348808172E+02 -0.14912750785E+03  0.68299656788E+02  0.17731248878E+03  0.00000000000E+00 0. -1.
</event>
<event>
 7    1  0.4821370E-005  0.2900048E+03  0.7818608E-02  0.1128427E+00
          2   -1    0    0  502    0  0.00000000000E+00  0.00000000000E+00  0.20938255423E+04  0.20938255423E+04  0.00000000000E+00 0. -1.
          1   -1    0    0  501    0 -0.00000000000E+00 -0.00000000000E+00 -0.54117263605E+03  0.54117263605E+03  0.00000000000E+00 0. -1.
         25    2    1    2    0    0  0.19781225068E+03 -0.24802185636E+03 -0.36585607240E+02  0.34293899712E+03  0.12499648531E+03 0.  0.
          2    1    1    2  501    0 -0.17334462803E+03 -0.42312523421E+02 -0.31695343295E+03  0.36372817923E+03  0.00000000000E+00 0. -1.
          1    1    1    2  502    0 -0.24467622644E+02  0.29033437978E+03  0.19061919464E+04  0.19283310020E+04  0.00000000000E+00 0. -1.
         22    1    3    3    0    0  0.15023342160E+03 -0.15568884368E+03 -0.79574581231E+02  0.23052377533E+03  0.00000000000E+00 0.  1.
         22    1    3    3    0    0  0.47578829077E+02 -0.92333012673E+02  0.42988973991E+02  0.11241522179E+03  0.00000000000E+00 0.  1.
</event>
<event>
 7    1  0.4402832E-005  0.1474052E+03  0.7818608E-02  0.1255866E+00
          2   -1    0    0  502    0  0.00000000000E+00  0.00000000000E+00  0.59767326139E+03  0.59767326139E+03  0.00000000000E+00 0. -1.
          1   -1    0    0  501    0 -0.00000000000E+00 -0.00000000000E+00 -0.40911012409E+03  0.40911012409E+03  0.00000000000E+00 0. -1.
         25    2    1    2    0    0 -0.17865557789E+03 -0.11510485450E+03  0.36640481273E+02  0.24926772933E+03  0.12499973191E+03 0.  0.
          2    1    1    2  501    0  0.43360594975E+02  0.74248133778E+02 -0.28532285025E+03  0.29799673730E+03  0.00000000000E+00 0. -1.
          1    1    1    2  502    0  0.13529498291E+03  0.40856720722E+02  0.43724550628E+03  0.45951891886E+03  0.00000000000E+00 0. -1.
         22    1    3    3    0    0 -0.38347743988E+02  0.14979030852E+02  0.40701173684E+02  0.57892196136E+02  0.00000000000E+00 0. -1.
         22    1    3    3    0    0 -0.14030783390E+03 -0.13008388535E+03 -0.40606924113E+01  0.19137553319E+03  0.00000000000E+00 0. -1.
</event>
<event>
 7    1  0.4402832E-005  0.2943172E+03  0.7818608E-02  0.1127551E+00
          2   -1    0    0  502    0  0.00000000000E+00  0.00000000000E+00  0.23539253166E+04  0.23539253166E+04  0.00000000000E+00 0. -1.
          1   -1    0    0  501    0 -0.00000000000E+00 -0.00000000000E+00 -0.31910964439E+03  0.31910964439E+03  0.00000000000E+00 0. -1.
         25    2    1    2    0    0  0.29589368377E+03  0.26487889713E+03  0.67576154314E+03  0.79372031542E+03  0.12499749471E+03 0.  0.
          2    1    1    2  501    0 -0.32817783215E+02 -0.17467092734E+03 -0.21610017252E+03  0.27979675537E+03  0.00000000000E+00 0. -1.
          1    1    1    2  502    0 -0.26307590055E+03 -0.90207969791E+02  0.15751543016E+04  0.15995178902E+04  0.00000000000E+00 0. -1.
         22    1    3    3    0    0  0.25238601383E+03  0.22011410912E+03  0.45921001238E+03  0.56835090964E+03  0.00000000000E+00 0. -1.
         22    1    3    3    0    0  0.43507669934E+02  0.44764788007E+02  0.21655153076E+03  0.22536940579E+03  0.00000000000E+00 0. -1.
</event>
<event>
 7    1  0.4402832E-005  0.4288726E+03  0.7818608E-02  0.1165924E+00
          2   -1    0    0  502    0  0.00000000000E+00  0.00000000000E+00  0.13184781663E+04  0.13184781663E+04  0.00000000000E+00 0. -1.
          1   -1    0    0  501    0 -0.00000000000E+00 -0.00000000000E+00 -0.23831884510E+04  0.23831884510E+04  0.00000000000E+00 0. -1.
         25    2    1    2    0    0 -0.38474763308E+03  0.20721614697E+03  0.13202981637E+03  0.47331476361E+03  0.12500288123E+03 0.  0.
          2    1    1    2  501    0  0.40746300020E+03 -0.13343626038E+03 -0.21902631196E+04  0.22318341930E+04  0.00000000000E+00 0. -1.
          1    1    1    2  502    0 -0.22715367118E+02 -0.73779886586E+02  0.99352301859E+03  0.99651766067E+03  0.00000000000E+00 0. -1.
         22    1    3    3    0    0 -0.23050795861E+03  0.87067741696E+02  0.12821128677E+03  0.27776400898E+03  0.00000000000E+00 0. -1.
         22    1    3    3    0    0 -0.15423967447E+03  0.12014840527E+03  0.38185296037E+01  0.19555075463E+03  0.00000000000E+00 0. -1.
</event>
<event>
 7    1  0.4402832E-005  0.6493730E+03  0.7818608E-02  0.1100438E+00
          2   -1    0    0  502    0  0.00000000000E+00  0.00000000000E+00  0.13573645558E+04  0.13573645558E+04  0.00000000000E+00 0. -1.
          1   -1    0    0  501    0 -0.00000000000E+00 -0.00000000000E+00 -0.21087356735E+04  0.21087356735E+04  0.00000000000E+00 0. -1.
         25    2    1    2    0    0  0.17166665014E+03 -0.56064997882E+03  0.29556664864E+03  0.66841819550E+03  0.12500161106E+03 0.  0.
          2    1    1    2  501    0  0.60287368237E+02 -0.96155685394E+02 -0.17816493491E+04  0.17852604532E+04  0.00000000000E+00 0. -1.
          1    1    1    2  502    0 -0.23195401838E+03  0.65680566422E+03  0.73471158270E+03  0.10124215806E+04  0.00000000000E+00 0. -1.
         22    1    3    3    0    0  0.14484317498E+03 -0.27628767294E+03  0.18110450054E+03  0.36071216181E+03  0.00000000000E+00 0. -1.
         22    1    3    3    0    0  0.26823475157E+02 -0.28436230588E+03  0.11446214810E+03  0.30770603369E+03  0.00000000000E+00 0. -1.
</event>
<event>
 7    1  0.4402832E-005  0.4228495E+03  0.7818608E-02  0.1233549E+00
          2   -1    0    0  502    0  0.00000000000E+00  0.00000000000E+00  0.37788690962E+04  0.37788690962E+04  0.00000000000E+00 0. -1.
          1   -1    0    0  501    0 -0.00000000000E+00 -0.00000000000E+00 -0.37990718313E+03  0.37990718313E+03  0.00000000000E+00 0. -1.
         25    2    1    2    0    0 -0.60048379920E+02 -0.43651334195E+03  0.11757935587E+04  0.12618496257E+04  0.12499711859E+03 0.  0.
          2    1    1    2  501    0  0.26232359048E+02  0.42023021763E+03 -0.20511577475E+03  0.46835248854E+03  0.00000000000E+00 0. -1.
          1    1    1    2  502    0  0.33816020872E+02  0.16283124319E+02  0.24282841291E+04  0.24285741651E+04  0.00000000000E+00 0. -1.
         22    1    3    3    0    0 -0.18233562835E+02 -0.10745269653E+03  0.46298253505E+03  0.47563785864E+03  0.00000000000E+00 0.  1.
         22    1    3    3    0    0 -0.41814817085E+02 -0.32906064541E+03  0.71281102366E+03  0.78621176711E+03  0.00000000000E+00 0.  1.
</event>
<event>
 7    1  0.4402832E-005  0.4493128E+03  0.7818608E-02  0.1210439E+00
          2   -1    0    0  502    0  0.00000000000E+00  0.00000000000E+00  0.19919421737E+04  0.19919421737E+04  0.00000000000E+00 0. -1.
          1   -1    0    0  501    0 -0.00000000000E+00 -0.00000000000E+00 -0.61138063756E+03  0.61138063756E+03  0.00000000000E+00 0. -1.
         25    2    1    2    0    0 -0.32840368236E+03  0.28156214131E+03  0.91869411315E+03  0.10231086856E+04  0.12500516419E+03 0.  0.
          2    1    1    2  501    0 -0.56759274910E+01  0.44624994396E+02 -0.50474201045E+03  0.50674264019E+03  0.00000000000E+00 0. -1.
          1    1    1    2  502    0  0.33407960985E+03 -0.32618713571E+03  0.96660943340E+03  0.10734714854E+04  0.00000000000E+00 0. -1.
         22    1    3    3    0    0 -0.42468557133E+02  0.39017808261E+01  0.41005665767E+02  0.59163053197E+02  0.00000000000E+00 0. -1.
         22    1    3    3    0    0 -0.28593512523E+03  0.27766036048E+03  0.87768844739E+03  0.96394563244E+03  0.00000000000E+00 0. -1.
</event>
<event>
 7    1  0.4402832E-005  0.4222239E+03  0.7818608E-02  0.1190655E+00
          2   -1    0    0  502    0  0.00000000000E+00  0.00000000000E+00  0.51926549557E+03  0.51926549557E+03  0.00000000000E+00 0. -1.
          1   -1    0    0  501    0 -0.00000000000E+00 -0.00000000000E+00 -0.63477990701E+03  0.63477990701E+03  0.00000000000E+00 0. -1.
         25    2    1    2    0    0  0.44773629386E+03 -0.15914661219E+02 -0.27413300902E+03  0.53990424766E+03  0.12500649874E+03 0.  0.
          2    1    1    2  501    0 -0.38874792509E+03  0.22298869895E+02 -0.54259459473E+02  0.39314918009E+03  0.00000000000E+00 0. -1.
          1    1    1    2  502    0 -0.58988368767E+02 -0.63842086762E+01  0.21287805705E+03  0.22099197484E+03  0.00000000000E+00 0. -1.
         22    1    3    3    0    0  0.29624731231E+03 -0.22405153987E+02 -0.24592918078E+03  0.38567554101E+03  0.00000000000E+00 0.  1.
         22    1    3    3    0    0  0.15148898155E+03  0.64904927685E+01 -0.28203828244E+02  0.15422870665E+03  0.00000000000E+00 0.  1.
</event>
<event>
 7    1  0.4402832E-005  0.3529308E+03  0.7818608E-02  0.1064422E+00
          2   -1    0    0  502    0  0.00000000000E+00  0.00000000000E+00  0.15109617618E+04  0.15109617618E+04  0.00000000000E+00 0. -1.
          1   -1    0    0  501    0 -0.00000000000E+00 -0.00000000000E+00 -0.18539601377E+04  0.18539601377E+04  0.00000000000E+00 0. -1.
         25    2    1    2    0    0 -0.34421902589E+03 -0.92175066530E+02  0.38722737621E+03  0.54088107037E+03  0.12499724287E+03 0.  0.
          2    1    1    2  501    0  0.26885291497E+03 -0.23781204849E+03 -0.17308712224E+04  0.17676967072E+04  0.00000000000E+00 0. -1.
          1    1    1    2  502    0  0.75366110921E+02  0.32998711502E+03  0.10006454703E+04  0.10563441219E+04  0.00000000000E+00 0. -1.
         22    1    3    3    0    0 -0.11954553295E+03 -0.78266150014E+02  0.21180605996E+03  0.25549663740E+03  0.00000000000E+00 0. -1.
         22    1    3    3    0    0 -0.22467349294E+03 -0.13908916516E+02  0.17542131625E+03  0.28538443297E+03  0.00000000000E+00 0. -1.
</event>
<event>
 7    1  0.4402832E-005  0.1653125E+03  0.7818608E-02  0.1303662E+00
          2   -1    0    0  502    0  0.00000000000E+00  0.00000000000E+00  0.37286608774E+03  0.37286608774E+03  0.00000000000E+00 0. -1.
          1   -1    0    0  501    0 -0.00000000000E+00 -0.00000000000E+00 -0.75686439987E+03  0.75686439987E+03  0.00000000000E+00 0. -1.
         25    2    1    2    0    0  0.60140893635E+02 -0.18839182269E+03  0.10308870698E+03  0.25564942606E+03  0.12498376532E+03 0.  0.
          2    1    1    2  501    0  0.13974883186E+01  0.48615204444E+02 -0.64939696801E+03  0.65121564258E+03  0.00000000000E+00 0. -1.
          1    1    1    2  502    0 -0.61538381954E+02  0.13977661825E+03  0.16230994890E+03  0.22286541898E+03  0.00000000000E+00 0. -1.
         22    1    3    3    0    0 -0.13278098875E+02  0.10971931280E+02 -0.40735267254E+01  0.17699853268E+02  0.00000000000E+00 0. -1.
         22    1    3    3    0    0  0.73418992510E+02 -0.19936375397E+03  0.10716223371E+03  0.23794957279E+03  0.00000000000E+00 0. -1.
</event>
<event>
 7    1  0.4402832E-005  0.5505151E+03  0.7818608E-02  0.1222695E+00
          2   -1    0    0  502    0  0.00000000000E+00  0.00000000000E+00  0.30577723001E+03  0.30577723001E+03  0.00000000000E+00 0. -1.
          1   -1    0    0  501    0 -0.00000000000E+00 -0.00000000000E+00 -0.14488639289E+04  0.14488639289E+04  0.00000000000E+00 0. -1.
         25    2    1    2    0    0  0.45046474871E+03 -0.31439888933E+03 -0.21620941835E+03  0.60343721318E+03  0.12499922490E+03 0.  0.
          2    1    1    2  501    0 -0.16083671746E+02 -0.27962755269E+02 -0.35197520078E+03  0.35345033900E+03  0.00000000000E+00 0. -1.
          1    1    1    2  502    0 -0.43438107696E+03  0.34236164460E+03 -0.57490207975E+03  0.79775360671E+03  0.00000000000E+00 0. -1.
         22    1    3    3    0    0  0.32933443314E+03 -0.23851663461E+03 -0.98805764152E+02  0.41846616693E+03  0.00000000000E+00 0.  1.
         22    1    3    3    0    0  0.12113031557E+03 -0.75882254722E+02 -0.11740365420E+03  0.18497104625E+03  0.00000000000E+00 0.  1.
</event>
<event>
 7    1  0.4402832E-005  0.2630972E+03  0.7818608E-02  0.1117977E+00
          2   -1    0    0  502    0  0.00000000000E+00  0.00000000000E+00  0.11391196654E+04  0.11391196654E+04  0.00000000000E+00 0. -1.
          1   -1    0    0  501    0 -0.00000000000E+00 -0.00000000000E+00 -0.34261256452E+03  0.34261256452E+03  0.00000000000E+00 0. -1.
         25    2    1    2    0    0 -0.14609780683E+03  0.25348946466E+03  0.64211783380E+03  0.71661789773E+03  0.12499768403E+03 0.  0.
          2    1    1    2  501    0 -0.77845741794E+02 -0.25691540037E+03 -0.20765665996E+03  0.33939176609E+03  0.00000000000E+00 0. -1.
          1    1    1    2  502    0  0.22394354862E+03  0.34259357025E+01  0.36204592701E+03  0.42572256608E+03  0.00000000000E+00 0. -1.
         22    1    3    3    0    0 -0.98767583667E+02  0.22816305327E+03  0.41969178523E+03  0.48780591330E+03  0.00000000000E+00 0. -1.
         22    1    3    3    0    0 -0.47330223161E+02  0.25326411398E+02  0.22242604857E+03  0.22881198444E+03  0.00000000000E+00 0. -1.
</event>
<event>
 7    1  0.4402832E-005  0.1616345E+03  0.7818608E-02  0.1217979E+00
          2   -1    0    0  502    0  0.00000000000E+00  0.00000000000E+00  0.10433224352E+04  0.10433224352E+04  0.00000000000E+00 0. -1.
          1   -1    0    0  501    0 -0.00000000000E+00 -0.00000000000E+00 -0.32764954585E+04  0.32764954585E+04  0.00000000000E+00 0. -1.
         25    2    1    2    0    0  0.13055362780E+03  0.13535408564E+03 -0.32540343204E+04  0.32618598612E+04  0.12500167245E+03 0.  0.
          2    1    1    2  501    0  0.29376319624E+02 -0.11164178200E+03  0.45931513771E+03  0.47360030762E+03  0.00000000000E+00 0. -1.
          1    1    1    2  502    0 -0.15992994742E+03 -0.23712303636E+02  0.56154615940E+03  0.58435772483E+03  0.00000000000E+00 0. -1.
         22    1    3    3    0    0  0.47150908039E+02  0.10130385702E+03 -0.10383553205E+04  0.10443502531E+04  0.00000000000E+00 0. -1.
         22    1    3    3    0    0  0.83402719759E+02  0.34050228619E+02 -0.22156789999E+04  0.22175096082E+04  0.00000000000E+00 0. -1.
</event>
<event>
 7    1  0.4402832E-005  0.2729042E+03  0.7818608E-02  0.1188410E+00
          2   -1    0    0  502    0  0.00000000000E+00  0.00000000000E+00  0.32792632173E+03  0.32792632173E+03  0.00000000000E+00 0. -1.
          1   -1    0    0  501    0 -0.00000000000E+00 -0.00000000000E+00 -0.99899249771E+03  0.99899249771E+03  0.00000000000E+00 0. -1.
         25    2    1    2    0    0  0.16634021594E+03  0.23253438681E+03 -0.24024941250E+03  0.39380954075E+03  0.12499946275E+03 0.  0.
          2    1    1    2  501    0 -0.76762903274E+02 -0.26136990172E+03 -0.64445506152E+03  0.69966355855E+03  0.00000000000E+00 0. -1.
          1    1    1    2  502    0 -0.89577312665E+02  0.28835514916E+02  0.21363829804E+03  0.23344572014E+03  0.00000000000E+00 0. -1.
         22    1    3    3    0    0  0.90997354810E+02  0.37362996723E+02 -0.47064418504E+02  0.10904848278E+03  0.00000000000E+00 0.  1.
         22    1    3    3    0    0  0.75342861129E+02  0.19517139009E+03 -0.19318499400E+03  0.28476105797E+03  0.00000000000E+00 0.  1.
</event>
<event>
 7    1  0.4402832E-005  0.5175603E+03  0.7818608E-02  0.1025612E+00
          2   -1    0    0  502    0  0.00000000000E+00  0.00000000000E+00  0.80203324155E+03  0.80203324155E+03  0.00000000000E+00 0. -1.
          1   -1    0    0  501    0 -0.00000000000E+00 -0.00000000000E+00 -0.95454772159E+03  0.95454772159E+03  0.00000000000E+00 0. -1.
         25    2    1    2    0    0  0.24977802303E+03  0.32673507078E+03  0.43373540078E+03  0.61065169018E+03  0.12499688621E+03 0.  0.
          2    1    1    2  501    0 -0.57413511804E+03 -0.86247453022E+02 -0.35851199379E+03  0.68234932887E+03  0.00000000000E+00 0. -1.
          1    1    1    2  502    0  0.32435709501E+03 -0.24048761776E+03 -0.22773788703E+03  0.46357994409E+03  0.00000000000E+00 0. -1.
         22    1    3    3    0    0  0.23797233322E+03  0.22536736438E+03  0.33440325473E+03  0.46823799192E+03  0.00000000000E+00 0.  1.
         22    1    3    3    0    0  0.11805689811E+02  0.10136770640E+03  0.99332146047E+02  0.14241369825E+03  0.00000000000E+00 0.  1.
</event>
<event>
 7    1  0.4402832E-005  0.2168319E+03  0.7818608E-02  0.1255771E+00
          2   -1    0    0  502    0  0.00000000000E+00  0.00000000000E+00  0.18858231252E+04  0.18858231252E+04  0.00000000000E+00 0. -1.
          1   -1    0    0  501    0 -0.00000000000E+00 -0.00000000000E+00 -0.28950447501E+03  0.28950447501E+03  0.00000000000E+00 0. -1.
         25    2    1    2    0    0  0.69789319986E+02  0.23312655396E+03  0.12160249800E+04  0.12464188955E+04  0.12499908616E+03 0.  0.
          2    1    1    2  501    0  0.10212992629E+02 -0.57608483837E+02 -0.25673487375E+03  0.26331699153E+03  0.00000000000E+00 0. -1.
          1    1    1    2  502    0 -0.80002312616E+02 -0.17551807013E+03  0.63702854395E+03  0.66559171327E+03  0.00000000000E+00 0. -1.
         22    1    3    3    0    0  0.45617499184E+02  0.22387108758E+03  0.87241489887E+03  0.90183533744E+03  0.00000000000E+00 0.  1.
         22    1    3    3    0    0  0.24171820802E+02  0.92554663857E+01  0.34361008116E+03  0.34458355801E+03  0.00000000000E+00 0.  1.
</event>
<event>
 7    1  0.4402832E-005  0.6551734E+03  0.7818608E-02  0.1151543E+00
          2   -1    0    0  502    0  0.00000000000E+00  0.00000000000E+00  0.87681839174E+03  0.87681839174E+03  0.00000000000E+00 0. -1.
          1   -1    0    0  501    0 -0.00000000000E+00 -0.00000000000E+00 -0.85818428480E+03  0.85818428480E+03  0.00000000000E+00 0. -1.
         25    2    1    2    0    0 -0.59686479863E+03  0.31893221125E+03 -0.37419143838E+02  0.68919574647E+03  0.12500096563E+03 0.  0.
          2    1    1    2  501    0  0.53160052106E+02  0.27306696874E+02 -0.30240315525E+03  0.30825203184E+03  0.00000000000E+00 0. -1.
          1    1    1    2  502    0  0.54370474652E+03 -0.34623890812E+03  0.35845640602E+03  0.73755489823E+03  0.00000000000E+00 0. -1.
         22    1    3    3    0    0 -0.38302845364E+03  0.26882491920E+03 -0.12036180131E+02  0.46810522654E+03  0.00000000000E+00 0. -1.
         22    1    3    3    0    0 -0.21383634499E+03  0.50107292044E+02 -0.25382963707E+02  0.22109051993E+03  0.00000000000E+00 0. -1.
</event>
<event>
 7    1  0.4402832E-005  0.5284138E+03  0.7818608E-02  0.1196824E+00
          2   -1    0    0  502    0  0.00000000000E+00  0.00000000000E+00  0.69073790367E+03  0.69073790367E+03  0.00000000000E+00 0. -1.
          1   -1    0    0  501    0 -0.00000000000E+00 -0.00000000000E+00 -0.37131944186E+04  0.37131944186E+04  0.00000000000E+00 0. -1.
         25    2    1    2    0    0 -0.32736067437E+03  0.42686673137E+03 -0.51746280312E+03  0.75681460807E+03  0.12498152223E+03 0.  0.
          2    1    1    2  501    0  0.35326475119E+03 -0.39092297752E+03 -0.30525917133E+04  0.30977302864E+04  0.00000000000E+00 0. -1.
          1    1    1    2  502    0 -0.25904076814E+02 -0.35943753847E+02  0.54759800150E+03  0.54938742785E+03  0.00000000000E+00 0. -1.
         22    1    3    3    0    0 -0.19218949537E+03  0.34303076605E+03 -0.37036762653E+03  0.54016579618E+03  0.00000000000E+00 0. -1.
         22    1    3    3    0    0 -0.13517117900E+03  0.83835965316E+02 -0.14709517659E+03  0.21664881188E+03  0.00000000000E+00 0. -1.
</event>
<event>
 7    1  0.4402832E-005  0.7137510E+03  0.7818608E-02  0.1163505E+00
          2   -1    0    0  502    0  0.00000000000E+00  0.00000000000E+00  0.13764113594E+04  0.13764113594E+04  0.00000000000E+00 0. -1.
          1   -1    0    0  501    0 -0.00000000000E+00 -0.00000000000E+00 -0.91770640932E+03  0.91770640932E+03  0.00000000000E+00 0. -1.
         25    2    1    2    0    0  0.15634234547E+03  0.69643508525E+03  0.34904207399E+03  0.80431630287E+03  0.12501835339E+03 0.  0.
          2    1    1    2  501    0  0.46319842627E+02 -0.11387748767E+02 -0.52924097843E+03  0.53138613258E+03  0.00000000000E+00 0. -1.
          1    1    1    2  502    0 -0.20266218810E+03 -0.68504733649E+03  0.63890385449E+03  0.95841533324E+03  0.00000000000E+00 0. -1.
         22    1    3    3    0    0  0.14178560329E+03  0.57727640454E+03  0.33788975956E+03  0.68375484946E+03  0.00000000000E+00 0.  1.
         22    1    3    3    0    0  0.14556742181E+02  0.11915868071E+03  0.11152314434E+02  0.12056145341E+03  0.00000000000E+00 0.  1.
</event>
<event>
 7    1  0.4402832E-005  0.3336641E+03  0.7818608E-02  0.1104109E+00
          2   -1    0    0  502    0  0.00000000000E+00  0.00000000000E+00  0.30765406024E+04  0.30765406024E+04  0.00000000000E+00 0. -1.
          1   -1    0    0  501    0 -0.00000000000E+00 -0.00000000000E+00 -0.39195125897E+03  0.39195125897E+03  0.00000000000E+00 0. -1.
         25    2    1    2    0    0  0.16400513477E+02  0.51841419163E+03  0.52395820986E+03  0.74778240648E+03  0.12499628331E+03 0.  0.
          2    1    1    2  501    0  0.17112863390E+01 -0.30854705090E+03 -0.18888074294E+03  0.36177361177E+03  0.00000000000E+00 0. -1.
          1    1    1    2  502    0 -0.18111799816E+02 -0.20986714073E+03  0.23495118765E+04  0.23589358431E+04  0.00000000000E+00 0. -1.
         22    1    3    3    0    0  0.30562759384E+02  0.78314916434E+02  0.38772020861E+02  0.92577416247E+02  0.00000000000E+00 0.  1.
         22    1    3    3    0    0 -0.14162245907E+02  0.44009927520E+03  0.48518618900E+03  0.65520499024E+03  0.00000000000E+00 0.  1.
</event>
<event>
 7    1  0.4402832E-005  0.3693653E+03  0.7818608E-02  0.1096365E+00
          2   -1    0    0  502    0  0.00000000000E+00  0.00000000000E+00  0.19119761780E+04  0.19119761780E+04  0.00000000000E+00 0. -1.
          1   -1    0    0  501    0 -0.00000000000E+00 -0.00000000000E+00 -0.13171272243E+04  0.13171272243E+04  0.00000000000E+00 0. -1.
         25    2    1    2    0    0  0.19214099693E+03  0.37175243064E+03 -0.10796442180E+03  0.44988921958E+03  0.12500384449E+03 0.  0.
          2    1    1    2  501    0  0.18223641972E+02 -0.36850147864E+03 -0.99873658981E+03  0.10647066341E+04  0.00000000000E+00 0. -1.
          1    1    1    2  502    0 -0.21036463890E+03 -0.32509520000E+01  0.17015499653E+04  0.17145075487E+04  0.00000000000E+00 0. -1.
         22    1    3    3    0    0  0.57123568262E+02  0.15219238834E+03 -0.10230875549E+03  0.19207474214E+03  0.00000000000E+00 0.  1.
         22    1    3    3    0    0  0.13501742866E+03  0.21956004230E+03 -0.56556663158E+01  0.25781447744E+03  0.00000000000E+00 0.  1.
</event>
<event>
 7    1  0.4402832E-005  0.6707761E+03  0.7818608E-02  0.1116519E+00
          2   -1    0    0  502    0  0.00000000000E+00  0.00000000000E+00  0.13302525039E+04  0.13302525039E+04  0.00000000000E+00 0. -1.
          1   -1    0    0  501    0 -0.00000000000E+00 -0.00000000000E+00 -0.10017437248E+04  0.10017437248E+04  0.00000000000E+00 0. -1.
         25    2    1    2    0    0  0.16480230850E+03  0.59129545291E+03  0.99907564725E+02  0.63434915623E+03  0.12500886769E+03 0.  0.
          2    1    1    2  501    0  0.53459061993E+02  0.71744533412E+02 -0.60431617062E+03  0.61090357951E+03  0.00000000000E+00 0. -1.
          1    1    1    2  502    0 -0.21826137049E+03 -0.66303998632E+03  0.83291738501E+03  0.10867434930E+04  0.00000000000E+00 0. -1.
         22    1    3    3    0    0  0.14709909726E+03  0.54450950435E+03  0.12599759456E+03  0.57793091159E+03  0.00000000000E+00 0.  1.
         22    1    3    3    0    0  0.17703211241E+02  0.46785948567E+02 -0.26090029836E+02  0.56418244641E+02  0.00000000000E+00 0.  1.
</event>
<event>
 7    1  0.4402832E-005  0.6395102E+03  0.7818608E-02  0.1105259E+00
          2   -1    0    0  502    0  0.00000000000E+00  0.00000000000E+00  0.13387948764E+04  0.13387948764E+04  0.00000000000E+00 0. -1.
          1   -1    0    0  501    0 -0.00000000000E+00 -0.00000000000E+00 -0.21093008227E+04  0.21093008227E+04  0.00000000000E+00 0. -1.
         25    2    1    2    0    0  0.28117409078E+03  0.62244673670E+03 -0.59995934733E+03  0.91764648864E+03  0.12500020130E+03 0.  0.
          2    1    1    2  501    0 -0.33108121991E+03 -0.52634036404E+03 -0.12761367063E+04  0.14195681900E+04  0.00000000000E+00 0. -1.
          1    1    1    2  502    0  0.49907129133E+02 -0.96106372659E+02  0.11055901073E+04  0.11108810205E+04  0.00000000000E+00 0. -1.
         22    1    3    3    0    0  0.19547654421E+03  0.43284383269E+03 -0.48964493241E+03  0.68214149754E+03  0.00000000000E+00 0.  1.
         22    1    3    3    0    0  0.85697546566E+02  0.18960290401E+03 -0.11031441492E+03  0.23550499111E+03  0.00000000000E+00 0.  1.
</event>
<event>
 7    1  0.4402832E-005  0.1253112E+03  0.7818608E-02  0.1242446E+00
          2   -1    0    0  502    0  0.00000000000E+00  0.00000000000E+00  0.24648372030E+04  0.24648372030E+04  0.00000000000E+00 0. -1.
          1   -1    0    0  501    0 -0.00000000000E+00 -0.00000000000E+00 -0.13163833960E+03  0.13163833960E+03  0.00000000000E+00 0. -1.
         25    2    1    2    0    0  0.15661288574E+03 -0.12409496047E+02  0.38490459930E+03  0.43411790104E+03  0.12500083947E+03 0.  0.
          2    1    1    2  501    0 -0.77326488423E+02 -0.86028025256E+02 -0.73217734363E+02  0.13689793120E+03  0.00000000000E+00 0. -1.
          1    1    1    2  502    0 -0.79286397317E+02  0.98437521303E+02  0.20215119985E+04  0.20254597104E+04  0.00000000000E+00 0. -1.
         22    1    3    3    0    0  0.13738152203E+03  0.34506018199E+02  0.22054763319E+03  0.26211754308E+03  0.00000000000E+00 0. -1.
         22    1    3    3    0    0  0.19231363710E+02 -0.46915514246E+02  0.16435696611E+03  0.17200035796E+03  0.00000000000E+00 0. -1.
</event>
<event>
 7    1  0.4402832E-005  0.3999105E+03  0.7818608E-02  0.1101547E+00
          2   -1    0    0  502    0  0.00000000000E+00  0.00000000000E+00  0.21857307001E+04  0.21857307001E+04  0.00000000000E+00 0. -1.
          1   -1    0    0  501    0 -0.00000000000E+00 -0.00000000000E+00 -0.37271050405E+04  0.37271050405E+04  0.00000000000E+00 0. -1.
         25    2    1    2    0    0 -0.44811778713E+03 -0.18716486123E+03  0.62436734171E+02  0.50533620725E+03  0.12500440059E+03 0.  0.
          2    1    1    2  501    0  0.28844741910E+03  0.27380499628E+03 -0.34899975768E+04  0.35125851129E+04  0.00000000000E+00 0. -1.
          1    1    1    2  502    0  0.15967036803E+03 -0.86640135049E+02  0.18861865022E+04  0.18949144204E+04  0.00000000000E+00 0. -1.
         22    1    3    3    0    0 -0.29901749948E+03 -0.85903456832E+02 -0.95446309171E+01  0.31125868481E+03  0.00000000000E+00 0. -1.
         22    1    3    3    0    0 -0.14910028765E+03 -0.10126140440E+03  0.71981365088E+02  0.19407752245E+03  0.00000000000E+00 0. -1.
</event>
<event>
 7    1  0.4402832E-005  0.8918957E+03  0.7818608E-02  0.9877129E-01
          2   -1    0    0  502    0  0.00000000000E+00  0.00000000000E+00  0.20437375901E+04  0.20437375901E+04  0.00000000000E+00 0. -1.
          1   -1    0    0  501    0 -0.00000000000E+00 -0.00000000000E+00 -0.16340917946E+04  0.16340917946E+04  0.00000000000E+00 0. -1.
         25    2    1    2    0    0  0.11142585548E+04  0.43587054948E+03 -0.29978872125E+02  0.12033618335E+04  0.12500282690E+03 0.  0.
          2    1    1    2  501    0 -0.69215351480E+03 -0.41876971073E+03 -0.81638482177E+03  0.11493166387E+04  0.00000000000E+00 0. -1.
          1    1    1    2  502    0 -0.42210503997E+03 -0.17100838754E+02  0.12560094894E+04  0.13251509125E+04  0.00000000000E+00 0. -1.
         22    1    3    3    0    0  0.15573610998E+03  0.47099327530E+02  0.36913755625E+02  0.16683736980E+03  0.00000000000E+00 0.  1.
         22    1    3    3    0    0  0.95852244479E+03  0.38877122195E+03 -0.66892627750E+02  0.10365244637E+04  0.00000000000E+00 0.  1.
</event>
<event>
 7    1  0.4402832E-005  0.8684701E+03  0.7818608E-02  0.1139596E+00
          2   -1    0    0  502    0  0.00000000000E+00  0.00000000000E+00  0.25511940358E+04  0.25511940358E+04  0.00000000000E+00 0. -1.
          1   -1    0    0  501    0 -0.00000000000E+00 -0.00000000000E+00 -0.18512710987E+04  0.18512710987E+04  0.00000000000E+00 0. -1.
         25    2    1    2    0    0 -0.18594596884E+03  0.85572662525E+03  0.11753206155E+04  0.14710024333E+04  0.12500259572E+03 0.  0.
          2    1    1    2  501    0  0.23399468834E+03 -0.83584797009E+03 -0.15922156534E+04  0.18134348707E+04  0.00000000000E+00 0. -1.
          1    1    1    2  502    0 -0.48048719501E+02 -0.19878655166E+02  0.11168179751E+04  0.11180278305E+04  0.00000000000E+00 0. -1.
         22    1    3    3    0    0 -0.16828795879E+03  0.84875080955E+03  0.11439903866E+04  0.14343684249E+04  0.00000000000E+00 0. -1.
         22    1    3    3    0    0 -0.17658010050E+02  0.69758157038E+01  0.31330228916E+02  0.36634008348E+02  0.00000000000E+00 0. -1.
</event>
<event>
 7    1  0.4402832E-005  0.6717213E+03  0.7818608E-02  0.1074606E+00
          2   -1    0    0  502    0  0.00000000000E+00  0.00000000000E+00  0.24646845356E+04  0.24646845356E+04  0.00000000000E+00 0. -1.
          1   -1    0    0  501    0 -0.00000000000E+00 -0.00000000000E+00 -0.17193593888E+04  0.17193593888E+04  0.00000000000E+00 0. -1.
         25    2    1    2    0    0 -0.76811101025E+02 -0.70139816462E+03  0.16634159660E+04  0.18111976922E+04  0.12500029485E+03 0.  0.
          2    1    1    2  501    0  0.12931703239E+03  0.84765416493E+02 -0.15091648370E+04  0.15170651192E+04  0.00000000000E+00 0. -1.
          1    1    1    2  502    0 -0.52505931365E+02  0.61663274813E+03  0.59107401786E+03  0.85578111307E+03  0.00000000000E+00 0. -1.
         22    1    3    3    0    0 -0.42314100637E+02 -0.30748494095E+03  0.57914489129E+03  0.65707402713E+03  0.00000000000E+00 0. -1.
         22    1    3    3    0    0 -0.34497000388E+02 -0.39391322367E+03  0.10842710747E+04  0.11541236650E+04  0.00000000000E+00 0. -1.
</event>
<event>
 7    1  0.4402832E-005  0.4990026E+02  0.7818608E-02  0.1482883E+00
          2   -1    0    0  502    0  0.00000000000E+00  0.00000000000E+00  0.23532896596E+03  0.23532896596E+03  0.00000000000E+00 0. -1.
          1   -1    0    0  501    0 -0.00000000000E+00 -0.00000000000E+00 -0.77545313042E+02  0.77545313042E+02  0.00000000000E+00 0. -1.
         25    2    1    2    0    0 -0.60787041772E+01 -0.39302720262E+02  0.13936174289E+02  0.13191273631E+03  0.12500039433E+03 0.  0.
          2    1    1    2  501    0  0.39764449698E+02  0.57317950523E+02  0.10802608989E+03  0.12859313749E+03  0.00000000000E+00 0. -1.
          1    1    1    2  502    0 -0.33685745521E+02 -0.18015230261E+02  0.35821388736E+02  0.52368405204E+02  0.00000000000E+00 0. -1.
         22    1    3    3    0    0  0.11815477217E+01  0.37279489790E+02 -0.25779010831E+02  0.45339980298E+02  0.00000000000E+00 0. -1.
         22    1    3    3    0    0 -0.72602518988E+01 -0.76582210052E+02  0.39715185119E+02  0.86572756010E+02  0.00000000000E+00 0. -1.
</event>
<event>
 7    1  0.4402832E-005  0.7126192E+02  0.7818608E-02  0.1378464E+00
          2   -1    0    0  502    0  0.00000000000E+00  0.00000000000E+00  0.20027522158E+04  0.20027522158E+04  0.00000000000E+00 0. -1.
          1   -1    0    0  501    0 -0.00000000000E+00 -0.00000000000E+00 -0.99682781964E+03  0.99682781964E+03  0.00000000000E+00 0. -1.
         25    2    1    2    0    0 -0.65989675853E+02  0.22246340514E+02  0.45966089825E+03  0.48141772403E+03  0.12500138656E+03 0.  0.
          2    1    1    2  501    0  0.26960090927E+01 -0.58988507863E+02 -0.98419005422E+03  0.98595992584E+03  0.00000000000E+00 0. -1.
          1    1    1    2  502    0  0.63293666760E+02  0.36742167349E+02  0.15304535521E+04  0.15322023856E+04  0.00000000000E+00 0. -1.
         22    1    3    3    0    0 -0.49299201707E+01 -0.36611341841E+02  0.45233912814E+02  0.58402066168E+02  0.00000000000E+00 0. -1.
         22    1    3    3    0    0 -0.61059755682E+02  0.58857682354E+02  0.41442698544E+03  0.42301565786E+03  0.00000000000E+00 0. -1.
</event>
<event>
 7    1  0.4402832E-005  0.2922779E+03  0.7818608E-02  0.1122535E+00
          2   -1    0    0  502    0  0.00000000000E+00  0.00000000000E+00  0.18416166922E+04  0.18416166922E+04  0.00000000000E+00 0. -1.
          1   -1    0    0  501    0 -0.00000000000E+00 -0.00000000000E+00 -0.61761013913E+03  0.61761013913E+03  0.00000000000E+00 0. -1.
         25    2    1    2    0    0 -0.29811250328E+03  0.40000941936E+02  0.26191748719E+03  0.41797211220E+03  0.12501510514E+03 0.  0.
          2    1    1    2  501    0  0.25943939700E+03  0.14647519003E+03 -0.49176771960E+03  0.57497762743E+03  0.00000000000E+00 0. -1.
          1    1    1    2  502    0  0.38673106286E+02 -0.18647613196E+03  0.14538567855E+04  0.14662770917E+04  0.00000000000E+00 0. -1.
         22    1    3    3    0    0 -0.26881114280E+03 -0.63850332370E+01  0.19915053315E+03  0.33460593837E+03  0.00000000000E+00 0.  1.
         22    1    3    3    0    0 -0.29301360486E+02  0.46385975173E+02  0.62766954039E+02  0.83366173826E+02  0.00000000000E+00 0.  1.
</event>
<event>
 7    1  0.4402832E-005  0.1340745E+04  0.7818608E-02  0.1149347E+00
          2   -1    0    0  502    0  0.00000000000E+00  0.00000000000E+00  0.13477401331E+04  0.13477401331E+04  0.00000000000E+00 0. -1.
          1   -1    0    0  501    0 -0.00000000000E+00 -0.00000000000E+00 -0.27370567607E+04  0.27370567607E+04  0.00000000000E+00 0. -1.
         25    2    1    2    0    0  0.10609758977E+04 -0.81066323393E+03  0.65150666761E+03  0.14909497885E+04  0.12500239762E+03 0.  0.
          2    1    1    2  501    0  0.29034974929E+02 -0.74409243624E+01 -0.63550477569E+03  0.63621122047E+03  0.00000000000E+00 0. -1.
          1    1    1    2  502    0 -0.10900108726E+04  0.81810415830E+03 -0.14053185195E+04  0.19576358848E+04  0.00000000000E+00 0. -1.
         22    1    3    3    0    0  0.51989808960E+03 -0.47094981425E+03  0.36498904661E+03  0.79076213570E+03  0.00000000000E+00 0.  1.
         22    1    3    3    0    0  0.54107780809E+03 -0.33971341968E+03  0.28651762100E+03  0.70018765276E+03  0.00000000000E+00 0.  1.
</event>
<event>
 7    1  0.4402832E-005  0.1852160E+03  0.7818608E-02  0.1383242E+00
          2   -1    0    0  502    0  0.00000000000E+00  0.00000000000E+00  0.13753297754E+04  0.13753297754E+04  0.00000000000E+00 0. -1.
          1   -1    0    0  501    0 -0.00000000000E+00 -0.00000000000E+00 -0.17950509238E+03  0.17950509238E+03  0.00000000000E+00 0. -1.
         25    2    1    2    0    0  0.56006099555E+02  0.17706245965E+03  0.12965322140E+04  0.13157158167E+04  0.12499812229E+03 0.  0.
          2    1    1    2  501    0  0.17737068194E+02 -0.12764111452E+02 -0.45962931808E+02  0.50893194335E+02  0.00000000000E+00 0. -1.
          1    1    1    2  502    0 -0.73743167749E+02 -0.16429834819E+03 -0.54744599174E+02  0.18822585675E+03  0.00000000000E+00 0. -1.
         22    1    3    3    0    0 -0.24038357443E+01 -0.18852995270E+02  0.13470276987E+03  0.13603694376E+03  0.00000000000E+00 0.  1.
         22    1    3    3    0    0  0.58409935299E+02  0.19591545492E+03  0.11618294441E+04  0.11796788729E+04  0.00000000000E+00 0.  1.
</event>
<event>
 7    1  0.4402832E-005  0.7921960E+02  0.7818608E-02  0.1453071E+00
          2   -1    0    0  502    0  0.00000000000E+00  0.00000000000E+00  0.10005678827E+04  0.10005678827E+04  0.00000000000E+00 0. -1.
          1   -1    0    0  501    0 -0.00000000000E+00 -0.00000000000E+00 -0.32714066121E+03  0.32714066121E+03  0.00000000000E+00 0. -1.
         25    2    1    2    0    0 -0.67120773534E+02 -0.84694123258E+02 -0.13817914068E+02  0.16581390923E+03  0.12500009997E+03 0.  0.
          2    1    1    2  501    0  0.21684180035E+02  0.20454454913E+02 -0.23470625654E+03  0.23659166353E+03  0.00000000000E+00 0. -1.
          1    1    1    2  502    0  0.45436593499E+02  0.64239668345E+02  0.92195139208E+03  0.92530297112E+03  0.00000000000E+00 0. -1.
         22    1    3    3    0    0 -0.92336568758E+02 -0.85170186905E+02  0.16142656550E+02  0.12665144306E+03  0.00000000000E+00 0. -1.
         22    1    3    3    0    0  0.25215795224E+02  0.47606364638E+00 -0.29960570618E+02  0.39162466178E+02  0.00000000000E+00 0. -1.
</event>
<event>
 7    1  0.4402832E-005  0.5549760E+03  0.7818608E-02  0.1104616E+00
          2   -1    0    0  502    0  0.00000000000E+00  0.00000000000E+00  0.17092050401E+04  0.17092050401E+04  0.00000000000E+00 0. -1.
          1   -1    0    0  501    0 -0.00000000000E+00 -0.00000000000E+00 -0.40750751463E+03  0.40750751463E+03  0.00000000000E+00 0. -1.
         25    2    1    2    0    0 -0.16699464793E+03  0.50887912157E+03  0.11450613324E+03  0.56176623293E+03  0.12499789237E+03 0.  0.
          2    1    1    2  501    0  0.29278321999E+03 -0.51176336055E+03  0.30497414328E+03  0.66380191260E+03  0.00000000000E+00 0. -1.
          1    1    1    2  502    0 -0.12578857205E+03  0.28842389735E+01  0.88221724891E+03  0.89114440915E+03  0.00000000000E+00 0. -1.
         22    1    3    3    0    0 -0.55893243248E+02  0.16096996211E+03  0.97126003691E+02  0.19613475963E+03  0.00000000000E+00 0. -1.
         22    1    3    3    0    0 -0.11110140468E+03  0.34790915947E+03  0.17380129548E+02  0.36563147330E+03  0.00000000000E+00 0. -1.
</event>
<event>
 7    1  0.4402832E-005  0.3920236E+03  0.7818608E-02  0.1209589E+00
          2   -1    0    0  502    0  0.00000000000E+00  0.00000000000E+00  0.65687454901E+03  0.65687454901E+03  0.00000000000E+00 0. -1.
          1   -1    0    0  501    0 -0.00000000000E+00 -0.00000000000E+00 -0.15144234484E+04  0.15144234484E+04  0.00000000000E+00 0. -1.
         25    2    1    2    0    0  0.53980220613E+02  0.41360770481E+03  0.23632728971E+03  0.49543147831E+03  0.12496625202E+03 0.  0.
          2    1    1    2  501    0  0.13399035456E+02 -0.50273769828E+02 -0.12668074473E+04  0.12678754255E+04  0.00000000000E+00 0. -1.
          1    1    1    2  502    0 -0.67379256069E+02 -0.36333393498E+03  0.17293125813E+03  0.40799109365E+03  0.00000000000E+00 0. -1.
         22    1    3    3    0    0 -0.28266296103E+02  0.15411951407E+03  0.46070527774E+02  0.16332269176E+03  0.00000000000E+00 0. -1.
         22    1    3    3    0    0  0.82246516716E+02  0.25948819074E+03  0.19025676194E+03  0.33210878655E+03  0.00000000000E+00 0. -1.
</event>
<event>
 7    1  0.4402832E-005  0.7156695E+03  0.7818608E-02  0.1034465E+00
          2   -1    0    0  502    0  0.00000000000E+00  0.00000000000E+00  0.27475324619E+04  0.27475324619E+04  0.00000000000E+00 0. -1.
          1   -1    0    0  501    0 -0.00000000000E+00 -0.00000000000E+00 -0.15614083729E+04  0.15614083729E+04  0.00000000000E+00 0. -1.
         25    2    1    2    0    0  0.73168481782E+03 -0.47574404491E+03  0.32325136259E+03  0.93904822021E+03  0.12500019029E+03 0.  0.
          2    1    1    2  501    0 -0.65502304679E+03  0.23141788252E+03 -0.11485135895E+04  0.13422715423E+04  0.00000000000E+00 0. -1.
          1    1    1    2  502    0 -0.76661771033E+02  0.24432616239E+03  0.20113863159E+04  0.20276210723E+04  0.00000000000E+00 0. -1.
         22    1    3    3    0    0  0.22548733863E+03 -0.21738307208E+03  0.12257396965E+03  0.33633958724E+03  0.00000000000E+00 0.  1.
         22    1    3    3    0    0  0.50619747919E+03 -0.25836097283E+03  0.20067739293E+03  0.60270863297E+03  0.00000000000E+00 0.  1.
</event>
<event>
 7    1  0.4402832E-005  0.1773475E+03  0.7818608E-02  0.1323979E+00
          2   -1    0    0  502    0  0.00000000000E+00  0.00000000000E+00  0.11396589733E+04  0.11396589733E+04  0.00000000000E+00 0. -1.
          1   -1    0    0  501    0 -0.00000000000E+00 -0.00000000000E+00 -0.21057721926E+04  0.21057721926E+04  0.00000000000E+00 0. -1.
         25    2    1    2    0    0  0.19946631665E+03 -0.52536780775E+02 -0.78971190347E+03  0.82572183319E+03  0.12499892207E+03 0.  0.
          2    1    1    2  501    0 -0.16334661884E+03  0.41586611478E+02 -0.12922629657E+04  0.13032095520E+04  0.00000000000E+00 0. -1.
          1    1    1    2  502    0 -0.36119697813E+02  0.10950169297E+02  0.11158616498E+04  0.11164997807E+04  0.00000000000E+00 0. -1.
         22    1    3    3    0    0  0.20554459149E+03 -0.19940039153E+02 -0.64469027536E+03  0.67695770577E+03  0.00000000000E+00 0.  1.
         22    1    3    3    0    0 -0.60782748416E+01 -0.32596741622E+02 -0.14502162811E+03  0.14876412743E+03  0.00000000000E+00 0.  1.
</event>
<event>
 7    1  0.4402832E-005  0.8710536E+03  0.7818608E-02  0.1147770E+00
          2   -1    0    0  502    0  0.00000000000E+00  0.00000000000E+00  0.46874515926E+03  0.46874515926E+03  0.00000000000E+00 0. -1.
          1   -1    0    0  501    0 -0.00000000000E+00 -0.00000000000E+00 -0.36156263879E+04  0.36156263879E+04  0.00000000000E+00 0. -1.
         25    2    1    2    0    0  0.47115977530E+03 -0.69817851375E+03 -0.11134174618E+04  0.14017018123E+04  0.12499902194E+03 0.  0.
          2    1    1    2  501    0 -0.48647932930E+03  0.74261985907E+03 -0.22721343070E+04  0.24394140080E+04  0.00000000000E+00 0. -1.
          1    1    1    2  502    0  0.15319554002E+02 -0.44441345318E+02  0.23867054020E+03  0.24325572690E+03  0.00000000000E+00 0. -1.
         22    1    3    3    0    0  0.48948639521E+02 -0.14980815321E+03 -0.17227706445E+03  0.23349055445E+03  0.00000000000E+00 0. -1.
         22    1    3    3    0    0  0.42221113578E+03 -0.54837036054E+03 -0.94114039735E+03  0.11682112579E+04  0.00000000000E+00 0. -1.
</event>
<event>
 7    1  0.4402832E-005  0.2421299E+03  0.7818608E-02  0.1301121E+00
          2   -1    0    0  502    0  0.00000000000E+00  0.00000000000E+00  0.15154511402E+04  0.15154511402E+04  0.00000000000E+00 0. -1.
          1   -1    0    0  501    0 -0.00000000000E+00 -0.00000000000E+00 -0.92290992679E+02  0.92290992679E+02  0.00000000000E+00 0. -1.
         25    2    1    2    0    0 -0.84336323628E+02 -0.20732938103E+03  0.10822614593E+04  0.11122110322E+04  0.12500170484E+03 0.  0.
          2    1    1    2  501    0  0.11723329286E+03  0.21587775127E+03  0.12250341653E+03  0.27450671305E+03  0.00000000000E+00 0. -1.
          1    1    1    2  502    0 -0.32896969228E+02 -0.85483702355E+01  0.21839527171E+03  0.22102438762E+03  0.00000000000E+00 0. -1.
         22    1    3    3    0    0 -0.59912799474E+01 -0.21160120684E+02  0.16539158803E+02  0.27517084087E+02  0.00000000000E+00 0. -1.
         22    1    3    3    0    0 -0.78345043681E+02 -0.18616926035E+03  0.10657223005E+04  0.10846939481E+04  0.00000000000E+00 0. -1.
</event>
<event>
 7    1  0.4402832E-005  0.2310106E+03  0.7818608E-02  0.1241164E+00
          2   -1    0    0  502    0  0.00000000000E+00  0.00000000000E+00  0.10292337313E+04  0.10292337313E+04  0.00000000000E+00 0. -1.
          1   -1    0    0  501    0 -0.00000000000E+00 -0.00000000000E+00 -0.92392794870E+03  0.92392794870E+03  0.00000000000E+00 0. -1.
         25    2    1    2    0    0 -0.49732263635E+02  0.23531418237E+03 -0.82848679145E+03  0.87170016665E+03  0.12499901781E+03 0.  0.
          2    1    1    2  501    0  0.58546607039E+02 -0.17236196281E+03  0.41238340351E+02  0.18664659690E+03  0.00000000000E+00 0. -1.
          1    1    1    2  502    0 -0.88143434040E+01 -0.62952219554E+02  0.89255423366E+03  0.89481491641E+03  0.00000000000E+00 0. -1.
         22    1    3    3    0    0 -0.12635749834E+02  0.20370266300E+03 -0.50696359678E+03  0.54650391174E+03  0.00000000000E+00 0. -1.
         22    1    3    3    0    0 -0.37096513801E+02  0.31611519363E+02 -0.32152319467E+03  0.32519625491E+03  0.00000000000E+00 0. -1.
</event>
<event>
 7    1  0.4402832E-005  0.6856582E+03  0.7818608E-02  0.1159414E+00
          2   -1    0    0  502    0  0.00000000000E+00  0.00000000000E+00  0.62796126062E+03  0.62796126062E+03  0.00000000000E+00 0. -1.
          1   -1    0    0  501    0 -0.00000000000E+00 -0.00000000000E+00 -0.91331886597E+03  0.91331886597E+03  0.00000000000E+00 0. -1.
         25    2    1    2    0    0 -0.17220602226E+03 -0.66240311960E+03  0.10411342167E+03  0.70348933158E+03  0.12499931245E+03 0.  0.
          2    1    1    2  501    0  0.22274508439E+03  0.64987611157E+03 -0.34235059249E+03  0.76756645392E+03  0.00000000000E+00 0. -1.
          1    1    1    2  502    0 -0.50539062131E+02  0.12527008028E+02 -0.47120434534E+02  0.70224341092E+02  0.00000000000E+00 0. -1.
         22    1    3    3    0    0 -0.16090630802E+03 -0.37836976575E+03  0.72069501811E+02  0.41743087174E+03  0.00000000000E+00 0.  1.
         22    1    3    3    0    0 -0.11299714238E+02 -0.28403335385E+03  0.32043919862E+02  0.28605845983E+03  0.00000000000E+00 0.  1.
</event>
<event>
 7    1  0.4402832E-005  0.1768359E+03  0.7818608E-02  0.1287043E+00
          2   -1    0    0  502    0  0.00000000000E+00  0.00000000000E+00  0.14890094227E+04  0.14890094227E+04  0.00000000000E+00 0. -1.
          1   -1    0    0  501    0 -0.00000000000E+00 -0.00000000000E+00 -0.10146023582E+04  0.10146023582E+04  0.00000000000E+00 0. -1.
         25    2    1    2    0    0 -0.44516705228E+01 -0.12965634227E+03  0.47725474133E+03  0.51012287317E+03  0.12499069225E+03 0.  0.
          2    1    1    2  501    0  0.32667965240E+02  0.17458348464E+03 -0.98954890660E+03  0.10053624360E+04  0.00000000000E+00 0. -1.
          1    1    1    2  502    0 -0.28216294717E+02 -0.44927142366E+02  0.98670122976E+03  0.98812647177E+03  0.00000000000E+00 0. -1.
         22    1    3    3    0    0 -0.20484733306E+02 -0.62087624746E+02  0.65474392871E+02  0.92527798888E+02  0.00000000000E+00 0. -1.
         22    1    3    3    0    0  0.16033062783E+02 -0.67568717527E+02  0.41178034845E+03  0.41759507428E+03  0.00000000000E+00 0. -1.
</event>
<event>
 7    1  0.4402832E-005  0.2292515E+03  0.7818608E-02  0.1129132E+00
          2   -1    0    0  502    0  0.00000000000E+00  0.00000000000E+00  0.44444335701E+03  0.44444335701E+03  0.00000000000E+00 0. -1.
          1   -1    0    0  501    0 -0.00000000000E+00 -0.00000000000E+00 -0.38720534644E+03  0.38720534644E+03  0.00000000000E+00 0. -1.
         25    2    1    2    0    0  0.13616989710E+02 -0.18244869466E+03  0.16814859604E+03  0.27815691574E+03  0.12499748330E+03 0.  0.
          2    1    1    2  501    0 -0.23140450847E+03  0.13105162817E+03 -0.17784651031E+03  0.31992492403E+03  0.00000000000E+00 0. -1.
          1    1    1    2  502    0  0.21778751876E+03  0.51397066485E+02  0.66935924844E+02  0.23356686368E+03  0.00000000000E+00 0. -1.
         22    1    3    3    0    0  0.10445581214E+01 -0.84162187107E+02  0.13892224877E+01  0.84180132926E+02  0.00000000000E+00 0. -1.
         22    1    3    3    0    0  0.12572431589E+02 -0.98286507552E+02  0.16675937355E+03  0.19397678281E+03  0.00000000000E+00 0. -1.
</event>
<event>
 7    1  0.4402832E-005  0.4759763E+03  0.7818608E-02  0.1182500E+00
          2   -1    0    0  502    0  0.00000000000E+00  0.00000000000E+00  0.10084767464E+04  0.10084767464E+04  0.00000000000E+00 0. -1.
          1   -1    0    0  501    0 -0.00000000000E+00 -0.00000000000E+00 -0.12927888404E+04  0.12927888404E+04  0.00000000000E+00 0. -1.
         25    2    1    2    0    0 -0.18383848047E+03 -0.40810769854E+03  0.52618490561E+02  0.46769800401E+03  0.12499694755E+03 0.  0.
          2    1    1    2  501    0 -0.55184311465E+02 -0.16592476968E+02 -0.10049908491E+04  0.10066415575E+04  0.00000000000E+00 0. -1.
          1    1    1    2  502    0  0.23902279193E+03  0.42470017551E+03  0.66806026458E+03  0.82692602526E+03  0.00000000000E+00 0. -1.
         22    1    3    3    0    0 -0.19889099794E+03 -0.33139508886E+03  0.46470014023E+02  0.38928112744E+03  0.00000000000E+00 0. -1.
         22    1    3    3    0    0  0.15052517472E+02 -0.76712609688E+02  0.61484765380E+01  0.78416876571E+02  0.00000000000E+00 0. -1.
</event>
<event>
 7    1  0.4402832E-005  0.9787111E+02  0.7818608E-02  0.1332679E+00
          2   -1    0    0  502    0  0.00000000000E+00  0.00000000000E+00  0.25702302207E+03  0.25702302207E+03  0.00000000000E+00 0. -1.
          1   -1    0    0  501    0 -0.00000000000E+00 -0.00000000000E+00 -0.86278339016E+03  0.86278339016E+03  0.00000000000E+00 0. -1.
         25    2    1    2    0    0 -0.87673896828E+02 -0.12300733616E+02 -0.72342599097E+03  0.73946467395E+03  0.12499927752E+03 0.  0.
          2    1    1    2  501    0  0.15070584463E+03  0.60490464610E+01 -0.81435642724E+02  0.17140771999E+03  0.00000000000E+00 0. -1.
          1    1    1    2  502    0 -0.63031947797E+02  0.62516871549E+01  0.19910126560E+03  0.20893401829E+03  0.00000000000E+00 0. -1.
         22    1    3    3    0    0  0.29010409697E+02  0.15829941259E+02 -0.14544701159E+03  0.14915436330E+03  0.00000000000E+00 0.  1.
         22    1    3    3    0    0 -0.11668430653E+03 -0.28130674875E+02 -0.57797897938E+03  0.59031031065E+03  0.00000000000E+00 0.  1.
</event>
<event>
 7    1  0.4402832E-005  0.2680487E+03  0.7818608E-02  0.1248250E+00
          2   -1    0    0  502    0  0.00000000000E+00  0.00000000000E+00  0.95214985413E+03  0.95214985413E+03  0.00000000000E+00 0. -1.
          1   -1    0    0  501    0 -0.00000000000E+00 -0.00000000000E+00 -0.12243267338E+04  0.12243267338E+04  0.00000000000E+00 0. -1.
         25    2    1    2    0    0  0.16677987220E+03  0.21353130107E+03 -0.11657101999E+04  0.12032946844E+04  0.12500674002E+03 0.  0.
          2    1    1    2  501    0 -0.13681019101E+03 -0.17225653710E+03  0.27319013831E+03  0.35074519898E+03  0.00000000000E+00 0. -1.
          1    1    1    2  502    0 -0.29969681193E+02 -0.41274763977E+02  0.62034318187E+03  0.62243670459E+03  0.00000000000E+00 0. -1.
         22    1    3    3    0    0  0.68358709573E+02  0.82670250652E+02 -0.23547164198E+03  0.25875505347E+03  0.00000000000E+00 0.  1.
         22    1    3    3    0    0  0.98421162630E+02  0.13086105042E+03 -0.93023855787E+03  0.94453963089E+03  0.00000000000E+00 0.  1.
</event>
<event>
 7    1  0.4402832E-005  0.7120469E+03  0.7818608E-02  0.1048375E+00
          2   -1    0    0  502    0  0.00000000000E+00  0.00000000000E+00  0.27135708528E+04  0.27135708528E+04  0.00000000000E+00 0. -1.
          1   -1    0    0  501    0 -0.00000000000E+00 -0.00000000000E+00 -0.97758749464E+03  0.97758749464E+03  0.00000000000E+00 0. -1.
         25    2    1    2    0    0  0.66479287063E+03  0.22892503465E+02  0.17058178669E+04  0.18351875728E+04  0.12500081834E+03 0.  0.
          2    1    1    2  501    0  0.19277806721E+03 -0.84140280763E+02 -0.69817975421E+03  0.72917620589E+03  0.00000000000E+00 0. -1.
          1    1    1    2  502    0 -0.85757093784E+03  0.61247777298E+02  0.72834524546E+03  0.11267945688E+04  0.00000000000E+00 0. -1.
         22    1    3    3    0    0  0.19466401856E+03 -0.48927112980E+02  0.53993608924E+03  0.57603725832E+03  0.00000000000E+00 0.  1.
         22    1    3    3    0    0  0.47012885208E+03  0.71819616445E+02  0.11658817777E+04  0.12591503144E+04  0.00000000000E+00 0.  1.
</event>
<event>
 7    1  0.4402832E-005  0.1908589E+03  0.7818608E-02  0.1205237E+00
          2   -1    0    0  502    0  0.00000000000E+00  0.00000000000E+00  0.23345907448E+04  0.23345907448E+04  0.00000000000E+00 0. -1.
          1   -1    0    0  501    0 -0.00000000000E+00 -0.00000000000E+00 -0.19157544212E+03  0.19157544212E+03  0.00000000000E+00 0. -1.
         25    2    1    2    0    0 -0.10768316670E+03 -0.14006007484E+03  0.67194955654E+02  0.22661153866E+03  0.12500055373E+03 0.  0.
          2    1    1    2  501    0  0.19891494763E+03  0.75139411331E+02 -0.79458857344E+01  0.21278210599E+03  0.00000000000E+00 0. -1.
          1    1    1    2  502    0 -0.91231780937E+02  0.64920663509E+02  0.20837662327E+04  0.20867725423E+04  0.00000000000E+00 0. -1.
         22    1    3    3    0    0 -0.18520543783E+02 -0.98679810042E+01  0.65527196720E+02  0.68805531035E+02  0.00000000000E+00 0.  1.
         22    1    3    3    0    0 -0.89162622914E+02 -0.13019209384E+03  0.16677589341E+01  0.15780600762E+03  0.00000000000E+00 0.  1.
</event>
<event>
 7    1  0.4402832E-005  0.6451446E+02  0.7818608E-02  0.1412115E+00
          2   -1    0    0  502    0  0.00000000000E+00  0.00000000000E+00  0.15080466457E+03  0.15080466457E+03  0.00000000000E+00 0. -1.
          1   -1    0    0  501    0 -0.00000000000E+00 -0.00000000000E+00 -0.40173558586E+03  0.40173558586E+03  0.00000000000E+00 0. -1.
         25    2    1    2    0    0  0.22215057896E+02  0.11436279533E+02  0.35935812422E+02  0.13244450073E+03  0.12500346344E+03 0.  0.
          2    1    1    2  501    0 -0.64517862253E+02  0.14983721490E+02 -0.34048462591E+03  0.34686718920E+03  0.00000000000E+00 0. -1.
          1    1    1    2  502    0  0.42302804357E+02 -0.26420001023E+02  0.53617892198E+02  0.73228560509E+02  0.00000000000E+00 0. -1.
         22    1    3    3    0    0  0.25390525702E+02 -0.49093846208E+02  0.44850590738E+02  0.71179070101E+02  0.00000000000E+00 0.  1.
         22    1    3    3    0    0 -0.31754678053E+01  0.60530125741E+02 -0.89147783165E+01  0.61265430632E+02  0.00000000000E+00 0.  1.
</event>
<event>
 7    1  0.4402832E-005  0.5579552E+03  0.7818608E-02  0.1228170E+00
          2   -1    0    0  502    0  0.00000000000E+00  0.00000000000E+00  0.29750442513E+04  0.29750442513E+04  0.00000000000E+00 0. -1.
          1   -1    0    0  501    0 -0.00000000000E+00 -0.00000000000E+00 -0.27497447468E+03  0.27497447468E+03  0.00000000000E+00 0. -1.
         25    2    1    2    0    0 -0.52553342066E+03  0.18322993294E+03  0.38948990715E+03  0.69071356634E+03  0.12499703355E+03 0.  0.
          2    1    1    2  501    0  0.53790045566E+03 -0.15582549350E+03  0.50684991683E+03  0.75532464730E+03  0.00000000000E+00 0. -1.
          1    1    1    2  502    0 -0.12367035007E+02 -0.27404439436E+02  0.18037299527E+04  0.18039805124E+04  0.00000000000E+00 0. -1.
         22    1    3    3    0    0 -0.25345118935E+03  0.13283681186E+03  0.25396428570E+03  0.38259767692E+03  0.00000000000E+00 0.  1.
         22    1    3    3    0    0 -0.27208223131E+03  0.50393121075E+02  0.13552562145E+03  0.30811588942E+03  0.00000000000E+00 0.  1.
</event>
<event>
 7    1  0.4402832E-005  0.1939151E+03  0.7818608E-02  0.1193474E+00
          2   -1    0    0  502    0  0.00000000000E+00  0.00000000000E+00  0.18464294975E+04  0.18464294975E+04  0.00000000000E+00 0. -1.
          1   -1    0    0  501    0 -0.00000000000E+00 -0.00000000000E+00 -0.93675100960E+02  0.93675100960E+02  0.00000000000E+00 0. -1.
         25    2    1    2    0    0  0.16550483429E+03 -0.16196911488E+03  0.55009881896E+03  0.60980290039E+03  0.12500008944E+03 0.  0.
          2    1    1    2  501    0 -0.18752402601E+03  0.38677085922E+02  0.91679166205E+02  0.21228812219E+03  0.00000000000E+00 0. -1.
          1    1    1    2  502    0  0.22019191727E+02  0.12329202896E+03  0.11109764114E+04  0.11180135759E+04  0.00000000000E+00 0. -1.
         22    1    3    3    0    0  0.32133224773E+02 -0.64716298664E+02  0.64282887512E+02  0.96711080409E+02  0.00000000000E+00 0. -1.
         22    1    3    3    0    0  0.13337160951E+03 -0.97252816215E+02  0.48581593145E+03  0.51309181999E+03  0.00000000000E+00 0. -1.
</event>
<event>
 7    1  0.4402832E-005  0.1993763E+03  0.7818608E-02  0.1224141E+00
          2   -1    0    0  502    0  0.00000000000E+00  0.00000000000E+00  0.84218076837E+03  0.84218076837E+03  0.00000000000E+00 0. -1.
          1   -1    0    0  501    0 -0.00000000000E+00 -0.00000000000E+00 -0.20156050252E+03  0.20156050252E+03  0.00000000000E+00 0. -1.
         25    2    1    2    0    0 -0.20797956986E+03 -0.16257891602E+02  0.73890072117E+03  0.77789346505E+03  0.12499658679E+03 0.  0.
          2    1    1    2  501    0  0.57639250557E+02  0.66146956364E+02 -0.45848353423E+02  0.98993810678E+02  0.00000000000E+00 0. -1.
          1    1    1    2  502    0  0.15034031930E+03 -0.49889064762E+02 -0.52432101893E+02  0.16685399515E+03  0.00000000000E+00 0. -1.
         22    1    3    3    0    0 -0.19223660468E+03 -0.55252865139E+02  0.57993172608E+03  0.61345627244E+03  0.00000000000E+00 0.  1.
         22    1    3    3    0    0 -0.15742965176E+02  0.38994973537E+02  0.15896899509E+03  0.16443719261E+03  0.00000000000E+00 0.  1.
</event>
<event>
 7    1  0.4402832E-005  0.5853815E+03  0.7818608E-02  0.1086030E+00
          2   -1    0    0  502    0  0.00000000000E+00  0.00000000000E+00  0.21004717758E+04  0.21004717758E+04  0.00000000000E+00 0. -1.
          1   -1    0    0  501    0 -0.00000000000E+00 -0.00000000000E+00 -0.39691606397E+03  0.39691606397E+03  0.00000000000E+00 0. -1.
         25    2    1    2    0    0 -0.55014248447E+01 -0.57513876065E+03  0.76185404203E+03  0.96273426416E+03  0.12498328833E+03 0.  0.
          2    1    1    2  501    0 -0.14663514452E+03  0.57565631754E+03  0.13630395852E+02  0.59419512723E+03  0.00000000000E+00 0. -1.
          1    1    1    2  502    0  0.15213656937E+03 -0.51755688607E+00  0.92807127392E+03  0.94045844835E+03  0.00000000000E+00 0. -1.
         22    1    3    3    0    0 -0.51048471098E+02 -0.23337507014E+03  0.37399755308E+03  0.44378377559E+03  0.00000000000E+00 0. -1.
         22    1    3    3    0    0  0.45547046253E+02 -0.34176369052E+03  0.38785648895E+03  0.51895048858E+03  0.00000000000E+00 0. -1.
</event>
<event>
 7    1  0.4402832E-005  0.4702742E+03  0.7818608E-02  0.1073685E+00
          2   -1    0    0  502    0  0.00000000000E+00  0.00000000000E+00  0.61311570481E+03  0.61311570481E+03  0.00000000000E+00 0. -1.
          1   -1    0    0  501    0 -0.00000000000E+00 -0.00000000000E+00 -0.61600351231E+03  0.61600351231E+03  0.00000000000E+00 0. -1.
         25    2    1    2    0    0  0.37963330637E+03 -0.56015822785E+02 -0.10206311458E+02  0.40371668228E+03  0.12499508409E+03 0.  0.
          2    1    1    2  501    0 -0.57615743704E+03  0.16275842502E+03 -0.26120323452E+02  0.59927453514E+03  0.00000000000E+00 0. -1.
          1    1    1    2  502    0  0.19652413067E+03 -0.10674260224E+03  0.33438827414E+02  0.22612799969E+03  0.00000000000E+00 0. -1.
         22    1    3    3    0    0  0.18251509016E+03  0.13883651687E+02 -0.52322069729E+02  0.19037361398E+03  0.00000000000E+00 0. -1.
         22    1    3    3    0    0  0.19711821622E+03 -0.69899474473E+02  0.42115758271E+02  0.21334306830E+03  0.00000000000E+00 0. -1.
</event>
<event>
 7    1  0.4402832E-005  0.5692635E+03  0.7818608E-02  0.1179782E+00
          2   -1    0    0  502    0  0.00000000000E+00  0.00000000000E+00  0.97363387456E+03  0.97363387456E+03  0.00000000000E+00 0. -1.
          1   -1    0    0  501    0 -0.00000000000E+00 -0.00000000000E+00 -0.81400757194E+03  0.81400757194E+03  0.00000000000E+00 0. -1.
         25    2    1    2    0    0 -0.29031024637E+03 -0.45562601815E+03  0.14315768535E+03  0.57270739330E+03  0.12499811162E+03 0.  0.
          2    1    1    2  501    0 -0.14807281231E+02 -0.47415002518E+02 -0.45702921733E+03  0.45972072341E+03  0.00000000000E+00 0. -1.
          1    1    1    2  502    0  0.30511752760E+03  0.50304102066E+03  0.47349783460E+03  0.75521332979E+03  0.00000000000E+00 0. -1.
         22    1    3    3    0    0 -0.22943014397E+02 -0.32837662936E+02 -0.22264390592E+02  0.45830089518E+02  0.00000000000E+00 0. -1.
         22    1    3    3    0    0 -0.26736723197E+03 -0.42278835521E+03  0.16542207594E+03  0.52687730378E+03  0.00000000000E+00 0. -1.
</event>
<event>
 7    1  0.4402832E-005  0.4195075E+03  0.7818608E-02  0.1174748E+00
          2   -1    0    0  502    0  0.00000000000E+00  0.00000000000E+00  0.55733340472E+03  0.55733340472E+03  0.00000000000E+00 0. -1.
          1   -1    0    0  501    0 -0.00000000000E+00 -0.00000000000E+00 -0.11596865440E+04  0.11596865440E+04  0.00000000000E+00 0. -1.
         25    2    1    2    0    0 -0.28144475853E+03 -0.30481109235E+03  0.10366937183E+03  0.44552816821E+03  0.12500822327E+03 0.  0.
          2    1    1    2  501    0 -0.56256372029E+02  0.43884272686E+02 -0.82529779741E+03  0.82837616044E+03  0.00000000000E+00 0. -1.
          1    1    1    2  502    0  0.33770113056E+03  0.26092681967E+03  0.11927528631E+03  0.44311562005E+03  0.00000000000E+00 0. -1.
         22    1    3    3    0    0 -0.21211378381E+03 -0.29294987086E+03  0.73911999764E+02  0.36915426021E+03  0.00000000000E+00 0. -1.
         22    1    3    3    0    0 -0.69330974723E+02 -0.11861221492E+02  0.29757372068E+02  0.76373908004E+02  0.00000000000E+00 0. -1.
</event>
<event>
 7    1  0.4402832E-005  0.5253863E+03  0.7818608E-02  0.1233413E+00
          2   -1    0    0  502    0  0.00000000000E+00  0.00000000000E+00  0.51508936853E+03  0.51508936853E+03  0.00000000000E+00 0. -1.
          1   -1    0    0  501    0 -0.00000000000E+00 -0.00000000000E+00 -0.12198178613E+04  0.12198178613E+04  0.00000000000E+00 0. -1.
         25    2    1    2    0    0 -0.51337301991E+03  0.12353211629E+03 -0.89988875842E+03  0.10508267140E+04  0.12499985627E+03 0.  0.
          2    1    1    2  501    0  0.50778221381E+03 -0.93803999242E+02  0.31159209180E+02  0.51731311916E+03  0.00000000000E+00 0. -1.
          1    1    1    2  502    0  0.55908061053E+01 -0.29728117047E+02  0.16400105647E+03  0.16676739663E+03  0.00000000000E+00 0. -1.
         22    1    3    3    0    0 -0.41194460519E+03  0.11245325961E+03 -0.80619818050E+03  0.91230455418E+03  0.00000000000E+00 0.  1.
         22    1    3    3    0    0 -0.10142841472E+03  0.11078856678E+02 -0.93690577918E+02  0.13852215985E+03  0.00000000000E+00 0.  1.
</event>
<event>
 7    1  0.4402832E-005  0.6464070E+03  0.7818608E-02  0.1251924E+00
          2   -1    0    0  502    0  0.00000000000E+00  0.00000000000E+00  0.31568347478E+04  0.31568347478E+04  0.00000000000E+00 0. -1.
          1   -1    0    0  501    0 -0.00000000000E+00 -0.00000000000E+00 -0.81782135539E+03  0.81782135539E+03  0.00000000000E+00 0. -1.
         25    2    1    2    0    0  0.44364381897E+03 -0.48954456741E+03  0.56297688003E+03  0.87695004428E+03  0.12499876449E+03 0.  0.
          2    1    1    2  501    0 -0.53117016254E+01  0.19685534351E+02 -0.61830389668E+03  0.61863999474E+03  0.00000000000E+00 0. -1.
          1    1    1    2  502    0 -0.43833211734E+03  0.46985903306E+03  0.23943404090E+04  0.24790660641E+04  0.00000000000E+00 0. -1.
         22    1    3    3    0    0  0.22701726621E+03 -0.27156583341E+03  0.22149410881E+03  0.41754578344E+03  0.00000000000E+00 0.  1.
         22    1    3    3    0    0  0.21662655276E+03 -0.21797873400E+03  0.34148277122E+03  0.45940426084E+03  0.00000000000E+00 0.  1.
</event>
<event>
 7    1  0.4402832E-005  0.2997955E+03  0.7818608E-02  0.1269527E+00
          2   -1    0    0  502    0  0.00000000000E+00  0.00000000000E+00  0.17680433860E+04  0.17680433860E+04  0.00000000000E+00 0. -1.
          1   -1    0    0  501    0 -0.00000000000E+00 -0.00000000000E+00 -0.15886227924E+03  0.15886227924E+03  0.00000000000E+00 0. -1.
         25    2    1    2    0    0 -0.12590615416E+03  0.28079227578E+03  0.71857872903E+02  0.33982970369E+03  0.12499604720E+03 0.  0.
          2    1    1    2  501    0  0.11375094999E+03 -0.24586004414E+03  0.72575875647E+03  0.77466909872E+03  0.00000000000E+00 0. -1.
          1    1    1    2  502    0  0.12155204177E+02 -0.34932231643E+02  0.81156447744E+03  0.81240686287E+03  0.00000000000E+00 0. -1.
         22    1    3    3    0    0 -0.14768291347E+03  0.27017246438E+03  0.67472621716E+02  0.31520780149E+03  0.00000000000E+00 0.  1.
         22    1    3    3    0    0  0.21776759301E+02  0.10619811398E+02  0.43852511866E+01  0.24621902196E+02  0.00000000000E+00 0.  1.
</event>
<event>
 7    1  0.4402832E-005  0.1928853E+03  0.7818608E-02  0.1203071E+00
          2   -1    0    0  502    0  0.00000000000E+00  0.00000000000E+00  0.41135987110E+04  0.41135987110E+04  0.00000000000E+00 0. -1.
          1   -1    0    0  501    0 -0.00000000000E+00 -0.00000000000E+00 -0.16427923371E+03  0.16427923371E+03  0.00000000000E+00 0. -1.
         25    2    1    2    0    0  0.55217399158E+02  0.98254906330E+02  0.33144992668E+04  0.33187697641E+04  0.12499747897E+03 0.  0.
          2    1    1    2  501    0  0.16115969050E+03 -0.10598256215E+03 -0.82526533981E+02  0.20979842262E+03  0.00000000000E+00 0. -1.
          1    1    1    2  502    0 -0.21637708966E+03  0.77276558230E+01  0.71734674448E+03  0.74930975799E+03  0.00000000000E+00 0. -1.
         22    1    3    3    0    0  0.36983495821E+02 -0.12333399242E+02  0.35224492876E+03  0.35439579786E+03  0.00000000000E+00 0. -1.
         22    1    3    3    0    0  0.18233903337E+02  0.11058830557E+03  0.29622543380E+04  0.29643739662E+04  0.00000000000E+00 0. -1.
</event>
<event>
 7    1  0.4402832E-005  0.6022834E+03  0.7818608E-02  0.9927957E-01
          2   -1    0    0  502    0  0.00000000000E+00  0.00000000000E+00  0.27233392801E+04  0.27233392801E+04  0.00000000000E+00 0. -1.
          1   -1    0    0  501    0 -0.00000000000E+00 -0.00000000000E+00 -0.11729229149E+04  0.11729229149E+04  0.00000000000E+00 0. -1.
         25    2    1    2    0    0  0.77346056986E+03 -0.15087566753E+02  0.11860912034E+04  0.14215858327E+04  0.12500019660E+03 0.  0.
          2    1    1    2  501    0 -0.38364178478E+03 -0.43032103852E+03 -0.90563083376E+03  0.10735569022E+04  0.00000000000E+00 0. -1.
          1    1    1    2  502    0 -0.38981878509E+03  0.44540860527E+03  0.12699559955E+04  0.14011194601E+04  0.00000000000E+00 0. -1.
         22    1    3    3    0    0  0.12355637127E+03  0.23059011464E+02  0.26898108259E+03  0.29689849727E+03  0.00000000000E+00 0.  1.
         22    1    3    3    0    0  0.64990419860E+03 -0.38146578217E+02  0.91711012078E+03  0.11246873354E+04  0.00000000000E+00 0.  1.
</event>
<event>
 7    1  0.4402832E-005  0.3196760E+03  0.7818608E-02  0.1257502E+00
          2   -1    0    0  502    0  0.00000000000E+00  0.00000000000E+00  0.56317490858E+03  0.56317490858E+03  0.00000000000E+00 0. -1.
          1   -1    0    0  501    0 -0.00000000000E+00 -0.00000000000E+00 -0.46815519768E+03  0.46815519768E+03  0.00000000000E+00 0. -1.
         25    2    1    2    0    0  0.33096046751E+03 -0.70495144904E+02 -0.11176379674E+03  0.37764898769E+03  0.12499286031E+03 0.  0.
          2    1    1    2  501    0 -0.30151172053E+02 -0.24754588978E+02 -0.16298398283E+03  0.16758777256E+03  0.00000000000E+00 0. -1.
          1    1    1    2  502    0 -0.30080929545E+03  0.95249733883E+02  0.36976749047E+03  0.48609334602E+03  0.00000000000E+00 0. -1.
         22    1    3    3    0    0  0.16934257115E+03 -0.98517815093E+02 -0.48387018693E+02  0.20180180839E+03  0.00000000000E+00 0. -1.
         22    1    3    3    0    0  0.16161789636E+03  0.28022670188E+02 -0.63376778051E+02  0.17584717929E+03  0.00000000000E+00 0. -1.
</event>
<event>
 7    1  0.4402832E-005  0.5079932E+03  0.7818608E-02  0.1215956E+00
          2   -1    0    0  502    0  0.00000000000E+00  0.00000000000E+00  0.16628402910E+04  0.16628402910E+04  0.00000000000E+00 0. -1.
          1   -1    0    0  501    0 -0.00000000000E+00 -0.00000000000E+00 -0.69095351080E+03  0.69095351080E+03  0.00000000000E+00 0. -1.
         25    2    1    2    0    0  0.51843692402E+03 -0.44680893467E+02  0.31445252813E+03  0.62070972719E+03  0.12500778597E+03 0.  0.
          2    1    1    2  501    0 -0.50499708017E+03  0.96459634197E+01 -0.41883929955E+03  0.65615657768E+03  0.00000000000E+00 0. -1.
          1    1    1    2  502    0 -0.13439843847E+02  0.35034930047E+02  0.10762735517E+04  0.10769274970E+04  0.00000000000E+00 0. -1.
         22    1    3    3    0    0  0.48933328226E+03 -0.10450554611E+02  0.27825052415E+03  0.56300943990E+03  0.00000000000E+00 0. -1.
         22    1    3    3    0    0  0.29103641757E+02 -0.34230338856E+02  0.36202003978E+02  0.57700287294E+02  0.00000000000E+00 0. -1.
</event>
<event>
 7    1  0.4402832E-005  0.5135995E+03  0.7818608E-02  0.1168263E+00
          2   -1    0    0  502    0  0.00000000000E+00  0.00000000000E+00  0.59038435254E+03  0.59038435254E+03  0.00000000000E+00 0. -1.
          1   -1    0    0  501    0 -0.00000000000E+00 -0.00000000000E+00 -0.89193344186E+03  0.89193344186E+03  0.00000000000E+00 0. -1.
         25    2    1    2    0    0  0.25103170287E+03  0.50567224629E+03 -0.48129301704E+03  0.75232106739E+03  0.12499073435E+03 0.  0.
          2    1    1    2  501    0 -0.31773660426E+02 -0.54113562671E+02 -0.12704308898E+03  0.14169611716E+03  0.00000000000E+00 0. -1.
          1    1    1    2  502    0 -0.21925804245E+03 -0.45155868362E+03  0.30678701670E+03  0.58830060984E+03  0.00000000000E+00 0. -1.
         22    1    3    3    0    0  0.18602730563E+03  0.34068770153E+03 -0.25337481241E+03  0.46354402593E+03  0.00000000000E+00 0.  1.
         22    1    3    3    0    0  0.65004397239E+02  0.16498454476E+03 -0.22791820463E+03  0.28877704146E+03  0.00000000000E+00 0.  1.
</event>
<event>
 7    1  0.4402832E-005  0.4099387E+03  0.7818608E-02  0.1186726E+00
          2   -1    0    0  502    0  0.00000000000E+00  0.00000000000E+00  0.83067776826E+03  0.83067776826E+03  0.00000000000E+00 0. -1.
          1   -1    0    0  501    0 -0.00000000000E+00 -0.00000000000E+00 -0.14027107941E+04  0.14027107941E+04  0.00000000000E+00 0. -1.
         25    2    1    2    0    0 -0.20667031051E+03  0.28955326022E+03  0.26948969895E+02  0.37802569348E+03  0.12499388066E+03 0.  0.
          2    1    1    2  501    0  0.24520872175E+03 -0.34043369892E+03 -0.11895431271E+04  0.12613624665E+04  0.00000000000E+00 0. -1.
          1    1    1    2  502    0 -0.38538411242E+02  0.50880438703E+02  0.59056113136E+03  0.59400040241E+03  0.00000000000E+00 0. -1.
         22    1    3    3    0    0 -0.29174607730E+02  0.10006294876E+03 -0.37048153591E+02  0.11061788795E+03  0.00000000000E+00 0.  1.
         22    1    3    3    0    0 -0.17749570278E+03  0.18949031146E+03  0.63997123486E+02  0.26740780553E+03  0.00000000000E+00 0.  1.
</event>
<event>
 7    1  0.4402832E-005  0.2007845E+03  0.7818608E-02  0.1235072E+00
          2   -1    0    0  502    0  0.00000000000E+00  0.00000000000E+00  0.21721910675E+04  0.21721910675E+04  0.00000000000E+00 0. -1.
          1   -1    0    0  501    0 -0.00000000000E+00 -0.00000000000E+00 -0.51617868326E+02  0.51617868326E+02  0.00000000000E+00 0. -1.
         25    2    1    2    0    0  0.13063523138E+03 -0.20843508097E+03  0.12793101917E+04  0.13087284841E+04  0.12499972764E+03 0.  0.
          2    1    1    2  501    0 -0.10941768740E+03  0.13356578740E+03  0.81478940990E+03  0.83288284433E+03  0.00000000000E+00 0. -1.
          1    1    1    2  502    0 -0.21217543976E+02  0.74869293565E+02  0.26473597579E+02  0.82197607387E+02  0.00000000000E+00 0. -1.
         22    1    3    3    0    0 -0.12265931302E+01  0.15765895367E+02  0.75993650565E+02  0.77621536403E+02  0.00000000000E+00 0.  1.
         22    1    3    3    0    0  0.13186182451E+03 -0.22420097633E+03  0.12033165411E+04  0.12311069477E+04  0.00000000000E+00 0.  1.
</event>
<event>
 7    1  0.4402832E-005  0.3930209E+03  0.7818608E-02  0.1084306E+00
          2   -1    0    0  502    0  0.00000000000E+00  0.00000000000E+00  0.21104215151E+04  0.21104215151E+04  0.00000000000E+00 0. -1.
          1   -1    0    0  501    0 -0.00000000000E+00 -0.00000000000E+00 -0.13168606057E+04  0.13168606057E+04  0.00000000000E+00 0. -1.
         25    2    1    2    0    0  0.34697065112E+03 -0.47024481061E+02  0.11281332273E+04  0.11878170195E+04  0.12499903420E+03 0.  0.
          2    1    1    2  501    0  0.10474976681E+03 -0.20686047748E+03 -0.12046562133E+04  0.12267682597E+04  0.00000000000E+00 0. -1.
          1    1    1    2  502    0 -0.45172041793E+03  0.25388495855E+03  0.87008389531E+03  0.10126968416E+04  0.00000000000E+00 0. -1.
         22    1    3    3    0    0  0.12575057995E+02  0.26467249610E+02  0.96896801528E+02  0.10123061559E+03  0.00000000000E+00 0.  1.
         22    1    3    3    0    0  0.33439559313E+03 -0.73491730671E+02  0.10312364258E+04  0.10865864039E+04  0.00000000000E+00 0.  1.
</event>
<event>
 7    1  0.4402832E-005  0.1808511E+03  0.7818608E-02  0.1224826E+00
          2   -1    0    0  502    0  0.00000000000E+00  0.00000000000E+00  0.13328462237E+04  0.13328462237E+04  0.00000000000E+00 0. -1.
          1   -1    0    0  501    0 -0.00000000000E+00 -0.00000000000E+00 -0.18055638045E+03  0.18055638045E+03  0.00000000000E+00 0. -1.
         25    2    1    2    0    0  0.66030454292E+02  0.21957704664E+03  0.69377321339E+03  0.74129755563E+03  0.12500677607E+03 0.  0.
          2    1    1    2  501    0  0.20256081732E+02 -0.17741721387E+03 -0.10049384801E+03  0.20490531987E+03  0.00000000000E+00 0. -1.
          1    1    1    2  502    0 -0.86286536023E+02 -0.42159832776E+02  0.55901047784E+03  0.56719972861E+03  0.00000000000E+00 0. -1.
         22    1    3    3    0    0  0.91570901933E+02  0.15395833970E+03  0.38552695355E+03  0.42511108238E+03  0.00000000000E+00 0.  1.
         22    1    3    3    0    0 -0.25540447642E+02  0.65618706940E+02  0.30824625984E+03  0.31618647325E+03  0.00000000000E+00 0.  1.
</event>
<event>
 7    1  0.4402832E-005  0.3326579E+03  0.7818608E-02  0.1212170E+00
          2   -1    0    0  502    0  0.00000000000E+00  0.00000000000E+00  0.30433699099E+03  0.30433699099E+03  0.00000000000E+00 0. -1.
          1   -1    0    0  501    0 -0.00000000000E+00 -0.00000000000E+00 -0.94009422131E+03  0.94009422131E+03  0.00000000000E+00 0. -1.
         25    2    1    2    0    0  0.34255490097E+03 -0.77870928996E+02 -0.52497133420E+03  0.64391512992E+03  0.12499620418E+03 0.  0.
          2    1    1    2  501    0 -0.31132465415E+03  0.27050378952E+02 -0.28093553419E+03  0.42021368095E+03  0.00000000000E+00 0. -1.
          1    1    1    2  502    0 -0.31230246813E+02  0.50820550044E+02  0.17014963807E+03  0.18030240142E+03  0.00000000000E+00 0. -1.
         22    1    3    3    0    0 -0.48825406493E+01  0.12766410134E+02 -0.22705591255E+02  0.26502156613E+02  0.00000000000E+00 0. -1.
         22    1    3    3    0    0  0.34743744162E+03 -0.90637339129E+02 -0.50226574294E+03  0.61741297331E+03  0.00000000000E+00 0. -1.
</event>
<event>
 7    1  0.4402832E-005  0.3374966E+03  0.7818608E-02  0.1142823E+00
          2   -1    0    0  502    0  0.00000000000E+00  0.00000000000E+00  0.14497727286E+04  0.14497727286E+04  0.00000000000E+00 0. -1.
          1   -1    0    0  501    0 -0.00000000000E+00 -0.00000000000E+00 -0.20794441322E+03  0.20794441322E+03  0.00000000000E+00 0. -1.
         25    2    1    2    0    0 -0.38182800878E+03  0.21738916830E+03  0.66360093015E+03  0.80563133527E+03  0.12499990039E+03 0.  0.
          2    1    1    2  501    0  0.27657273644E+03 -0.14331145344E+03  0.58862646126E+02  0.31701019280E+03  0.00000000000E+00 0. -1.
          1    1    1    2  502    0  0.10525527234E+03 -0.74077714856E+02  0.51936473908E+03  0.53507561371E+03  0.00000000000E+00 0. -1.
         22    1    3    3    0    0 -0.31385603540E+03  0.14490295218E+03  0.42966948986E+03  0.55146926208E+03  0.00000000000E+00 0. -1.
         22    1    3    3    0    0 -0.67971973381E+02  0.72486216116E+02  0.23393144029E+03  0.25416207319E+03  0.00000000000E+00 0. -1.
</event>
<event>
 7    1  0.4402832E-005  0.1080598E+04  0.7818608E-02  0.9616096E-01
          2   -1    0    0  502    0  0.00000000000E+00  0.00000000000E+00  0.43757748464E+04  0.43757748464E+04  0.00000000000E+00 0. -1.
          1   -1    0    0  501    0 -0.00000000000E+00 -0.00000000000E+00 -0.71381580191E+03  0.71381580191E+03  0.00000000000E+00 0. -1.
         25    2    1    2    0    0 -0.67488431139E+02 -0.74635390412E+03 -0.21944893745E+03  0.79081146955E+03  0.12500442270E+03 0.  0.
          2    1    1    2  501    0 -0.45970749326E+03 -0.27929332013E+03  0.53258052698E+03  0.75695294157E+03  0.00000000000E+00 0. -1.
          1    1    1    2  502    0  0.52719592440E+03  0.10256472243E+04  0.33488274549E+04  0.35418262372E+04  0.00000000000E+00 0. -1.
         22    1    3    3    0    0 -0.79646266566E+02 -0.28739492705E+03 -0.55830567442E+02  0.30340801594E+03  0.00000000000E+00 0. -1.
         22    1    3    3    0    0  0.12157835427E+02 -0.45895897706E+03 -0.16361837001E+03  0.48740345361E+03  0.00000000000E+00 0. -1.
</event>
<event>
 7    1  0.4402832E-005  0.3928190E+03  0.7818608E-02  0.1182475E+00
          2   -1    0    0  502    0  0.00000000000E+00  0.00000000000E+00  0.92493475738E+03  0.92493475738E+03  0.00000000000E+00 0. -1.
          1   -1    0    0  501    0 -0.00000000000E+00 -0.00000000000E+00 -0.30271859551E+03  0.30271859551E+03  0.00000000000E+00 0. -1.
         25    2    1    2    0    0  0.11732249574E+03 -0.34520676110E+03  0.95338867195E+02  0.39704823370E+03  0.12500209746E+03 0.  0.
          2    1    1    2  501    0 -0.16582070502E+03  0.39546606566E+03  0.16088906543E+03  0.45801223421E+03  0.00000000000E+00 0. -1.
          1    1    1    2  502    0  0.48498209280E+02 -0.50259304567E+02  0.36598822924E+03  0.37259288499E+03  0.00000000000E+00 0. -1.
         22    1    3    3    0    0  0.11701432574E+03 -0.33036030820E+03  0.55893776721E+02  0.35490054936E+03  0.00000000000E+00 0.  1.
         22    1    3    3    0    0  0.30817000155E+00 -0.14846452900E+02  0.39445090474E+02  0.42147684337E+02  0.00000000000E+00 0.  1.
</event>
<event>
 7    1  0.4402832E-005  0.6501907E+03  0.7818608E-02  0.1185268E+00
          2   -1    0    0  502    0  0.00000000000E+00  0.00000000000E+00  0.22407056720E+04  0.22407056720E+04  0.00000000000E+00 0. -1.
          1   -1    0    0  501    0 -0.00000000000E+00 -0.00000000000E+00 -0.16145857567E+04  0.16145857567E+04  0.00000000000E+00 0. -1.
         25    2    1    2    0    0 -0.38176468755E+03 -0.52040862845E+03 -0.10544750561E+04  0.12426229080E+04  0.12499852101E+03 0.  0.
          2    1    1    2  501    0  0.36126904828E+03  0.55580376600E+03 -0.22997834324E+03  0.70165745910E+03  0.00000000000E+00 0. -1.
          1    1    1    2  502    0  0.20495639270E+02 -0.35395137554E+02  0.19105733147E+04  0.19110110616E+04  0.00000000000E+00 0. -1.
         22    1    3    3    0    0 -0.23233132343E+03 -0.23640626618E+03 -0.61238748837E+03  0.69633627110E+03  0.00000000000E+00 0.  1.
         22    1    3    3    0    0 -0.14943336412E+03 -0.28400236226E+03 -0.44208756777E+03  0.54628663691E+03  0.00000000000E+00 0.  1.
</event>
<event>
 7    1  0.4402832E-005  0.1722625E+03  0.7818608E-02  0.1377822E+00
          2   -1    0    0  502    0  0.00000000000E+00  0.00000000000E+00  0.20133508064E+04  0.20133508064E+04  0.00000000000E+00 0. -1.
          1   -1    0    0  501    0 -0.00000000000E+00 -0.00000000000E+00 -0.73131793637E+02  0.73131793637E+02  0.00000000000E+00 0. -1.
         25    2    1    2    0    0 -0.12261376193E+03  0.10858412850E+03  0.14117683349E+04  0.14267234265E+04  0.12500102673E+03 0.  0.
          2    1    1    2  501    0  0.11291775223E+03 -0.13114530963E+03  0.49251422518E+02  0.17993113579E+03  0.00000000000E+00 0. -1.
          1    1    1    2  502    0  0.96960097007E+01  0.22561181128E+02  0.47919925535E+03  0.47982803777E+03  0.00000000000E+00 0. -1.
         22    1    3    3    0    0 -0.14660529548E+03  0.10574024804E+03  0.12876547645E+04  0.13002803180E+04  0.00000000000E+00 0. -1.
         22    1    3    3    0    0  0.23991533548E+02  0.28438804528E+01  0.12411357037E+03  0.12644310850E+03  0.00000000000E+00 0. -1.
</event>
<event>
 7    1  0.4402832E-005  0.4436999E+03  0.7818608E-02  0.1209123E+00
          2   -1    0    0  502    0  0.00000000000E+00  0.00000000000E+00  0.18341073448E+04  0.18341073448E+04  0.00000000000E+00 0. -1.
          1   -1    0    0  501    0 -0.00000000000E+00 -0.00000000000E+00 -0.33109991899E+03  0.33109991899E+03  0.00000000000E+00 0. -1.
         25    2    1    2    0    0 -0.38225898933E+02 -0.41460659256E+03  0.54845246067E+03  0.69984214754E+03  0.12497633344E+03 0.  0.
          2    1    1    2  501    0 -0.20962197768E+02 -0.41169395632E+02 -0.20914808392E+03  0.21418976138E+03  0.00000000000E+00 0. -1.
          1    1    1    2  502    0  0.59188096700E+02  0.45577598819E+03  0.11637030491E+04  0.12511753549E+04  0.00000000000E+00 0. -1.
         22    1    3    3    0    0 -0.73497647638E+02 -0.25197142575E+03  0.27830749867E+03  0.38255269888E+03  0.00000000000E+00 0.  1.
         22    1    3    3    0    0  0.35271748705E+02 -0.16263516681E+03  0.27014496200E+03  0.31728944867E+03  0.00000000000E+00 0.  1.
</event>
<event>
 7    1  0.4402832E-005  0.2145530E+03  0.7818608E-02  0.1168745E+00
          2   -1    0    0  502    0  0.00000000000E+00  0.00000000000E+00  0.62760842764E+03  0.62760842764E+03  0.00000000000E+00 0. -1.
          1   -1    0    0  501    0 -0.00000000000E+00 -0.00000000000E+00 -0.32724180243E+03  0.32724180243E+03  0.00000000000E+00 0. -1.
         25    2    1    2    0    0  0.16281189715E+03  0.79452261145E+02  0.12553030786E+02  0.22045840885E+03  0.12499582312E+03 0.  0.
          2    1    1    2  501    0  0.63612111637E+02 -0.13516768818E+03 -0.16652353038E+03  0.22371162429E+03  0.00000000000E+00 0. -1.
          1    1    1    2  502    0 -0.22642400879E+03  0.55715427034E+02  0.45433712480E+03  0.51068019693E+03  0.00000000000E+00 0. -1.
         22    1    3    3    0    0  0.16472180282E+03  0.50978224466E+02 -0.23991779833E+02  0.17409094518E+03  0.00000000000E+00 0.  1.
         22    1    3    3    0    0 -0.19099056665E+01  0.28474036679E+02  0.36544810619E+02  0.46367463674E+02  0.00000000000E+00 0.  1.
</event>
<event>
 7    1  0.4402832E-005  0.1122713E+04  0.7818608E-02  0.1029729E+00
          2   -1    0    0  502    0  0.00000000000E+00  0.00000000000E+00  0.29784565699E+04  0.29784565699E+04  0.00000000000E+00 0. -1.
          1   -1    0    0  501    0 -0.00000000000E+00 -0.00000000000E+00 -0.70810855736E+03  0.70810855736E+03  0.00000000000E+00 0. -1.
         25    2    1    2    0    0 -0.11347111050E+04 -0.41104367918E+01  0.10567911127E+04  0.15556384787E+04  0.12496972874E+03 0.  0.
          2    1    1    2  501    0  0.28096483231E+02  0.17279363265E+03 -0.23951856519E+03  0.29667523476E+03  0.00000000000E+00 0. -1.
          1    1    1    2  502    0  0.11066146218E+04 -0.16868319586E+03  0.14530754650E+04  0.18342514138E+04  0.00000000000E+00 0. -1.
         22    1    3    3    0    0 -0.87919889495E+02 -0.33761840023E+01  0.41223187269E+02  0.97163042129E+02  0.00000000000E+00 0.  1.
         22    1    3    3    0    0 -0.10467912155E+04 -0.73425278955E+00  0.10155679254E+04  0.14584754366E+04  0.00000000000E+00 0.  1.
</event>
<event>
 7    1  0.4402832E-005  0.3668017E+03  0.7818608E-02  0.1301877E+00
          2   -1    0    0  502    0  0.00000000000E+00  0.00000000000E+00  0.16088875594E+03  0.16088875594E+03  0.00000000000E+00 0. -1.
          1   -1    0    0  501    0 -0.00000000000E+00 -0.00000000000E+00 -0.17504075031E+04  0.17504075031E+04  0.00000000000E+00 0. -1.
         25    2    1    2    0    0  0.38045690940E+02  0.37230887706E+03 -0.10306148179E+04  0.11035639073E+04  0.12500008007E+03 0.  0.
          2    1    1    2  501    0 -0.22129741723E+02 -0.35671600507E+03 -0.63487471458E+03  0.72856155331E+03  0.00000000000E+00 0. -1.
          1    1    1    2  502    0 -0.15915949218E+02 -0.15592871988E+02  0.75970785356E+02  0.79170798430E+02  0.00000000000E+00 0. -1.
         22    1    3    3    0    0 -0.23067393067E+02  0.23720914183E+03 -0.73792637172E+03  0.77545832362E+03  0.00000000000E+00 0. -1.
         22    1    3    3    0    0  0.61113084007E+02  0.13509973523E+03 -0.29268844619E+03  0.32810558366E+03  0.00000000000E+00 0. -1.
</event>
<event>
 7    1  0.4402832E-005  0.6028107E+03  0.7818608E-02  0.1164156E+00
          2   -1    0    0  502    0  0.00000000000E+00  0.00000000000E+00  0.32902282372E+03  0.32902282372E+03  0.00000000000E+00 0. -1.
          1   -1    0    0  501    0 -0.00000000000E+00 -0.00000000000E+00 -0.18393797745E+04  0.18393797745E+04  0.00000000000E+00 0. -1.
         25    2    1    2    0    0 -0.37710129420E+03  0.46926343630E+03 -0.21725180706E+03  0.65210161739E+03  0.12499845197E+03 0.  0.
          2    1    1    2  501    0  0.42772179814E+02  0.36229683234E+02 -0.57025240704E+03  0.57300074786E+03  0.00000000000E+00 0. -1.
          1    1    1    2  502    0  0.33432911438E+03 -0.50549311953E+03 -0.72285273667E+03  0.94330023298E+03  0.00000000000E+00 0. -1.
         22    1    3    3    0    0 -0.36826838560E+03  0.42216480483E+03 -0.17158371577E+03  0.58590587792E+03  0.00000000000E+00 0.  1.
         22    1    3    3    0    0 -0.88329086004E+01  0.47098631467E+02 -0.45668091297E+02  0.66195739464E+02  0.00000000000E+00 0.  1.
</event>
<event>
 7    1  0.4402832E-005  0.1622885E+03  0.7818608E-02  0.1203264E+00
          2   -1    0    0  502    0  0.00000000000E+00  0.00000000000E+00  0.32527105139E+04  0.32527105139E+04  0.00000000000E+00 0. -1.
          1   -1    0    0  501    0 -0.00000000000E+00 -0.00000000000E+00 -0.67623861094E+02  0.67623861094E+02  0.00000000000E+00 0. -1.
         25    2    1    2    0    0  0.19764653828E+03  0.40113278735E+02  0.10091722247E+04  0.10366898622E+04  0.12499624786E+03 0.  0.
          2    1    1    2  501    0 -0.57067770315E+02 -0.12181100957E+03  0.38310124249E+02  0.13986535697E+03  0.00000000000E+00 0. -1.
          1    1    1    2  502    0 -0.14057876796E+03  0.81697730836E+02  0.21376043038E+04  0.21437791558E+04  0.00000000000E+00 0. -1.
         22    1    3    3    0    0  0.56215024124E+02 -0.43951486231E+02  0.35902055169E+03  0.36604319228E+03  0.00000000000E+00 0.  1.
         22    1    3    3    0    0  0.14143151415E+03  0.84064764966E+02  0.65015167302E+03  0.67064666989E+03  0.00000000000E+00 0.  1.
</event>
<event>
 7    1  0.4402832E-005  0.2474134E+03  0.7818608E-02  0.1244173E+00
          2   -1    0    0  502    0  0.00000000000E+00  0.00000000000E+00  0.74077334518E+03  0.74077334518E+03  0.00000000000E+00 0. -1.
          1   -1    0    0  501    0 -0.00000000000E+00 -0.00000000000E+00 -0.42973612819E+03  0.42973612819E+03  0.00000000000E+00 0. -1.
         25    2    1    2    0    0 -0.18527923448E+03 -0.15412359461E+03  0.30563579773E+03  0.40880399757E+03  0.12499996171E+03 0.  0.
          2    1    1    2  501    0 -0.42703450176E+02  0.38615032159E+02 -0.33283001691E+03  0.33777289045E+03  0.00000000000E+00 0. -1.
          1    1    1    2  502    0  0.22798268465E+03  0.11550856245E+03  0.33823143618E+03  0.42393258535E+03  0.00000000000E+00 0. -1.
         22    1    3    3    0    0 -0.17561889417E+03 -0.83705602571E+02  0.25845385353E+03  0.32349191380E+03  0.00000000000E+00 0. -1.
         22    1    3    3    0    0 -0.96603403111E+01 -0.70417992043E+02  0.47181944199E+02  0.85312083767E+02  0.00000000000E+00 0. -1.
</event>
<event>
 7    1  0.4402832E-005  0.3057457E+03  0.7818608E-02  0.1127267E+00
          2   -1    0    0  502    0  0.00000000000E+00  0.00000000000E+00  0.47259820937E+03  0.47259820937E+03  0.00000000000E+00 0. -1.
          1   -1    0    0  501    0 -0.00000000000E+00 -0.00000000000E+00 -0.22473554501E+04  0.22473554501E+04  0.00000000000E+00 0. -1.
         25    2    1    2    0    0  0.12843548983E+03  0.35416826170E+03 -0.15772199699E+03  0.42711593379E+03  0.12498383860E+03 0.  0.
          2    1    1    2  501    0  0.34699312065E+02 -0.30066132871E+03 -0.19204845919E+04  0.19441868081E+04  0.00000000000E+00 0. -1.
          1    1    1    2  502    0 -0.16313480190E+03 -0.53506932996E+02  0.30344934817E+03  0.34865091764E+03  0.00000000000E+00 0. -1.
         22    1    3    3    0    0  0.14542132948E+03  0.25572706562E+03 -0.94912468158E+02  0.30911498147E+03  0.00000000000E+00 0.  1.
         22    1    3    3    0    0 -0.16985839644E+02  0.98441196082E+02 -0.62809528835E+02  0.11800095231E+03  0.00000000000E+00 0.  1.
</event>
<event>
 7    1  0.4402832E-005  0.7261352E+03  0.7818608E-02  0.1060923E+00
          2   -1    0    0  502    0  0.00000000000E+00  0.00000000000E+00  0.92950156679E+03  0.92950156679E+03  0.00000000000E+00 0. -1.
          1   -1    0    0  501    0 -0.00000000000E+00 -0.00000000000E+00 -0.19781428882E+04  0.19781428882E+04  0.00000000000E+00 0. -1.
         25    2    1    2    0    0  0.15247071794E+03 -0.77541980074E+03 -0.88660284775E+03  0.11942414812E+04  0.12499967391E+03 0.  0.
          2    1    1    2  501    0 -0.24912431724E+03  0.63226409801E+03 -0.80161766855E+03  0.10509099398E+04  0.00000000000E+00 0. -1.
          1    1    1    2  502    0  0.96653599294E+02  0.14315570273E+03  0.63957919493E+03  0.66249303398E+03  0.00000000000E+00 0. -1.
         22    1    3    3    0    0  0.12108567786E+02 -0.34843468860E+03 -0.34589384694E+03  0.49111699521E+03  0.00000000000E+00 0. -1.
         22    1    3    3    0    0  0.14036215016E+03 -0.42698511213E+03 -0.54070900081E+03  0.70312448595E+03  0.00000000000E+00 0. -1.
</event>
<event>
 7    1  0.4402832E-005  0.4360036E+03  0.7818608E-02  0.1049555E+00
          2   -1    0    0  502    0  0.00000000000E+00  0.00000000000E+00  0.33372179358E+04  0.33372179358E+04  0.00000000000E+00 0. -1.
          1   -1    0    0  501    0 -0.00000000000E+00 -0.00000000000E+00 -0.13180567649E+04  0.13180567649E+04  0.00000000000E+00 0. -1.
         25    2    1    2    0    0 -0.35602296489E+03  0.42304469911E+03  0.40441113876E+03  0.69634233266E+03  0.12500042449E+03 0.  0.
          2    1    1    2  501    0  0.33759625985E+03  0.10757689686E+02 -0.11303344418E+04  0.11797215404E+04  0.00000000000E+00 0. -1.
          1    1    1    2  502    0  0.18426705038E+02 -0.43380238880E+03  0.27450844739E+04  0.27792108277E+04  0.00000000000E+00 0. -1.
         22    1    3    3    0    0 -0.22621572764E+03  0.24024744999E+03  0.31105581231E+03  0.45348441101E+03  0.00000000000E+00 0.  1.
         22    1    3    3    0    0 -0.12980723725E+03  0.18279724913E+03  0.93355326445E+02  0.24285792165E+03  0.00000000000E+00 0.  1.
</event>
<event>
 7    1  0.4402832E-005  0.2985914E+03  0.7818608E-02  0.1157545E+00
          2   -1    0    0  502    0  0.00000000000E+00  0.00000000000E+00  0.18327520799E+04  0.18327520799E+04  0.00000000000E+00 0. -1.
          1   -1    0    0  501    0 -0.00000000000E+00 -0.00000000000E+00 -0.25916751771E+04  0.25916751771E+04  0.00000000000E+00 0. -1.
         25    2    1    2    0    0  0.28133537035E+03 -0.81981819755E+02 -0.11909179382E+03  0.34011431097E+03  0.12499711913E+03 0.  0.
          2    1    1    2  501    0 -0.29852088020E+03 -0.39005120802E+02 -0.23502905536E+04  0.23694939969E+04  0.00000000000E+00 0. -1.
          1    1    1    2  502    0  0.17185509849E+02  0.12098694056E+03  0.17104592502E+04  0.17148189491E+04  0.00000000000E+00 0. -1.
         22    1    3    3    0    0  0.11200817597E+03 -0.40086149522E+02  0.15258109746E+02  0.11993973812E+03  0.00000000000E+00 0. -1.
         22    1    3    3    0    0  0.16932719438E+03 -0.41895670233E+02 -0.13434990356E+03  0.22017457285E+03  0.00000000000E+00 0. -1.
</event>
<event>
 7    1  0.4402832E-005  0.2414457E+03  0.7818608E-02  0.1357757E+00
          2   -1    0    0  502    0  0.00000000000E+00  0.00000000000E+00  0.24960890299E+03  0.24960890299E+03  0.00000000000E+00 0. -1.
          1   -1    0    0  501    0 -0.00000000000E+00 -0.00000000000E+00 -0.43133692281E+03  0.43133692281E+03  0.00000000000E+00 0. -1.
         25    2    1    2    0    0 -0.14606960507E+03  0.20557417960E+03  0.58217530126E+01  0.28152356853E+03  0.12499821592E+03 0.  0.
          2    1    1    2  501    0  0.13026765700E+02 -0.16083630683E+02 -0.16555961116E+03  0.16684832827E+03  0.00000000000E+00 0. -1.
          1    1    1    2  502    0  0.13304283937E+03 -0.18949054892E+03 -0.21990161681E+02  0.23257392900E+03  0.00000000000E+00 0. -1.
         22    1    3    3    0    0 -0.64942799398E+02  0.17647460338E+03  0.33489558121E+02  0.19100367362E+03  0.00000000000E+00 0.  1.
         22    1    3    3    0    0 -0.81126805675E+02  0.29099576223E+02 -0.27667805108E+02  0.90519894912E+02  0.00000000000E+00 0.  1.
</event>
<event>
 7    1  0.4402832E-005  0.1132689E+03  0.7818608E-02  0.1285180E+00
          2   -1    0    0  502    0  0.00000000000E+00  0.00000000000E+00  0.51736046918E+04  0.51736046918E+04  0.00000000000E+00 0. -1.
          1   -1    0    0  501    0 -0.00000000000E+00 -0.00000000000E+00 -0.78930580562E+03  0.78930580562E+03  0.00000000000E+00 0. -1.
         25    2    1    2    0    0 -0.12842402270E+03  0.55058217501E+01  0.58879931582E+03  0.61549416111E+03  0.12500153747E+03 0.  0.
          2    1    1    2  501    0  0.83415711187E+02 -0.76777703939E+02 -0.77142637112E+03  0.77971253854E+03  0.00000000000E+00 0. -1.
          1    1    1    2  502    0  0.45008311518E+02  0.71271882189E+02  0.45669259415E+04  0.45677037978E+04  0.00000000000E+00 0. -1.
         22    1    3    3    0    0 -0.96579258166E+02  0.55379800432E+02  0.46692626150E+03  0.48001521755E+03  0.00000000000E+00 0.  1.
         22    1    3    3    0    0 -0.31844764539E+02 -0.49873978682E+02  0.12187305432E+03  0.13547894355E+03  0.00000000000E+00 0.  1.
</event>
<event>
 7    1  0.4402832E-005  0.7567430E+03  0.7818608E-02  0.1072543E+00
          2   -1    0    0  502    0  0.00000000000E+00  0.00000000000E+00  0.72868817202E+03  0.72868817202E+03  0.00000000000E+00 0. -1.
          1   -1    0    0  501    0 -0.00000000000E+00 -0.00000000000E+00 -0.31700590525E+04  0.31700590525E+04  0.00000000000E+00 0. -1.
         25    2    1    2    0    0 -0.30904391543E+03 -0.72752365578E+03  0.66567578524E+02  0.80302920256E+03  0.12500338503E+03 0.  0.
          2    1    1    2  501    0 -0.77172511980E+02  0.11820257074E+03 -0.23537920691E+04  0.23580213207E+04  0.00000000000E+00 0. -1.
          1    1    1    2  502    0  0.38621642741E+03  0.60932108504E+03 -0.15414638985E+03  0.73769670121E+03  0.00000000000E+00 0. -1.
         22    1    3    3    0    0 -0.97793018151E+02 -0.37558661534E+03  0.58386603717E+02  0.39247646492E+03  0.00000000000E+00 0. -1.
         22    1    3    3    0    0 -0.21125089728E+03 -0.35193704044E+03  0.81809748064E+01  0.41055273764E+03  0.00000000000E+00 0. -1.
</event>
<event>
 7    1  0.4402832E-005  0.2796343E+03  0.7818608E-02  0.1260491E+00
          2   -1    0    0  502    0  0.00000000000E+00  0.00000000000E+00  0.57585399543E+03  0.57585399543E+03  0.00000000000E+00 0. -1.
          1   -1    0    0  501    0 -0.00000000000E+00 -0.00000000000E+00 -0.18499605510E+04  0.18499605510E+04  0.00000000000E+00 0. -1.
         25    2    1    2    0    0 -0.19042316238E+03  0.19719007613E+03 -0.14462528530E+04  0.14773003946E+04  0.12499693556E+03 0.  0.
          2    1    1    2  501    0  0.23338997120E+03 -0.19179458572E+03 -0.32833591429E+03  0.44616198222E+03  0.00000000000E+00 0. -1.
          1    1    1    2  502    0 -0.42966808819E+02 -0.53954904123E+01  0.50048221181E+03  0.50235216961E+03  0.00000000000E+00 0. -1.
         22    1    3    3    0    0 -0.99903535542E+02  0.12553288939E+03 -0.11154923864E+04  0.11269704907E+04  0.00000000000E+00 0. -1.
         22    1    3    3    0    0 -0.90519626838E+02  0.71657186745E+02 -0.33076046665E+03  0.35032990388E+03  0.00000000000E+00 0. -1.
</event>
<event>
 7    1  0.4402832E-005  0.5353681E+03  0.7818608E-02  0.1083070E+00
          2   -1    0    0  502    0  0.00000000000E+00  0.00000000000E+00  0.46549640764E+04  0.46549640764E+04  0.00000000000E+00 0. -1.
          1   -1    0    0  501    0 -0.00000000000E+00 -0.00000000000E+00 -0.45832898505E+03  0.45832898505E+03  0.00000000000E+00 0. -1.
         25    2    1    2    0    0 -0.31798143054E+03 -0.28201718717E+03  0.71027931172E+03  0.83711869059E+03  0.12500046976E+03 0.  0.
          2    1    1    2  501    0  0.33897806199E+03  0.45379421325E+03 -0.18871357048E+03  0.59703276809E+03  0.00000000000E+00 0. -1.
          1    1    1    2  502    0 -0.20996631446E+02 -0.17177702608E+03  0.36750693501E+04  0.36791416028E+04  0.00000000000E+00 0. -1.
         22    1    3    3    0    0 -0.12416815208E+03 -0.88208904149E+02  0.15197312828E+03  0.21516127087E+03  0.00000000000E+00 0.  1.
         22    1    3    3    0    0 -0.19381327847E+03 -0.19380828302E+03  0.55830618344E+03  0.62195741972E+03  0.00000000000E+00 0.  1.
</event>
<event>
 7    1  0.4402832E-005  0.7681754E+03  0.7818608E-02  0.9913750E-01
          2   -1    0    0  502    0  0.00000000000E+00  0.00000000000E+00  0.15867806873E+04  0.15867806873E+04  0.00000000000E+00 0. -1.
          1   -1    0    0  501    0 -0.00000000000E+00 -0.00000000000E+00 -0.12082796990E+04  0.12082796990E+04  0.00000000000E+00 0. -1.
         25    2    1    2    0    0 -0.36609016405E+03 -0.16522092410E+03 -0.30712818307E+03  0.52083861658E+03  0.12500072683E+03 0.  0.
          2    1    1    2  501    0  0.97747135691E+02  0.88500248283E+03 -0.37374738487E+03  0.96564538256E+03  0.00000000000E+00 0. -1.
          1    1    1    2  502    0  0.26834302836E+03 -0.71978155873E+03  0.10593765562E+04  0.13085763872E+04  0.00000000000E+00 0. -1.
         22    1    3    3    0    0 -0.28399602992E+03 -0.10196538723E+03 -0.28458826906E+03  0.41477845664E+03  0.00000000000E+00 0. -1.
         22    1    3    3    0    0 -0.82094134129E+02 -0.63255536870E+02 -0.22539914012E+02  0.10606015994E+03  0.00000000000E+00 0. -1.
</event>
<event>
 7    1  0.4402832E-005  0.1099964E+03  0.7818608E-02  0.1377837E+00
          2   -1    0    0  502    0  0.00000000000E+00  0.00000000000E+00  0.55198167550E+03  0.55198167550E+03  0.00000000000E+00 0. -1.
          1   -1    0    0  501    0 -0.00000000000E+00 -0.00000000000E+00 -0.53044903280E+03  0.53044903280E+03  0.00000000000E+00 0. -1.
         25    2    1    2    0    0 -0.55479262290E+02 -0.65282477371E+02  0.14675764556E+03  0.21095444581E+03  0.12499688509E+03 0.  0.
          2    1    1    2  501    0  0.30639012421E+00 -0.38451367720E+02 -0.48832665278E+03  0.48983826042E+03  0.00000000000E+00 0. -1.
          1    1    1    2  502    0  0.55172872166E+02  0.10373384509E+03  0.36310164993E+03  0.38163800207E+03  0.00000000000E+00 0. -1.
         22    1    3    3    0    0  0.35840217220E+02  0.18632340008E+01  0.20699290310E+02  0.41430102953E+02  0.00000000000E+00 0.  1.
         22    1    3    3    0    0 -0.91319479510E+02 -0.67145711372E+02  0.12605835525E+03  0.16952434286E+03  0.00000000000E+00 0.  1.
</event>
<event>
 7    1  0.4402832E-005  0.2745936E+03  0.7818608E-02  0.1307477E+00
          2   -1    0    0  502    0  0.00000000000E+00  0.00000000000E+00  0.16475307093E+04  0.16475307093E+04  0.00000000000E+00 0. -1.
          1   -1    0    0  501    0 -0.00000000000E+00 -0.00000000000E+00 -0.43502056582E+03  0.43502056582E+03  0.00000000000E+00 0. -1.
         25    2    1    2    0    0 -0.97936972551E+02  0.24600076878E+03 -0.13227043827E+03  0.32129177759E+03  0.12499963468E+03 0.  0.
          2    1    1    2  501    0  0.21506957348E+02  0.18358130261E+02 -0.19502149443E+03  0.19706078619E+03  0.00000000000E+00 0. -1.
          1    1    1    2  502    0  0.76430015203E+02 -0.26435889904E+03  0.15398020762E+04  0.15641987113E+04  0.00000000000E+00 0. -1.
         22    1    3    3    0    0 -0.34428886469E+02  0.11349969385E+03 -0.12770322426E+03  0.17428609300E+03  0.00000000000E+00 0. -1.
         22    1    3    3    0    0 -0.63508086082E+02  0.13250107493E+03 -0.45672140099E+01  0.14700568458E+03  0.00000000000E+00 0. -1.
</event>
<event>
 7    1  0.4402832E-005  0.2826097E+03  0.7818608E-02  0.1273094E+00
          2   -1    0    0  502    0  0.00000000000E+00  0.00000000000E+00  0.57845173393E+03  0.57845173393E+03  0.00000000000E+00 0. -1.
          1   -1    0    0  501    0 -0.00000000000E+00 -0.00000000000E+00 -0.28373475409E+04  0.28373475409E+04  0.00000000000E+00 0. -1.
         25    2    1    2    0    0 -0.11729722975E+03  0.25867912190E+03 -0.41620188505E+03  0.51915555959E+03  0.12499983085E+03 0.  0.
          2    1    1    2  501    0  0.35943092379E+02  0.12046247252E+02 -0.23315935431E+04  0.23319016849E+04  0.00000000000E+00 0. -1.
          1    1    1    2  502    0  0.81354137376E+02 -0.27072536915E+03  0.48889962120E+03  0.56474203029E+03  0.00000000000E+00 0. -1.
         22    1    3    3    0    0 -0.13434238349E+03  0.16418459668E+03 -0.31377022887E+03  0.37875614096E+03  0.00000000000E+00 0. -1.
         22    1    3    3    0    0  0.17045153737E+02  0.94494525220E+02 -0.10243165619E+03  0.14039941863E+03  0.00000000000E+00 0. -1.
</event>
<event>
 7    1  0.4402832E-005  0.9139830E+02  0.7818608E-02  0.1305114E+00
          2   -1    0    0  502    0  0.00000000000E+00  0.00000000000E+00  0.34671709055E+03  0.34671709055E+03  0.00000000000E+00 0. -1.
          1   -1    0    0  501    0 -0.00000000000E+00 -0.00000000000E+00 -0.12016572400E+04  0.12016572400E+04  0.00000000000E+00 0. -1.
         25    2    1    2    0    0 -0.50818858364E+00  0.15850690534E+03 -0.19416390586E+03  0.28008903480E+03  0.12500219110E+03 0.  0.
          2    1    1    2  501    0 -0.38825531312E+02 -0.77638295019E+02 -0.95586491614E+03  0.95979834582E+03  0.00000000000E+00 0. -1.
          1    1    1    2  502    0  0.39333719896E+02 -0.80868610321E+02  0.29508867251E+03  0.30848694997E+03  0.00000000000E+00 0. -1.
         22    1    3    3    0    0 -0.21874795548E+02 -0.10968242318E+02 -0.45683307143E+01  0.24893345804E+02  0.00000000000E+00 0. -1.
         22    1    3    3    0    0  0.21366606964E+02  0.16947514766E+03 -0.18959557514E+03  0.25519568899E+03  0.00000000000E+00 0. -1.
</event>
<event>
 7    1  0.4402832E-005  0.5839889E+03  0.7818608E-02  0.1101660E+00
          2   -1    0    0  502    0  0.00000000000E+00  0.00000000000E+00  0.27491531056E+04  0.27491531056E+04  0.00000000000E+00 0. -1.
          1   -1    0    0  501    0 -0.00000000000E+00 -0.00000000000E+00 -0.17112830494E+04  0.17112830494E+04  0.00000000000E+00 0. -1.
         25    2    1    2    0    0 -0.53055999995E+03 -0.35397694317E+00 -0.61417909093E+03  0.82117867062E+03  0.12499765797E+03 0.  0.
          2    1    1    2  501    0  0.63515625175E+03 -0.66651477318E+02 -0.88930742430E+03  0.10948669227E+04  0.00000000000E+00 0. -1.
          1    1    1    2  502    0 -0.10459625180E+03  0.67005454261E+02  0.25413565715E+04  0.25443905616E+04  0.00000000000E+00 0. -1.
         22    1    3    3    0    0 -0.50003374849E+03 -0.32075269474E+02 -0.56426742808E+03  0.75462593577E+03  0.00000000000E+00 0.  1.
         22    1    3    3    0    0 -0.30526251468E+02  0.31721292531E+02 -0.49911662847E+02  0.66552734855E+02  0.00000000000E+00 0.  1.
</event>
<event>
 7    1  0.4402832E-005  0.6797801E+03  0.7818608E-02  0.1040191E+00
          2   -1    0    0  502    0  0.00000000000E+00  0.00000000000E+00  0.17171576738E+04  0.17171576738E+04  0.00000000000E+00 0. -1.
          1   -1    0    0  501    0 -0.00000000000E+00 -0.00000000000E+00 -0.12599740572E+04  0.12599740572E+04  0.00000000000E+00 0. -1.
         25    2    1    2    0    0  0.72930055068E+03 -0.24793606925E+03 -0.20455900230E+03  0.80673522965E+03  0.12500303069E+03 0.  0.
          2    1    1    2  501    0 -0.64798803030E+03  0.13715207397E+02 -0.60078607569E+03  0.88375364388E+03  0.00000000000E+00 0. -1.
          1    1    1    2  502    0 -0.81312520386E+02  0.23422086185E+03  0.12625286946E+04  0.12866428575E+04  0.00000000000E+00 0. -1.
         22    1    3    3    0    0  0.71260998086E+02 -0.62762542108E+02 -0.72656506214E+01  0.95236842761E+02  0.00000000000E+00 0.  1.
         22    1    3    3    0    0  0.65803955260E+03 -0.18517352714E+03 -0.19729335168E+03  0.71149838689E+03  0.00000000000E+00 0.  1.
</event>
<event>
 7    1  0.4402832E-005  0.3344596E+03  0.7818608E-02  0.1110993E+00
          2   -1    0    0  502    0  0.00000000000E+00  0.00000000000E+00  0.72570993030E+03  0.72570993030E+03  0.00000000000E+00 0. -1.
          1   -1    0    0  501    0 -0.00000000000E+00 -0.00000000000E+00 -0.92096397232E+03  0.92096397232E+03  0.00000000000E+00 0. -1.
         25    2    1    2    0    0  0.41465737848E+03  0.23478940788E+03  0.16183270332E+03  0.51853724810E+03  0.12499698485E+03 0.  0.
          2    1    1    2  501    0 -0.14574651533E+03 -0.12564834003E+03 -0.67251916704E+03  0.69950810011E+03  0.00000000000E+00 0. -1.
          1    1    1    2  502    0 -0.26891086314E+03 -0.10914106785E+03  0.31543242170E+03  0.42862855442E+03  0.00000000000E+00 0. -1.
         22    1    3    3    0    0  0.28001877486E+03  0.20294170867E+03  0.15779296172E+03  0.38012428252E+03  0.00000000000E+00 0. -1.
         22    1    3    3    0    0  0.13463860361E+03  0.31847699211E+02  0.40397416086E+01  0.13841296558E+03  0.00000000000E+00 0. -1.
</event>
<event>
 7    1  0.4402832E-005  0.2888287E+03  0.7818608E-02  0.1217271E+00
          2   -1    0    0  502    0  0.00000000000E+00  0.00000000000E+00  0.11042366796E+04  0.11042366796E+04  0.00000000000E+00 0. -1.
          1   -1    0    0  501    0 -0.00000000000E+00 -0.00000000000E+00 -0.17905222598E+03  0.17905222598E+03  0.00000000000E+00 0. -1.
         25    2    1    2    0    0  0.23853790906E+03 -0.16049535344E+03  0.60036699036E+02  0.31920544728E+03  0.12501447839E+03 0.  0.
          2    1    1    2  501    0 -0.27690870740E+03  0.10792038152E+03  0.42180918303E+03  0.51599246881E+03  0.00000000000E+00 0. -1.
          1    1    1    2  502    0  0.38370798343E+02  0.52574971923E+02  0.44333857160E+03  0.44809098954E+03  0.00000000000E+00 0. -1.
         22    1    3    3    0    0  0.10506528059E+02 -0.64910704460E+02  0.53294273826E+01  0.65971126120E+02  0.00000000000E+00 0.  1.
         22    1    3    3    0    0  0.22803138100E+03 -0.95584648982E+02  0.54707271653E+02  0.25323432116E+03  0.00000000000E+00 0.  1.
</event>
<event>
 7    1  0.4402832E-005  0.1232793E+03  0.7818608E-02  0.1367026E+00
          2   -1    0    0  502    0  0.00000000000E+00  0.00000000000E+00  0.37330793352E+04  0.37330793352E+04  0.00000000000E+00 0. -1.
          1   -1    0    0  501    0 -0.00000000000E+00 -0.00000000000E+00 -0.58480029431E+02  0.58480029431E+02  0.00000000000E+00 0. -1.
         25    2    1    2    0    0 -0.59381832937E+02 -0.10976489248E+03  0.79279520716E+02  0.19361014033E+03  0.12500044131E+03 0.  0.
          2    1    1    2  501    0  0.52922029234E+02  0.72815874381E+02  0.30565974061E+04  0.30579225948E+04  0.00000000000E+00 0. -1.
          1    1    1    2  502    0  0.64598037026E+01  0.36949018095E+02  0.53872237899E+03  0.54002662955E+03  0.00000000000E+00 0. -1.
         22    1    3    3    0    0  0.18590506075E+02 -0.98392131964E+01  0.62270385127E+02  0.65726843043E+02  0.00000000000E+00 0. -1.
         22    1    3    3    0    0 -0.77972339012E+02 -0.99925679279E+02  0.17009135588E+02  0.12788329728E+03  0.00000000000E+00 0. -1.
</event>
<event>
 7    1  0.4402832E-005  0.2135324E+03  0.7818608E-02  0.1284682E+00
          2   -1    0    0  502    0  0.00000000000E+00  0.00000000000E+00  0.39859265175E+03  0.39859265175E+03  0.00000000000E+00 0. -1.
          1   -1    0    0  501    0 -0.00000000000E+00 -0.00000000000E+00 -0.26935485078E+03  0.26935485078E+03  0.00000000000E+00 0. -1.
         25    2    1    2    0    0  0.22413191207E+03 -0.92935419588E+02 -0.33922913836E+02  0.27504231283E+03  0.12500161417E+03 0.  0.
          2    1    1    2  501    0 -0.44159304377E+02 -0.82566703496E+01 -0.68923478655E+02  0.82271882671E+02  0.00000000000E+00 0. -1.
          1    1    1    2  502    0 -0.17997260769E+03  0.10119208994E+03  0.23208419346E+03  0.31063330703E+03  0.00000000000E+00 0. -1.
         22    1    3    3    0    0  0.14979915973E+03  0.38280553413E+01 -0.65502503996E+01  0.14999115988E+03  0.00000000000E+00 0. -1.
         22    1    3    3    0    0  0.74332752342E+02 -0.96763474930E+02 -0.27372663436E+02  0.12505115295E+03  0.00000000000E+00 0. -1.
</event>
<event>
 7    1  0.4402832E-005  0.4906358E+03  0.7818608E-02  0.1243089E+00
          2   -1    0    0  502    0  0.00000000000E+00  0.00000000000E+00  0.41812137297E+03  0.41812137297E+03  0.00000000000E+00 0. -1.
          1   -1    0    0  501    0 -0.00000000000E+00 -0.00000000000E+00 -0.12142678162E+04  0.12142678162E+04  0.00000000000E+00 0. -1.
         25    2    1    2    0    0 -0.31043450850E+03  0.37431597480E+03 -0.15562706224E+03  0.52566959088E+03  0.12500681267E+03 0.  0.
          2    1    1    2  501    0  0.17289352333E+02  0.23719752951E+02 -0.61078696206E+03  0.61149183266E+03  0.00000000000E+00 0. -1.
          1    1    1    2  502    0  0.29314515617E+03 -0.39803572775E+03 -0.29732418966E+02  0.49522776567E+03  0.00000000000E+00 0. -1.
         22    1    3    3    0    0 -0.51273446843E+02  0.59547131847E+02  0.20982488360E+02  0.81333216339E+02  0.00000000000E+00 0.  1.
         22    1    3    3    0    0 -0.25916106166E+03  0.31476884295E+03 -0.17660955060E+03  0.44433637454E+03  0.00000000000E+00 0.  1.
</event>
<event>
 7    1  0.4402832E-005  0.2614796E+03  0.7818608E-02  0.1181678E+00
          2   -1    0    0  502    0  0.00000000000E+00  0.00000000000E+00  0.47543510139E+03  0.47543510139E+03  0.00000000000E+00 0. -1.
          1   -1    0    0  501    0 -0.00000000000E+00 -0.00000000000E+00 -0.24701062748E+03  0.24701062748E+03  0.00000000000E+00 0. -1.
         25    2    1    2    0    0  0.91225322505E+02  0.28475461354E+03  0.67020774380E+01  0.32415473572E+03  0.12499650175E+03 0.  0.
          2    1    1    2  501    0 -0.12532955265E+03 -0.18453193061E+03  0.12978902047E+03  0.25807890270E+03  0.00000000000E+00 0. -1.
          1    1    1    2  502    0  0.34104230147E+02 -0.10022268292E+03  0.91933376006E+02  0.14021209045E+03  0.00000000000E+00 0. -1.
         22    1    3    3    0    0  0.10019866036E+03  0.18446479752E+03  0.47974846270E+02  0.21533373849E+03  0.00000000000E+00 0.  1.
         22    1    3    3    0    0 -0.89733378509E+01  0.10028981602E+03 -0.41272768832E+02  0.10882099722E+03  0.00000000000E+00 0.  1.
</event>
<event>
 7    1  0.4402832E-005  0.7024929E+03  0.7818608E-02  0.1117996E+00
          2   -1    0    0  502    0  0.00000000000E+00  0.00000000000E+00  0.31882053361E+04  0.31882053361E+04  0.00000000000E+00 0. -1.
          1   -1    0    0  501    0 -0.00000000000E+00 -0.00000000000E+00 -0.44094090955E+03  0.44094090955E+03  0.00000000000E+00 0. -1.
         25    2    1    2    0    0 -0.58436065398E+03  0.46193055350E+03  0.27311335359E+04  0.28336500267E+04  0.12499949104E+03 0.  0.
          2    1    1    2  501    0  0.58565907299E+03 -0.37808033710E+03  0.62113276180E+02  0.69985666400E+03  0.00000000000E+00 0. -1.
          1    1    1    2  502    0 -0.12984190090E+01 -0.83850216404E+02 -0.45982385556E+02  0.95639554915E+02  0.00000000000E+00 0. -1.
         22    1    3    3    0    0 -0.29288145421E+03  0.18809619879E+03  0.14686476498E+04  0.15093328478E+04  0.00000000000E+00 0.  1.
         22    1    3    3    0    0 -0.29147919976E+03  0.27383435472E+03  0.12624858862E+04  0.13243171790E+04  0.00000000000E+00 0.  1.
</event>
<event>
 7    1  0.4402832E-005  0.1304066E+03  0.7818608E-02  0.1287780E+00
          2   -1    0    0  502    0  0.00000000000E+00  0.00000000000E+00  0.57103497352E+03  0.57103497352E+03  0.00000000000E+00 0. -1.
          1   -1    0    0  501    0 -0.00000000000E+00 -0.00000000000E+00 -0.45425675688E+04  0.45425675688E+04  0.00000000000E+00 0. -1.
         25    2    1    2    0    0 -0.11384401854E+03 -0.89557245921E+02 -0.19990417054E+04  0.20081767778E+04  0.12500107991E+03 0.  0.
          2    1    1    2  501    0 -0.15078796377E+02  0.69835341462E+02 -0.25309404755E+04  0.25319486636E+04  0.00000000000E+00 0. -1.
          1    1    1    2  502    0  0.12892281491E+03  0.19721904459E+02  0.55844958554E+03  0.57347710095E+03  0.00000000000E+00 0. -1.
         22    1    3    3    0    0 -0.10030696746E+03 -0.61552370591E+02 -0.78838007898E+03  0.79711563213E+03  0.00000000000E+00 0.  1.
         22    1    3    3    0    0 -0.13537051072E+02 -0.28004875330E+02 -0.12106616264E+04  0.12110611456E+04  0.00000000000E+00 0.  1.
</event>
<event>
 7    1  0.4402832E-005  0.8761283E+03  0.7818608E-02  0.1116891E+00
          2   -1    0    0  502    0  0.00000000000E+00  0.00000000000E+00  0.10853877052E+04  0.10853877052E+04  0.00000000000E+00 0. -1.
          1   -1    0    0  501    0 -0.00000000000E+00 -0.00000000000E+00 -0.40278862415E+04  0.40278862415E+04  0.00000000000E+00 0. -1.
         25    2    1    2    0    0 -0.82840174295E+03  0.29970112730E+03 -0.21177577225E+04  0.22970836579E+04  0.12500138716E+03 0.  0.
          2    1    1    2  501    0  0.79461296571E+03 -0.35892082493E+03 -0.17146857136E+04  0.19236374451E+04  0.00000000000E+00 0. -1.
          1    1    1    2  502    0  0.33788777237E+02  0.59219697629E+02  0.88994489984E+03  0.89255284371E+03  0.00000000000E+00 0. -1.
         22    1    3    3    0    0 -0.10322559861E+03  0.78425781076E+02 -0.36630755549E+03  0.38857091059E+03  0.00000000000E+00 0.  1.
         22    1    3    3    0    0 -0.72517614433E+03  0.22127534622E+03 -0.17514501670E+04  0.19085127473E+04  0.00000000000E+00 0.  1.
</event>
<event>
 7    1  0.4402832E-005  0.4298215E+03  0.7818608E-02  0.1112982E+00
          2   -1    0    0  502    0  0.00000000000E+00  0.00000000000E+00  0.77769244401E+03  0.77769244401E+03  0.00000000000E+00 0. -1.
          1   -1    0    0  501    0 -0.00000000000E+00 -0.00000000000E+00 -0.87395722709E+03  0.87395722709E+03  0.00000000000E+00 0. -1.
         25    2    1    2    0    0 -0.23513150114E+03 -0.38845435775E+03  0.39989224257E+03  0.61783865615E+03  0.12500875363E+03 0.  0.
          2    1    1    2  501    0 -0.75604899333E+02  0.12490476341E+03 -0.59656474588E+03  0.61417163460E+03  0.00000000000E+00 0. -1.
          1    1    1    2  502    0  0.31073640047E+03  0.26354959434E+03  0.10040772023E+03  0.41963938034E+03  0.00000000000E+00 0. -1.
         22    1    3    3    0    0 -0.10072718836E+03 -0.92343530311E+02  0.65982160060E+02  0.15174629983E+03  0.00000000000E+00 0. -1.
         22    1    3    3    0    0 -0.13440431278E+03 -0.29611082744E+03  0.33391008251E+03  0.46609235632E+03  0.00000000000E+00 0. -1.
</event>
<event>
 7    1  0.4402832E-005  0.1052735E+04  0.7818608E-02  0.1139195E+00
          2   -1    0    0  502    0  0.00000000000E+00  0.00000000000E+00  0.31797369942E+04  0.31797369942E+04  0.00000000000E+00 0. -1.
          1   -1    0    0  501    0 -0.00000000000E+00 -0.00000000000E+00 -0.11590454253E+04  0.11590454253E+04  0.00000000000E+00 0. -1.
         25    2    1    2    0    0  0.95887904340E+03  0.43860150400E+03  0.11446098774E+04  0.15612741389E+04  0.12499946490E+03 0.  0.
          2    1    1    2  501    0  0.14750853691E+02 -0.40502726677E+02 -0.79866601974E+03  0.79982840012E+03  0.00000000000E+00 0. -1.
          1    1    1    2  502    0 -0.97362989709E+03 -0.39809877732E+03  0.16747477113E+04  0.19776798805E+04  0.00000000000E+00 0. -1.
         22    1    3    3    0    0  0.19697848026E+03  0.12714161721E+03  0.31444635728E+03  0.39222700585E+03  0.00000000000E+00 0. -1.
         22    1    3    3    0    0  0.76190056314E+03  0.31145988679E+03  0.83016352011E+03  0.11690471331E+04  0.00000000000E+00 0. -1.
</event>
<event>
 7    1  0.4402832E-005  0.2255132E+03  0.7818608E-02  0.1216921E+00
          2   -1    0    0  502    0  0.00000000000E+00  0.00000000000E+00  0.22285269988E+04  0.22285269988E+04  0.00000000000E+00 0. -1.
          1   -1    0    0  501    0 -0.00000000000E+00 -0.00000000000E+00 -0.75060394348E+03  0.75060394348E+03  0.00000000000E+00 0. -1.
         25    2    1    2    0    0 -0.40424268280E+02 -0.21762354457E+03  0.82585170231E+02  0.26726337677E+03  0.12496108835E+03 0.  0.
          2    1    1    2  501    0  0.12041052845E+03  0.19306822568E+03 -0.63771552649E+03  0.67709314562E+03  0.00000000000E+00 0. -1.
          1    1    1    2  502    0 -0.79986260168E+02  0.24555318895E+02  0.20330534116E+04  0.20347744199E+04  0.00000000000E+00 0. -1.
         22    1    3    3    0    0 -0.33261371289E+02 -0.44390140907E+02  0.75567044431E+02  0.93739968176E+02  0.00000000000E+00 0. -1.
         22    1    3    3    0    0 -0.71628969910E+01 -0.17323340367E+03  0.70181258008E+01  0.17352340859E+03  0.00000000000E+00 0. -1.
</event>
<event>
 7    1  0.4402832E-005  0.5052933E+03  0.7818608E-02  0.1033448E+00
          2   -1    0    0  502    0  0.00000000000E+00  0.00000000000E+00  0.13280137355E+04  0.13280137355E+04  0.00000000000E+00 0. -1.
          1   -1    0    0  501    0 -0.00000000000E+00 -0.00000000000E+00 -0.17950560378E+04  0.17950560378E+04  0.00000000000E+00 0. -1.
         25    2    1    2    0    0  0.23269696083E+03  0.39358752102E+03 -0.48331489402E+01  0.47403236661E+03  0.12499725192E+03 0.  0.
          2    1    1    2  501    0  0.11147290722E+03 -0.52428642581E+03 -0.14760844345E+04  0.15703909459E+04  0.00000000000E+00 0. -1.
          1    1    1    2  502    0 -0.34416986804E+03  0.13069890479E+03  0.10138752811E+04  0.10786464608E+04  0.00000000000E+00 0. -1.
         22    1    3    3    0    0  0.28572920724E+02  0.43955215013E+02  0.41047711826E+02  0.66583686979E+02  0.00000000000E+00 0. -1.
         22    1    3    3    0    0  0.20412404010E+03  0.34963230601E+03 -0.45880860766E+02  0.40744867963E+03  0.00000000000E+00 0. -1.
</event>
<event>
 7    1  0.4402832E-005  0.8361712E+02  0.7818608E-02  0.1403016E+00
          2   -1    0    0  502    0  0.00000000000E+00  0.00000000000E+00  0.25766740509E+04  0.25766740509E+04  0.00000000000E+00 0. -1.
          1   -1    0    0  501    0 -0.00000000000E+00 -0.00000000000E+00 -0.10284333516E+02  0.10284333516E+02  0.00000000000E+00 0. -1.
         25    2    1    2    0    0 -0.30387455476E+02 -0.93697504345E+02  0.78326599283E+03  0.79926850048E+03  0.12498760163E+03 0.  0.
          2    1    1    2  501    0 -0.24685115270E+02  0.33139714250E+02  0.84190836164E+03  0.84292187359E+03  0.00000000000E+00 0. -1.
          1    1    1    2  502    0  0.55072570747E+02  0.60557790094E+02  0.94121536289E+03  0.94476801033E+03  0.00000000000E+00 0. -1.
         22    1    3    3    0    0 -0.42761161262E+02 -0.11370033964E+03  0.48148647288E+03  0.49657376866E+03  0.00000000000E+00 0.  1.
         22    1    3    3    0    0  0.12373705786E+02  0.20002835293E+02  0.30177951994E+03  0.30269473182E+03  0.00000000000E+00 0.  1.
</event>
<event>
 7    1  0.4402832E-005  0.8257374E+02  0.7818608E-02  0.1493337E+00
          2   -1    0    0  502    0  0.00000000000E+00  0.00000000000E+00  0.14877180567E+03  0.14877180567E+03  0.00000000000E+00 0. -1.
          1   -1    0    0  501    0 -0.00000000000E+00 -0.00000000000E+00 -0.12004376380E+03  0.12004376380E+03  0.00000000000E+00 0. -1.
         25    2    1    2    0    0  0.13779723847E+02 -0.94474563787E+02  0.10099064369E+02  0.15761759242E+03  0.12500396133E+03 0.  0.
          2    1    1    2  501    0  0.89089242416E+01  0.19522784877E+02 -0.14781943146E+02  0.26057895227E+02  0.00000000000E+00 0. -1.
          1    1    1    2  502    0 -0.22688648089E+02  0.74951778910E+02  0.33410920646E+02  0.85140081820E+02  0.00000000000E+00 0. -1.
         22    1    3    3    0    0  0.62297476263E+02 -0.80815032915E+02  0.24999762221E+02  0.10505728535E+03  0.00000000000E+00 0. -1.
         22    1    3    3    0    0 -0.48517752416E+02 -0.13659530872E+02 -0.14900697852E+02  0.52560307073E+02  0.00000000000E+00 0. -1.
</event>
<event>
 7    1  0.4402832E-005  0.2189766E+03  0.7818608E-02  0.1188618E+00
          2   -1    0    0  502    0  0.00000000000E+00  0.00000000000E+00  0.12967164496E+03  0.12967164496E+03  0.00000000000E+00 0. -1.
          1   -1    0    0  501    0 -0.00000000000E+00 -0.00000000000E+00 -0.14773606382E+04  0.14773606382E+04  0.00000000000E+00 0. -1.
         25    2    1    2    0    0 -0.17184331507E+03  0.18972908603E+03 -0.10157241405E+04  0.10549158843E+04  0.12499897000E+03 0.  0.
          2    1    1    2  501    0  0.17371063312E+03 -0.72734724989E+02 -0.38119154901E+03  0.42517375426E+03  0.00000000000E+00 0. -1.
          1    1    1    2  502    0 -0.18673180481E+01 -0.11699436104E+03  0.49226696207E+02  0.12694264458E+03  0.00000000000E+00 0. -1.
         22    1    3    3    0    0 -0.14850944916E+03  0.73194297344E+02 -0.62047513069E+03  0.64218521430E+03  0.00000000000E+00 0.  1.
         22    1    3    3    0    0 -0.23333865911E+02  0.11653478869E+03 -0.39524900976E+03  0.41273067004E+03  0.00000000000E+00 0.  1.
</event>
<event>
 7    1  0.4402832E-005  0.4559966E+03  0.7818608E-02  0.1145225E+00
          2   -1    0    0  502    0  0.00000000000E+00  0.00000000000E+00  0.36879358421E+04  0.36879358421E+04  0.00000000000E+00 0. -1.
          1   -1    0    0  501    0 -0.00000000000E+00 -0.00000000000E+00 -0.20534028029E+04  0.20534028029E+04  0.00000000000E+00 0. -1.
         25    2    1    2    0    0 -0.48481944350E+03  0.59356849957E+02  0.17107407508E+04  0.17834887206E+04  0.12499988546E+03 0.  0.
          2    1    1    2  501    0  0.66149486957E+02  0.64743530016E+02 -0.19913777447E+04  0.19935277278E+04  0.00000000000E+00 0. -1.
          1    1    1    2  502    0  0.41866995655E+03 -0.12410037997E+03  0.19151700331E+04  0.19643221967E+04  0.00000000000E+00 0. -1.
         22    1    3    3    0    0 -0.41179925036E+03  0.75995925304E+02  0.15591851442E+04  0.16144387003E+04  0.00000000000E+00 0.  1.
         22    1    3    3    0    0 -0.73020193140E+02 -0.16639075347E+02  0.15155560666E+03  0.16905002024E+03  0.00000000000E+00 0.  1.
</event>
<event>
 7    1  0.4402832E-005  0.9697369E+02  0.7818608E-02  0.1342988E+00
          2   -1    0    0  502    0  0.00000000000E+00  0.00000000000E+00  0.12173050898E+04  0.12173050898E+04  0.00000000000E+00 0. -1.
          1   -1    0    0  501    0 -0.00000000000E+00 -0.00000000000E+00 -0.15785531961E+03  0.15785531961E+03  0.00000000000E+00 0. -1.
         25    2    1    2    0    0  0.90837811432E+02 -0.27347305281E+02  0.29817010505E+02  0.15973386674E+03  0.12500588377E+03 0.  0.
          2    1    1    2  501    0  0.16845578065E+01  0.58424002844E+02 -0.81347115190E+02  0.10016763446E+03  0.00000000000E+00 0. -1.
          1    1    1    2  502    0 -0.92522369239E+02 -0.31076697563E+02  0.11109798748E+04  0.11152589082E+04  0.00000000000E+00 0. -1.
         22    1    3    3    0    0  0.60868723626E+02 -0.55910808970E+02 -0.29188682458E+02  0.87652719633E+02  0.00000000000E+00 0.  1.
         22    1    3    3    0    0  0.29969087806E+02  0.28563503688E+02  0.59005692963E+02  0.72081147112E+02  0.00000000000E+00 0.  1.
</event>
<event>
 7    1  0.4402832E-005  0.5149994E+03  0.7818608E-02  0.1224886E+00
          2   -1    0    0  502    0  0.00000000000E+00  0.00000000000E+00  0.36279347726E+03  0.36279347726E+03  0.00000000000E+00 0. -1.
          1   -1    0    0  501    0 -0.00000000000E+00 -0.00000000000E+00 -0.12789465561E+04  0.12789465561E+04  0.00000000000E+00 0. -1.
         25    2    1    2    0    0 -0.42362789592E+03  0.30018378206E+03 -0.75586623935E+03  0.92548914459E+03  0.12500195101E+03 0.  0.
          2    1    1    2  501    0  0.39569082195E+03 -0.31903724837E+03 -0.28797020798E+03  0.58419417415E+03  0.00000000000E+00 0. -1.
          1    1    1    2  502    0  0.27937073964E+02  0.18853466308E+02  0.12768336848E+03  0.13205671463E+03  0.00000000000E+00 0. -1.
         22    1    3    3    0    0 -0.41045537905E+03  0.26059642850E+03 -0.72760827530E+03  0.87509880529E+03  0.00000000000E+00 0. -1.
         22    1    3    3    0    0 -0.13172516872E+02  0.39587353563E+02 -0.28257964054E+02  0.50390339306E+02  0.00000000000E+00 0. -1.
</event>
<event>
 7    1  0.4402832E-005  0.1217134E+04  0.7818608E-02  0.1162777E+00
          2   -1    0    0  502    0  0.00000000000E+00  0.00000000000E+00  0.22867942286E+04  0.22867942286E+04  0.00000000000E+00 0. -1.
          1   -1    0    0  501    0 -0.00000000000E+00 -0.00000000000E+00 -0.23541195506E+04  0.23541195506E+04  0.00000000000E+00 0. -1.
         25    2    1    2    0    0  0.11085892395E+04 -0.54994558962E+03  0.71721976029E+03  0.14357716565E+04  0.12500324550E+03 0.  0.
          2    1    1    2  501    0 -0.10937758494E+04  0.52593985463E+03 -0.18100359903E+04  0.21792633218E+04  0.00000000000E+00 0. -1.
          1    1    1    2  502    0 -0.14813390129E+02  0.24005734993E+02  0.10254909080E+04  0.10258788010E+04  0.00000000000E+00 0. -1.
         22    1    3    3    0    0  0.30314434241E+03 -0.11421266128E+03  0.13732109913E+03  0.35184955393E+03  0.00000000000E+00 0. -1.
         22    1    3    3    0    0  0.80544489713E+03 -0.43573292834E+03  0.57989866116E+03  0.10839221025E+04  0.00000000000E+00 0. -1.
</event>
<event>
 7    1  0.4402832E-005  0.1318555E+03  0.7818608E-02  0.1298520E+00
          2   -1    0    0  502    0  0.00000000000E+00  0.00000000000E+00  0.13122303233E+03  0.13122303233E+03  0.00000000000E+00 0. -1.
          1   -1    0    0  501    0 -0.00000000000E+00 -0.00000000000E+00 -0.10154281002E+04  0.10154281002E+04  0.00000000000E+00 0. -1.
         25    2    1    2    0    0  0.35565514482E+02  0.14000547456E+03 -0.79626502035E+03  0.81885885157E+03  0.12500158971E+03 0.  0.
          2    1    1    2  501    0  0.24167398817E+02 -0.11722201037E+03 -0.17972876348E+03  0.21593399757E+03  0.00000000000E+00 0. -1.
          1    1    1    2  502    0 -0.59732913300E+02 -0.22783464187E+02  0.91788715995E+02  0.11185828336E+03  0.00000000000E+00 0. -1.
         22    1    3    3    0    0 -0.79702568672E+01 -0.12017648868E+02 -0.24329922031E+03  0.24372619777E+03  0.00000000000E+00 0.  1.
         22    1    3    3    0    0  0.43535771350E+02  0.15202312343E+03 -0.55296580005E+03  0.57513265380E+03  0.00000000000E+00 0.  1.
</event>
<event>
 7    1  0.4402832E-005  0.3583739E+03  0.7818608E-02  0.1292279E+00
          2   -1    0    0  502    0  0.00000000000E+00  0.00000000000E+00  0.80838532392E+03  0.80838532392E+03  0.00000000000E+00 0. -1.
          1   -1    0    0  501    0 -0.00000000000E+00 -0.00000000000E+00 -0.84188828664E+03  0.84188828664E+03  0.00000000000E+00 0. -1.
         25    2    1    2    0    0  0.32098747220E+02 -0.36597453575E+03  0.48362129290E+03  0.62006625771E+03  0.12499967447E+03 0.  0.
          2    1    1    2  501    0 -0.80861750841E+01  0.23576906480E+02 -0.65851578851E+03  0.65898732952E+03  0.00000000000E+00 0. -1.
          1    1    1    2  502    0 -0.24012572136E+02  0.34239762927E+03  0.14139153289E+03  0.37122002333E+03  0.00000000000E+00 0. -1.
         22    1    3    3    0    0  0.64935638108E+02 -0.30102568681E+03  0.33785929082E+03  0.45714549282E+03  0.00000000000E+00 0. -1.
         22    1    3    3    0    0 -0.32836890888E+02 -0.64948848942E+02  0.14576200208E+03  0.16292076489E+03  0.00000000000E+00 0. -1.
</event>
<event>
 7    1  0.4402832E-005  0.1917159E+03  0.7818608E-02  0.1248224E+00
          2   -1    0    0  502    0  0.00000000000E+00  0.00000000000E+00  0.67868579457E+03  0.67868579457E+03  0.00000000000E+00 0. -1.
          1   -1    0    0  501    0 -0.00000000000E+00 -0.00000000000E+00 -0.34498044388E+03  0.34498044388E+03  0.00000000000E+00 0. -1.
         25    2    1    2    0    0  0.44240842675E+02  0.11908664946E+03 -0.26031817936E+03  0.31548770234E+03  0.12501221373E+03 0.  0.
          2    1    1    2  501    0  0.47453619707E+02  0.53262099283E+02 -0.11235357163E+02  0.72214475653E+02  0.00000000000E+00 0. -1.
          1    1    1    2  502    0 -0.91694462382E+02 -0.17234874875E+03  0.60525888722E+03  0.63596406045E+03  0.00000000000E+00 0. -1.
         22    1    3    3    0    0 -0.28803309774E+02  0.80692863216E+02 -0.80165293897E+02  0.11733474836E+03  0.00000000000E+00 0. -1.
         22    1    3    3    0    0  0.73044152449E+02  0.38393786248E+02 -0.18015288546E+03  0.19815295398E+03  0.00000000000E+00 0. -1.
</event>
<event>
 7    1  0.4402832E-005  0.1476291E+04  0.7818608E-02  0.1065486E+00
          2   -1    0    0  502    0  0.00000000000E+00  0.00000000000E+00  0.23652933730E+04  0.23652933730E+04  0.00000000000E+00 0. -1.
          1   -1    0    0  501    0 -0.00000000000E+00 -0.00000000000E+00 -0.10840985855E+04  0.10840985855E+04  0.00000000000E+00 0. -1.
         25    2    1    2    0    0  0.13592240640E+03 -0.14566888971E+04  0.11283140001E+04  0.18517923435E+04  0.12499982820E+03 0.  0.
          2    1    1    2  501    0 -0.66045287995E+02 -0.44673610666E+02  0.43024175812E+02  0.90602379994E+02  0.00000000000E+00 0. -1.
          1    1    1    2  502    0 -0.69877118405E+02  0.15013625077E+04  0.10985661149E+03  0.15069972350E+04  0.00000000000E+00 0. -1.
         22    1    3    3    0    0 -0.31169346141E+01 -0.36141384248E+03  0.32916292280E+03  0.48885366989E+03  0.00000000000E+00 0. -1.
         22    1    3    3    0    0  0.13903934101E+03 -0.10952750546E+04  0.79915107734E+03  0.13629386736E+04  0.00000000000E+00 0. -1.
</event>
<event>
 7    1  0.4402832E-005  0.1971672E+03  0.7818608E-02  0.1291633E+00
          2   -1    0    0  502    0  0.00000000000E+00  0.00000000000E+00  0.19804643143E+04  0.19804643143E+04  0.00000000000E+00 0. -1.
          1   -1    0    0  501    0 -0.00000000000E+00 -0.00000000000E+00 -0.57151701076E+02  0.57151701076E+02  0.00000000000E+00 0. -1.
         25    2    1    2    0    0 -0.48249128468E+02  0.18982016736E+03  0.39974439387E+03  0.46236361838E+03  0.12499944336E+03 0.  0.
          2    1    1    2  501    0 -0.43397409633E+02 -0.13930035606E+02  0.74098961677E+01  0.46176699926E+02  0.00000000000E+00 0. -1.
          1    1    1    2  502    0  0.91646538101E+02 -0.17589013175E+03  0.15161583231E+04  0.15290756970E+04  0.00000000000E+00 0. -1.
         22    1    3    3    0    0 -0.19286866508E+02  0.13160300028E+03  0.36534060812E+03  0.38879955355E+03  0.00000000000E+00 0.  1.
         22    1    3    3    0    0 -0.28962261960E+02  0.58217167076E+02  0.34403785749E+02  0.73564064828E+02  0.00000000000E+00 0.  1.
</event>
<event>
 7    1  0.4402832E-005  0.4150091E+03  0.7818608E-02  0.1153377E+00
          2   -1    0    0  502    0  0.00000000000E+00  0.00000000000E+00  0.64856521668E+03  0.64856521668E+03  0.00000000000E+00 0. -1.
          1   -1    0    0  501    0 -0.00000000000E+00 -0.00000000000E+00 -0.49549887560E+03  0.49549887560E+03  0.00000000000E+00 0. -1.
         25    2    1    2    0    0  0.37564889560E+03 -0.26121047393E+03  0.19287993179E+03  0.51202613866E+03  0.12500037652E+03 0.  0.
          2    1    1    2  501    0 -0.92222735051E+02  0.44123033801E+01 -0.19775704270E+03  0.21824836590E+03  0.00000000000E+00 0. -1.
          1    1    1    2  502    0 -0.28342616055E+03  0.25679817055E+03  0.15794345199E+03  0.41378958772E+03  0.00000000000E+00 0. -1.
         22    1    3    3    0    0  0.31158219222E+02 -0.20775958424E+02  0.61244680983E+02  0.71787088131E+02  0.00000000000E+00 0. -1.
         22    1    3    3    0    0  0.34449067638E+03 -0.24043451550E+03  0.13163525081E+03  0.44023905053E+03  0.00000000000E+00 0. -1.
</event>
<event>
 7    1  0.4402832E-005  0.5165717E+03  0.7818608E-02  0.1032771E+00
          2   -1    0    0  502    0  0.00000000000E+00  0.00000000000E+00  0.41307619535E+03  0.41307619535E+03  0.00000000000E+00 0. -1.
          1   -1    0    0  501    0 -0.00000000000E+00 -0.00000000000E+00 -0.22395368353E+04  0.22395368353E+04  0.00000000000E+00 0. -1.
         25    2    1    2    0    0 -0.54082158367E+03 -0.13311755973E+03 -0.88028506039E+03  0.10491582001E+04  0.12499148491E+03 0.  0.
          2    1    1    2  501    0  0.32814435505E+03  0.42818890105E+03 -0.10869295597E+04  0.12134415192E+04  0.00000000000E+00 0. -1.
          1    1    1    2  502    0  0.21267722862E+03 -0.29507134132E+03  0.14075398019E+03  0.39001331129E+03  0.00000000000E+00 0. -1.
         22    1    3    3    0    0 -0.10020713850E+03 -0.35505137538E+01 -0.88129079341E+02  0.13349461180E+03  0.00000000000E+00 0. -1.
         22    1    3    3    0    0 -0.44061444517E+03 -0.12956704597E+03 -0.79215598105E+03  0.91566358834E+03  0.00000000000E+00 0. -1.
</event>
<event>
 7    1  0.4402832E-005  0.4092491E+03  0.7818608E-02  0.1187653E+00
          2   -1    0    0  502    0  0.00000000000E+00  0.00000000000E+00  0.16804494065E+04  0.16804494065E+04  0.00000000000E+00 0. -1.
          1   -1    0    0  501    0 -0.00000000000E+00 -0.00000000000E+00 -0.38797951191E+03  0.38797951191E+03  0.00000000000E+00 0. -1.
         25    2    1    2    0    0 -0.24919454843E+03 -0.27466317565E+03  0.37047039511E+03  0.53889673072E+03  0.12499435866E+03 0.  0.
          2    1    1    2  501    0 -0.60451981791E+02 -0.18710954504E+02 -0.26278696228E+03  0.27029896312E+03  0.00000000000E+00 0. -1.
          1    1    1    2  502    0  0.30964653022E+03  0.29337413016E+03  0.11847864617E+04  0.12592332246E+04  0.00000000000E+00 0. -1.
         22    1    3    3    0    0 -0.25661633117E+03 -0.23874421450E+03  0.35565208828E+03  0.49933871198E+03  0.00000000000E+00 0. -1.
         22    1    3    3    0    0  0.74217827398E+01 -0.35918961150E+02  0.14818306830E+02  0.39558018737E+02  0.00000000000E+00 0. -1.
</event>
<event>
 7    1  0.4402832E-005  0.1251763E+04  0.7818608E-02  0.1045347E+00
          2   -1    0    0  502    0  0.00000000000E+00  0.00000000000E+00  0.15731985695E+04  0.15731985695E+04  0.00000000000E+00 0. -1.
          1   -1    0    0  501    0 -0.00000000000E+00 -0.00000000000E+00 -0.14594420489E+04  0.14594420489E+04  0.00000000000E+00 0. -1.
         25    2    1    2    0    0  0.10042778913E+04  0.86041914010E+03  0.45976338553E+03  0.14056682912E+04  0.12500317801E+03 0.  0.
          2    1    1    2  501    0 -0.87975581925E+03 -0.84991284309E+03 -0.58602390218E+03  0.13563724254E+04  0.00000000000E+00 0. -1.
          1    1    1    2  502    0 -0.12452207203E+03 -0.10506297018E+02  0.24001703727E+03  0.27059990185E+03  0.00000000000E+00 0. -1.
         22    1    3    3    0    0  0.53793754475E+03  0.53670701453E+03  0.23926930259E+03  0.79666870195E+03  0.00000000000E+00 0. -1.
         22    1    3    3    0    0  0.46634034653E+03  0.32371212557E+03  0.22049408294E+03  0.60899958921E+03  0.00000000000E+00 0. -1.
</event>
<event>
 7    1  0.4402832E-005  0.8408940E+03  0.7818608E-02  0.1142784E+00
          2   -1    0    0  502    0  0.00000000000E+00  0.00000000000E+00  0.21926538050E+04  0.21926538050E+04  0.00000000000E+00 0. -1.
          1   -1    0    0  501    0 -0.00000000000E+00 -0.00000000000E+00 -0.62485910552E+03  0.62485910552E+03  0.00000000000E+00 0. -1.
         25    2    1    2    0    0  0.15602785336E+03  0.85258937440E+03  0.23928419911E+03  0.90781875081E+03  0.12499849603E+03 0.  0.
          2    1    1    2  501    0 -0.14592872399E+03 -0.80190358752E+03  0.28284881783E+03  0.86275605469E+03  0.00000000000E+00 0. -1.
          1    1    1    2  502    0 -0.10099129370E+02 -0.50685786886E+02  0.10456616826E+04  0.10469381050E+04  0.00000000000E+00 0. -1.
         22    1    3    3    0    0  0.33093059256E+02  0.75402029219E+02  0.56948462174E+02  0.10011864924E+03  0.00000000000E+00 0.  1.
         22    1    3    3    0    0  0.12293479410E+03  0.77718734518E+03  0.18233573694E+03  0.80770010157E+03  0.00000000000E+00 0.  1.
</event>
<event>
 7    1  0.4402832E-005  0.1504012E+03  0.7818608E-02  0.1228710E+00
          2   -1    0    0  502    0  0.00000000000E+00  0.00000000000E+00  0.74617244427E+03  0.74617244427E+03  0.00000000000E+00 0. -1.
          1   -1    0    0  501    0 -0.00000000000E+00 -0.00000000000E+00 -0.70663499313E+03  0.70663499313E+03  0.00000000000E+00 0. -1.
         25    2    1    2    0    0  0.20673462367E+03  0.14478706649E+03 -0.65412839961E+03  0.71218767345E+03  0.12499927916E+03 0.  0.
          2    1    1    2  501    0 -0.10457162714E+03 -0.36974599237E+02  0.28837440865E+03  0.30896949001E+03  0.00000000000E+00 0. -1.
          1    1    1    2  502    0 -0.10216299653E+03 -0.10781246726E+03  0.40529144210E+03  0.43165027394E+03  0.00000000000E+00 0. -1.
         22    1    3    3    0    0  0.15547182452E+03  0.84328402557E+02 -0.29121221847E+03  0.34071589908E+03  0.00000000000E+00 0.  1.
         22    1    3    3    0    0  0.51262799147E+02  0.60458663935E+02 -0.36291618114E+03  0.37147177437E+03  0.00000000000E+00 0.  1.
</event>
<event>
 7    1  0.4402832E-005  0.5561350E+03  0.7818608E-02  0.1138853E+00
          2   -1    0    0  502    0  0.00000000000E+00  0.00000000000E+00  0.62405048133E+03  0.62405048133E+03  0.00000000000E+00 0. -1.
          1   -1    0    0  501    0 -0.00000000000E+00 -0.00000000000E+00 -0.23617850337E+04  0.23617850337E+04  0.00000000000E+00 0. -1.
         25    2    1    2    0    0 -0.30053863429E+03 -0.42869280494E+03 -0.54813540009E+02  0.54104540447E+03  0.12499845527E+03 0.  0.
          2    1    1    2  501    0  0.25841520049E+03  0.49896969474E+03 -0.20206182815E+04  0.20972952610E+04  0.00000000000E+00 0. -1.
          1    1    1    2  502    0  0.42123433801E+02 -0.70276889797E+02  0.33769726913E+03  0.34749484960E+03  0.00000000000E+00 0. -1.
         22    1    3    3    0    0 -0.30710228539E+03 -0.41461346141E+03 -0.36819150588E+02  0.51727341506E+03  0.00000000000E+00 0. -1.
         22    1    3    3    0    0  0.65636510992E+01 -0.14079343530E+02 -0.17994389421E+02  0.23771989412E+02  0.00000000000E+00 0. -1.
</event>
<event>
 7    1  0.4977124E-005  0.9300322E+03  0.7818608E-02  0.1195546E+00
          2   -1    0    0  502    0  0.00000000000E+00  0.00000000000E+00  0.23074100713E+04  0.23074100713E+04  0.00000000000E+00 0. -1.
          1   -1    0    0  501    0 -0.00000000000E+00 -0.00000000000E+00 -0.97422664636E+03  0.97422664636E+03  0.00000000000E+00 0. -1.
         25    2    1    2    0    0  0.62693988464E+03 -0.66084400356E+03  0.86668760796E+02  0.92352866689E+03  0.12500123390E+03 0.  0.
          2    1    1    2  501    0  0.21787110533E+02 -0.13302443181E+02 -0.43398003036E+03  0.43473014610E+03  0.00000000000E+00 0. -1.
          1    1    1    2  502    0 -0.64872699518E+03  0.67414644674E+03  0.16804946945E+04  0.19233779047E+04  0.00000000000E+00 0. -1.
         22    1    3    3    0    0  0.19968040422E+03 -0.17103322891E+03 -0.24737815290E+02  0.26407686140E+03  0.00000000000E+00 0.  1.
         22    1    3    3    0    0  0.42725948043E+03 -0.48981077465E+03  0.11140657609E+03  0.65945180549E+03  0.00000000000E+00 0.  1.
</event>
<event>
 7    1  0.4402832E-005  0.5494636E+03  0.7818608E-02  0.1156452E+00
          2   -1    0    0  502    0  0.00000000000E+00  0.00000000000E+00  0.24077891009E+04  0.24077891009E+04  0.00000000000E+00 0. -1.
          1   -1    0    0  501    0 -0.00000000000E+00 -0.00000000000E+00 -0.60538174627E+03  0.60538174627E+03  0.00000000000E+00 0. -1.
         25    2    1    2    0    0 -0.35762837674E+03 -0.43619274355E+03  0.87006077362E+03  0.10444103935E+04  0.12500061929E+03 0.  0.
          2    1    1    2  501    0 -0.32124228178E+02  0.59095167969E+02 -0.46501331676E+03  0.46985273191E+03  0.00000000000E+00 0. -1.
          1    1    1    2  502    0  0.38975260492E+03  0.37709757558E+03  0.13973598978E+04  0.14989077218E+04  0.00000000000E+00 0. -1.
         22    1    3    3    0    0 -0.30806665237E+03 -0.29093855370E+03  0.61852619353E+03  0.74974992925E+03  0.00000000000E+00 0.  1.
         22    1    3    3    0    0 -0.49561724366E+02 -0.14525418986E+03  0.25153458009E+03  0.29466046422E+03  0.00000000000E+00 0.  1.
</event>
<event>
 7    1  0.4402832E-005  0.1222073E+03  0.7818608E-02  0.1262951E+00
          2   -1    0    0  502    0  0.00000000000E+00  0.00000000000E+00  0.15233384540E+04  0.15233384540E+04  0.00000000000E+00 0. -1.
          1   -1    0    0  501    0 -0.00000000000E+00 -0.00000000000E+00 -0.21219312243E+03  0.21219312243E+03  0.00000000000E+00 0. -1.
         25    2    1    2    0    0 -0.34915017608E+02 -0.95447205362E+02  0.11740893844E+04  0.11850908308E+04  0.12500066811E+03 0.  0.
          2    1    1    2  501    0  0.12212682759E+03 -0.44348171880E+01 -0.17381221991E+03  0.21247427470E+03  0.00000000000E+00 0. -1.
          1    1    1    2  502    0 -0.87211809980E+02  0.99882022550E+02  0.31086816703E+03  0.33796647097E+03  0.00000000000E+00 0. -1.
         22    1    3    3    0    0  0.44770819660E+02 -0.21839402720E+02  0.47962137479E+03  0.48220125359E+03  0.00000000000E+00 0.  1.
         22    1    3    3    0    0 -0.79685837268E+02 -0.73607802643E+02  0.69446800965E+03  0.70288957717E+03  0.00000000000E+00 0.  1.
</event>
<event>
 7    1  0.4402832E-005  0.2023147E+03  0.7818608E-02  0.1245280E+00
          2   -1    0    0  502    0  0.00000000000E+00  0.00000000000E+00  0.48000652867E+03  0.48000652867E+03  0.00000000000E+00 0. -1.
          1   -1    0    0  501    0 -0.00000000000E+00 -0.00000000000E+00 -0.91255711739E+03  0.91255711739E+03  0.00000000000E+00 0. -1.
         25    2    1    2    0    0  0.19090232381E+03  0.97112792151E+02 -0.22272206440E+03  0.33332422066E+03  0.12500130587E+03 0.  0.
          2    1    1    2  501    0 -0.50264337984E+02  0.48180562110E+02 -0.60836607225E+03  0.61233744627E+03  0.00000000000E+00 0. -1.
          1    1    1    2  502    0 -0.14063798583E+03 -0.14529335426E+03  0.39853754793E+03  0.44690197914E+03  0.00000000000E+00 0. -1.
         22    1    3    3    0    0  0.40747283189E+02  0.47625860442E+02 -0.14327581837E+03  0.15638581713E+03  0.00000000000E+00 0.  1.
         22    1    3    3    0    0  0.15015504062E+03  0.49486931709E+02 -0.79446246029E+02  0.17693840353E+03  0.00000000000E+00 0.  1.
</event>
<event>
 7    1  0.4402832E-005  0.1727493E+03  0.7818608E-02  0.1210727E+00
          2   -1    0    0  502    0  0.00000000000E+00  0.00000000000E+00  0.14291668151E+04  0.14291668151E+04  0.00000000000E+00 0. -1.
          1   -1    0    0  501    0 -0.00000000000E+00 -0.00000000000E+00 -0.49528458047E+02  0.49528458047E+02  0.00000000000E+00 0. -1.
         25    2    1    2    0    0 -0.42341921456E+02  0.20783167299E+03  0.47509478112E+03  0.53509519351E+03  0.12499988984E+03 0.  0.
          2    1    1    2  501    0  0.10350335372E+03 -0.10850752380E+03  0.44996590358E+03  0.47429541568E+03  0.00000000000E+00 0. -1.
          1    1    1    2  502    0 -0.61161432259E+02 -0.99324149197E+02  0.45457767234E+03  0.46930466395E+03  0.00000000000E+00 0. -1.
         22    1    3    3    0    0 -0.16603343561E+02 -0.11848989528E+02  0.77276961713E+02  0.79923703504E+02  0.00000000000E+00 0.  1.
         22    1    3    3    0    0 -0.25738577896E+02  0.21968066252E+03  0.39781781941E+03  0.45517149001E+03  0.00000000000E+00 0.  1.
</event>
<event>
 7    1  0.4402832E-005  0.9535350E+03  0.7818608E-02  0.1093176E+00
          2   -1    0    0  502    0  0.00000000000E+00  0.00000000000E+00  0.24172695596E+04  0.24172695596E+04  0.00000000000E+00 0. -1.
          1   -1    0    0  501    0 -0.00000000000E+00 -0.00000000000E+00 -0.18724516942E+04  0.18724516942E+04  0.00000000000E+00 0. -1.
         25    2    1    2    0    0 -0.43748243260E+03 -0.87620165875E+03 -0.94866859791E+03  0.13692029660E+04  0.12499771172E+03 0.  0.
          2    1    1    2  501    0  0.35823844544E+03  0.84552794843E+03 -0.41672303902E+03  0.10084197472E+04  0.00000000000E+00 0. -1.
          1    1    1    2  502    0  0.79243987162E+02  0.30673710319E+02  0.19102095024E+04  0.19120985406E+04  0.00000000000E+00 0. -1.
         22    1    3    3    0    0 -0.27455295745E+02 -0.31111502991E+02 -0.13224137272E+02  0.43549933288E+02  0.00000000000E+00 0. -1.
         22    1    3    3    0    0 -0.41002713686E+03 -0.84509015576E+03 -0.93544446064E+03  0.13256530328E+04  0.00000000000E+00 0. -1.
</event>
<event>
 7    1  0.4402832E-005  0.6262745E+03  0.7818608E-02  0.1073248E+00
          2   -1    0    0  502    0  0.00000000000E+00  0.00000000000E+00  0.15746464103E+04  0.15746464103E+04  0.00000000000E+00 0. -1.
          1   -1    0    0  501    0 -0.00000000000E+00 -0.00000000000E+00 -0.10195066096E+04  0.10195066096E+04  0.00000000000E+00 0. -1.
         25    2    1    2    0    0 -0.13572489979E+03 -0.68950289918E+03  0.38907245869E+03  0.81291899885E+03  0.12499769667E+03 0.  0.
          2    1    1    2  501    0 -0.95838911436E+02  0.13912229066E+03 -0.70511026840E+03  0.72506592756E+03  0.00000000000E+00 0. -1.
          1    1    1    2  502    0  0.23156381122E+03  0.55038060852E+03  0.87117761035E+03  0.10561680935E+04  0.00000000000E+00 0. -1.
         22    1    3    3    0    0 -0.83861258744E+02 -0.30942222741E+03  0.11149144258E+03  0.33941886704E+03  0.00000000000E+00 0. -1.
         22    1    3    3    0    0 -0.51863641042E+02 -0.38008067177E+03  0.27758101611E+03  0.47350013181E+03  0.00000000000E+00 0. -1.
</event>
<event>
 7    1  0.4402832E-005  0.2447569E+03  0.7818608E-02  0.1244040E+00
          2   -1    0    0  502    0  0.00000000000E+00  0.00000000000E+00  0.76966333541E+03  0.76966333541E+03  0.00000000000E+00 0. -1.
          1   -1    0    0  501    0 -0.00000000000E+00 -0.00000000000E+00 -0.33671951945E+03  0.33671951945E+03  0.00000000000E+00 0. -1.
         25    2    1    2    0    0 -0.21899310186E+03 -0.16958523327E+03  0.39988303803E+03  0.50224362161E+03  0.12500032536E+03 0.  0.
          2    1    1    2  501    0  0.36720829738E+02  0.45251819000E+02 -0.24348406544E+03  0.25036101250E+03  0.00000000000E+00 0. -1.
          1    1    1    2  502    0  0.18227227212E+03  0.12433341427E+03  0.27654484336E+03  0.35377822075E+03  0.00000000000E+00 0. -1.
         22    1    3    3    0    0 -0.20428007816E+03 -0.94457709472E+02  0.32361217253E+03  0.39417946094E+03  0.00000000000E+00 0. -1.
         22    1    3    3    0    0 -0.14713023696E+02 -0.75127523799E+02  0.76270865493E+02  0.10806416067E+03  0.00000000000E+00 0. -1.
</event>
<event>
 7    1  0.6219860E-005  0.4755282E+03  0.7818608E-02  0.1213871E+00
          2   -1    0    0  502    0  0.00000000000E+00  0.00000000000E+00  0.26867406847E+04  0.26867406847E+04  0.00000000000E+00 0. -1.
          1   -1    0    0  501    0 -0.00000000000E+00 -0.00000000000E+00 -0.17857979161E+04  0.17857979161E+04  0.00000000000E+00 0. -1.
         25    2    1    2    0    0 -0.35136431509E+03  0.29987338731E+03 -0.53355790651E+03  0.71672244565E+03  0.12500437657E+03 0.  0.
          2    1    1    2  501    0  0.15806738133E+02  0.37810047937E+02 -0.11384540530E+04  0.11391914165E+04  0.00000000000E+00 0. -1.
          1    1    1    2  502    0  0.33555757696E+03 -0.33768343525E+03  0.25729547281E+04  0.26166247386E+04  0.00000000000E+00 0. -1.
         22    1    3    3    0    0 -0.93997767740E+02  0.15789663907E+03 -0.18458694529E+03  0.26045972691E+03  0.00000000000E+00 0.  1.
         22    1    3    3    0    0 -0.25736654735E+03  0.14197674824E+03 -0.34897096123E+03  0.45626271875E+03  0.00000000000E+00 0.  1.
</event>
<event>
 7    1  0.5993351E-005  0.1338379E+03  0.7818608E-02  0.1238875E+00
          2   -1    0    0  502    0  0.00000000000E+00  0.00000000000E+00  0.13091684623E+04  0.13091684623E+04  0.00000000000E+00 0. -1.
          1   -1    0    0  501    0 -0.00000000000E+00 -0.00000000000E+00 -0.10571747733E+04  0.10571747733E+04  0.00000000000E+00 0. -1.
         25    2    1    2    0    0 -0.43810600746E+02 -0.21432285265E+03 -0.45532396062E+03  0.52038285283E+03  0.12499900199E+03 0.  0.
          2    1    1    2  501    0 -0.14330438982E+02  0.11824662619E+03 -0.56058229089E+03  0.57309696470E+03  0.00000000000E+00 0. -1.
          1    1    1    2  502    0  0.58141039729E+02  0.96076226459E+02  0.12678999405E+04  0.12728634180E+04  0.00000000000E+00 0. -1.
         22    1    3    3    0    0 -0.48164060142E+02 -0.13110681183E+03 -0.15470542498E+03  0.20842874398E+03  0.00000000000E+00 0.  1.
         22    1    3    3    0    0  0.43534593956E+01 -0.83216040814E+02 -0.30061853564E+03  0.31195410885E+03  0.00000000000E+00 0.  1.
</event>
<event>
 7    1  0.4402832E-005  0.6042906E+02  0.7818608E-02  0.1441824E+00
          2   -1    0    0  502    0  0.00000000000E+00  0.00000000000E+00  0.32396421594E+04  0.32396421594E+04  0.00000000000E+00 0. -1.
          1   -1    0    0  501    0 -0.00000000000E+00 -0.00000000000E+00 -0.17584404286E+02  0.17584404286E+02  0.00000000000E+00 0. -1.
         25    2    1    2    0    0  0.52732749477E+02  0.69444182767E+02  0.27859686678E+04  0.27901342938E+04  0.12499888901E+03 0.  0.
          2    1    1    2  501    0 -0.28365515800E+02 -0.31604442411E+02  0.17241470416E+02  0.45833520144E+02  0.00000000000E+00 0. -1.
          1    1    1    2  502    0 -0.24367233676E+02 -0.37839740356E+02  0.41884761685E+03  0.42125874967E+03  0.00000000000E+00 0. -1.
         22    1    3    3    0    0  0.36415298612E+02  0.16442499775E+02  0.23865148216E+04  0.23868492670E+04  0.00000000000E+00 0.  1.
         22    1    3    3    0    0  0.16317450864E+02  0.53001682991E+02  0.39945384622E+03  0.40328502682E+03  0.00000000000E+00 0.  1.
</event>
<event>
 7    1  0.4402832E-005  0.4502219E+03  0.7818608E-02  0.1099481E+00
          2   -1    0    0  502    0  0.00000000000E+00  0.00000000000E+00  0.10318986767E+04  0.10318986767E+04  0.00000000000E+00 0. -1.
          1   -1    0    0  501    0 -0.00000000000E+00 -0.00000000000E+00 -0.67529096061E+03  0.67529096061E+03  0.00000000000E+00 0. -1.
         25    2    1    2    0    0 -0.38125861005E+03  0.34702109453E+03 -0.51466404163E+02  0.53296829429E+03  0.12499857669E+03 0.  0.
          2    1    1    2  501    0  0.38385731085E+03 -0.18130068782E+03 -0.25198415456E+03  0.49367234948E+03  0.00000000000E+00 0. -1.
          1    1    1    2  502    0 -0.25987007938E+01 -0.16572040671E+03  0.66005827480E+03  0.68054899352E+03  0.00000000000E+00 0. -1.
         22    1    3    3    0    0 -0.21346038894E+03  0.26496045480E+03 -0.62129955544E+02  0.34587499423E+03  0.00000000000E+00 0.  1.
         22    1    3    3    0    0 -0.16779822111E+03  0.82060639726E+02  0.10663551381E+02  0.18709330006E+03  0.00000000000E+00 0.  1.
</event>
<event>
 7    1  0.4402832E-005  0.4293656E+03  0.7818608E-02  0.1072839E+00
          2   -1    0    0  502    0  0.00000000000E+00  0.00000000000E+00  0.35702919035E+03  0.35702919035E+03  0.00000000000E+00 0. -1.
          1   -1    0    0  501    0 -0.00000000000E+00 -0.00000000000E+00 -0.21538455533E+04  0.21538455533E+04  0.00000000000E+00 0. -1.
         25    2    1    2    0    0  0.59430827065E+03 -0.14019283232E+03 -0.65949541413E+03  0.90742246948E+03  0.12499994424E+03 0.  0.
          2    1    1    2  501    0 -0.38933754042E+03  0.94881183325E+00 -0.12658047896E+04  0.13243286548E+04  0.00000000000E+00 0. -1.
          1    1    1    2  502    0 -0.20497073023E+03  0.13924402049E+03  0.12848384083E+03  0.27912361929E+03  0.00000000000E+00 0. -1.
         22    1    3    3    0    0  0.13360358119E+03 -0.41061256094E+02 -0.81988831286E+02  0.16204355005E+03  0.00000000000E+00 0. -1.
         22    1    3    3    0    0  0.46070468947E+03 -0.99131576229E+02 -0.57750658284E+03  0.74537891943E+03  0.00000000000E+00 0. -1.
</event>
<event>
 7    1  0.4402832E-005  0.2860570E+03  0.7818608E-02  0.1125899E+00
          2   -1    0    0  502    0  0.00000000000E+00  0.00000000000E+00  0.41833028900E+03  0.41833028900E+03  0.00000000000E+00 0. -1.
          1   -1    0    0  501    0 -0.00000000000E+00 -0.00000000000E+00 -0.65704466398E+03  0.65704466398E+03  0.00000000000E+00 0. -1.
         25    2    1    2    0    0 -0.27983612572E+03 -0.42631473155E+01 -0.10301376459E+02  0.30668172783E+03  0.12498452763E+03 0.  0.
          2    1    1    2  501    0  0.24446298952E+03 -0.17898341705E+03 -0.40899969682E+03  0.50899702241E+03  0.00000000000E+00 0. -1.
          1    1    1    2  502    0  0.35373136192E+02  0.18324656437E+03  0.18058669829E+03  0.25969620274E+03  0.00000000000E+00 0. -1.
         22    1    3    3    0    0 -0.80251497334E+02  0.53887403437E+02  0.12840175571E+02  0.97514230665E+02  0.00000000000E+00 0. -1.
         22    1    3    3    0    0 -0.19958462838E+03 -0.58150550753E+02 -0.23141552030E+02  0.20916749716E+03  0.00000000000E+00 0. -1.
</event>
<event>
 7    1  0.4402832E-005  0.5068447E+03  0.7818608E-02  0.1109969E+00
          2   -1    0    0  502    0  0.00000000000E+00  0.00000000000E+00  0.99906799698E+03  0.99906799698E+03  0.00000000000E+00 0. -1.
          1   -1    0    0  501    0 -0.00000000000E+00 -0.00000000000E+00 -0.78679274795E+03  0.78679274795E+03  0.00000000000E+00 0. -1.
         25    2    1    2    0    0 -0.49784541076E+03 -0.26318924419E+03  0.72588565686E+03  0.92717544356E+03  0.12500274006E+03 0.  0.
          2    1    1    2  501    0  0.38377389039E+03  0.32266866579E+03 -0.52930709501E+03  0.72908399219E+03  0.00000000000E+00 0. -1.
          1    1    1    2  502    0  0.11407152037E+03 -0.59479421599E+02  0.15696687179E+02  0.12960130918E+03  0.00000000000E+00 0. -1.
         22    1    3    3    0    0 -0.46825744010E+03 -0.23011110183E+03  0.70764821689E+03  0.87919403334E+03  0.00000000000E+00 0.  1.
         22    1    3    3    0    0 -0.29587970659E+02 -0.33078142357E+02  0.18237439976E+02  0.47981410217E+02  0.00000000000E+00 0.  1.
</event>
<event>
 7    1  0.4402832E-005  0.7277361E+03  0.7818608E-02  0.1191455E+00
          2   -1    0    0  502    0  0.00000000000E+00  0.00000000000E+00  0.22119335474E+04  0.22119335474E+04  0.00000000000E+00 0. -1.
          1   -1    0    0  501    0 -0.00000000000E+00 -0.00000000000E+00 -0.82239095669E+03  0.82239095669E+03  0.00000000000E+00 0. -1.
         25    2    1    2    0    0 -0.53547286261E+03 -0.46864640950E+03  0.70808244717E+03  0.10116156086E+04  0.12499897511E+03 0.  0.
          2    1    1    2  501    0  0.53165161471E+03  0.50255372906E+03 -0.47077597571E+03  0.86996764843E+03  0.00000000000E+00 0. -1.
          1    1    1    2  502    0  0.38212479003E+01 -0.33907319562E+02  0.11522361192E+04  0.11527412471E+04  0.00000000000E+00 0. -1.
         22    1    3    3    0    0 -0.34616972029E+03 -0.37113581394E+03  0.53254871714E+03  0.73565168644E+03  0.00000000000E+00 0.  1.
         22    1    3    3    0    0 -0.18930314232E+03 -0.97510595562E+02  0.17553373004E+03  0.27596392213E+03  0.00000000000E+00 0.  1.
</event>
<event>
 7    1  0.4402832E-005  0.2881534E+03  0.7818608E-02  0.1101502E+00
          2   -1    0    0  502    0  0.00000000000E+00  0.00000000000E+00  0.25098475682E+04  0.25098475682E+04  0.00000000000E+00 0. -1.
          1   -1    0    0  501    0 -0.00000000000E+00 -0.00000000000E+00 -0.93992771231E+03  0.93992771231E+03  0.00000000000E+00 0. -1.
         25    2    1    2    0    0  0.19249928217E+03 -0.28181635896E+03  0.17516841525E+03  0.40346694141E+03  0.12500066116E+03 0.  0.
          2    1    1    2  501    0 -0.28799592086E+03  0.48328391270E+02 -0.79248298230E+03  0.84457478121E+03  0.00000000000E+00 0. -1.
          1    1    1    2  502    0  0.95496638684E+02  0.23348796769E+03  0.21872344229E+04  0.22017335579E+04  0.00000000000E+00 0. -1.
         22    1    3    3    0    0  0.51470068892E+01 -0.73402968716E+02  0.77050869436E+02  0.10654259232E+03  0.00000000000E+00 0. -1.
         22    1    3    3    0    0  0.18735227528E+03 -0.20841339025E+03  0.98117545817E+02  0.29692434909E+03  0.00000000000E+00 0. -1.
</event>
<event>
 7    1  0.4402832E-005  0.5992201E+02  0.7818608E-02  0.1485827E+00
          2   -1    0    0  502    0  0.00000000000E+00  0.00000000000E+00  0.43357503703E+03  0.43357503703E+03  0.00000000000E+00 0. -1.
          1   -1    0    0  501    0 -0.00000000000E+00 -0.00000000000E+00 -0.37677445582E+02  0.37677445582E+02  0.00000000000E+00 0. -1.
         25    2    1    2    0    0 -0.35963866732E+02  0.56471430883E+02  0.32392909122E+03  0.35360660357E+03  0.12500060692E+03 0.  0.
          2    1    1    2  501    0  0.31143216945E+02  0.10485537907E+01  0.94649590831E+01  0.32566622133E+02  0.00000000000E+00 0. -1.
          1    1    1    2  502    0  0.48206497867E+01 -0.57519984673E+02  0.62503541146E+02  0.85079256914E+02  0.00000000000E+00 0. -1.
         22    1    3    3    0    0 -0.64647664594E+02  0.63322116522E+01  0.25753961461E+03  0.26560510262E+03  0.00000000000E+00 0. -1.
         22    1    3    3    0    0  0.28683797863E+02  0.50139219230E+02  0.66389476605E+02  0.88001500946E+02  0.00000000000E+00 0. -1.
</event>
<event>
 7    1  0.4402832E-005  0.1342770E+03  0.7818608E-02  0.1270449E+00
          2   -1    0    0  502    0  0.00000000000E+00  0.00000000000E+00  0.14869324075E+04  0.14869324075E+04  0.00000000000E+00 0. -1.
          1   -1    0    0  501    0 -0.00000000000E+00 -0.00000000000E+00 -0.62172019770E+02  0.62172019770E+02  0.00000000000E+00 0. -1.
         25    2    1    2    0    0 -0.12955287132E+03 -0.65374680251E+02  0.14877476358E+03  0.24252194562E+03  0.12500067418E+03 0.  0.
          2    1    1    2  501    0  0.64185626735E+02  0.11462663687E+03  0.30419314735E+03  0.33134956082E+03  0.00000000000E+00 0. -1.
          1    1    1    2  502    0  0.65367244583E+02 -0.49251956624E+02  0.97179247677E+03  0.97523292080E+03  0.00000000000E+00 0. -1.
         22    1    3    3    0    0 -0.16945074187E+02 -0.75974078361E+02  0.70013876947E+02  0.10469545877E+03  0.00000000000E+00 0. -1.
         22    1    3    3    0    0 -0.11260779713E+03  0.10599398110E+02  0.78760886632E+02  0.13782648685E+03  0.00000000000E+00 0. -1.
</event>
<event>
 7    1  0.4402832E-005  0.6303248E+02  0.7818608E-02  0.1441024E+00
          2   -1    0    0  502    0  0.00000000000E+00  0.00000000000E+00  0.10898472243E+04  0.10898472243E+04  0.00000000000E+00 0. -1.
          1   -1    0    0  501    0 -0.00000000000E+00 -0.00000000000E+00 -0.15840741642E+02  0.15840741642E+02  0.00000000000E+00 0. -1.
         25    2    1    2    0    0 -0.58934110224E+02  0.60197785670E+02  0.48997349309E+03  0.51263931089E+03  0.12501214495E+03 0.  0.
          2    1    1    2  501    0  0.51702714901E+02 -0.19884549169E+02  0.22641243648E+03  0.23309044900E+03  0.00000000000E+00 0. -1.
          1    1    1    2  502    0  0.72313953237E+01 -0.40313236502E+02  0.35762055312E+03  0.35995820608E+03  0.00000000000E+00 0. -1.
         22    1    3    3    0    0  0.32597519417E+00  0.34114075669E+02  0.40180656906E+03  0.40325227260E+03  0.00000000000E+00 0. -1.
         22    1    3    3    0    0 -0.59260085418E+02  0.26083710002E+02  0.88166924034E+02  0.10938703829E+03  0.00000000000E+00 0. -1.
</event>
<event>
 7    1  0.4402832E-005  0.5590185E+03  0.7818608E-02  0.1132445E+00
          2   -1    0    0  502    0  0.00000000000E+00  0.00000000000E+00  0.11375934646E+04  0.11375934646E+04  0.00000000000E+00 0. -1.
          1   -1    0    0  501    0 -0.00000000000E+00 -0.00000000000E+00 -0.44518483983E+03  0.44518483983E+03  0.00000000000E+00 0. -1.
         25    2    1    2    0    0 -0.46863190178E+03 -0.35751293235E+03  0.15129955144E+03  0.62124517725E+03  0.12499063897E+03 0.  0.
          2    1    1    2  501    0 -0.77187628061E+01  0.87775338295E+02 -0.90092652095E+02  0.12601894807E+03  0.00000000000E+00 0. -1.
          1    1    1    2  502    0  0.47635066458E+03  0.26973759405E+03  0.63120172543E+03  0.83551417910E+03  0.00000000000E+00 0. -1.
         22    1    3    3    0    0 -0.40023858542E+03 -0.33094507950E+03  0.16829677418E+03  0.54592982617E+03  0.00000000000E+00 0.  1.
         22    1    3    3    0    0 -0.68393316351E+02 -0.26567852848E+02 -0.16997222740E+02  0.75315351074E+02  0.00000000000E+00 0.  1.
</event>
<event>
 7    1  0.4402832E-005  0.3162292E+03  0.7818608E-02  0.1178676E+00
          2   -1    0    0  502    0  0.00000000000E+00  0.00000000000E+00  0.10211988744E+04  0.10211988744E+04  0.00000000000E+00 0. -1.
          1   -1    0    0  501    0 -0.00000000000E+00 -0.00000000000E+00 -0.17564951961E+04  0.17564951961E+04  0.00000000000E+00 0. -1.
         25    2    1    2    0    0 -0.25548998782E+03 -0.12170450892E+03 -0.11627679892E+03  0.33050666207E+03  0.12500895303E+03 0.  0.
          2    1    1    2  501    0 -0.61382461313E+02  0.66555803918E+02 -0.15034061056E+04  0.15061299412E+04  0.00000000000E+00 0. -1.
          1    1    1    2  502    0  0.31687244913E+03  0.55148704999E+02  0.88438658285E+03  0.94105746721E+03  0.00000000000E+00 0. -1.
         22    1    3    3    0    0 -0.11393746731E+03  0.99146639279E+00 -0.81222718591E+02  0.13992805108E+03  0.00000000000E+00 0. -1.
         22    1    3    3    0    0 -0.14155252050E+03 -0.12269597531E+03 -0.35054080327E+02  0.19057861099E+03  0.00000000000E+00 0. -1.
</event>
<event>
 7    1  0.4402832E-005  0.2796018E+03  0.7818608E-02  0.1155898E+00
          2   -1    0    0  502    0  0.00000000000E+00  0.00000000000E+00  0.76581758447E+02  0.76581758447E+02  0.00000000000E+00 0. -1.
          1   -1    0    0  501    0 -0.00000000000E+00 -0.00000000000E+00 -0.21425042214E+04  0.21425042214E+04  0.00000000000E+00 0. -1.
         25    2    1    2    0    0  0.24312372783E+03 -0.83799224263E+02 -0.85046823668E+03  0.89724747760E+03  0.12500142974E+03 0.  0.
          2    1    1    2  501    0 -0.22647838434E+03  0.21579629062E+03 -0.11065140684E+04  0.11498842904E+04  0.00000000000E+00 0. -1.
          1    1    1    2  502    0 -0.16645343495E+02 -0.13199706636E+03 -0.10894015783E+03  0.17195421186E+03  0.00000000000E+00 0. -1.
         22    1    3    3    0    0  0.10641861815E+03 -0.97466761923E+02 -0.51229885955E+03  0.53223567474E+03  0.00000000000E+00 0. -1.
         22    1    3    3    0    0  0.13670510969E+03  0.13667537660E+02 -0.33816937713E+03  0.36501180286E+03  0.00000000000E+00 0. -1.
</event>
<event>
 7    1  0.4402832E-005  0.9324701E+02  0.7818608E-02  0.1327768E+00
          2   -1    0    0  502    0  0.00000000000E+00  0.00000000000E+00  0.10993758172E+03  0.10993758172E+03  0.00000000000E+00 0. -1.
          1   -1    0    0  501    0 -0.00000000000E+00 -0.00000000000E+00 -0.15170997729E+04  0.15170997729E+04  0.00000000000E+00 0. -1.
         25    2    1    2    0    0 -0.15757454284E+03  0.24551443750E+01 -0.28784848963E+03  0.35116595429E+03  0.12500004074E+03 0.  0.
          2    1    1    2  501    0  0.69400447362E+02 -0.14879324684E+01 -0.11714017286E+04  0.11734567081E+04  0.00000000000E+00 0. -1.
          1    1    1    2  502    0  0.88174095476E+02 -0.96721190662E+00  0.52088027084E+02  0.10241469219E+03  0.00000000000E+00 0. -1.
         22    1    3    3    0    0 -0.13818959592E+03 -0.45369127645E+02 -0.24089220065E+03  0.28139611671E+03  0.00000000000E+00 0.  1.
         22    1    3    3    0    0 -0.19384946913E+02  0.47824272020E+02 -0.46956288979E+02  0.69769837578E+02  0.00000000000E+00 0.  1.
</event>
<event>
 7    1  0.4402832E-005  0.1394145E+03  0.7818608E-02  0.1247972E+00
          2   -1    0    0  502    0  0.00000000000E+00  0.00000000000E+00  0.59787650236E+03  0.59787650236E+03  0.00000000000E+00 0. -1.
          1   -1    0    0  501    0 -0.00000000000E+00 -0.00000000000E+00 -0.34794461887E+03  0.34794461887E+03  0.00000000000E+00 0. -1.
         25    2    1    2    0    0 -0.19240014827E+03 -0.48856464276E+02  0.39406062715E+03  0.45859430811E+03  0.12498076011E+03 0.  0.
          2    1    1    2  501    0  0.83967483978E+02  0.51196567576E+02 -0.28956086878E+03  0.30580569587E+03  0.00000000000E+00 0. -1.
          1    1    1    2  502    0  0.10843266430E+03 -0.23401032995E+01  0.14543212512E+03  0.18142111726E+03  0.00000000000E+00 0. -1.
         22    1    3    3    0    0 -0.13724344122E+03 -0.73408070150E+02  0.35240245752E+03  0.38524277928E+03  0.00000000000E+00 0. -1.
         22    1    3    3    0    0 -0.55156707057E+02  0.24551605874E+02  0.41658169636E+02  0.73351528831E+02  0.00000000000E+00 0. -1.
</event>
<event>
 7    1  0.4402832E-005  0.1131131E+03  0.7818608E-02  0.1410952E+00
          2   -1    0    0  502    0  0.00000000000E+00  0.00000000000E+00  0.11084437314E+03  0.11084437314E+03  0.00000000000E+00 0. -1.
          1   -1    0    0  501    0 -0.00000000000E+00 -0.00000000000E+00 -0.86967736637E+03  0.86967736637E+03  0.00000000000E+00 0. -1.
         25    2    1    2    0    0  0.12002329945E+03 -0.70325453063E+02  0.15039089949E+02  0.18762415115E+03  0.12500154443E+03 0.  0.
          2    1    1    2  501    0 -0.10073195036E+03  0.49069087048E+02 -0.74027887150E+03  0.74871056405E+03  0.00000000000E+00 0. -1.
          1    1    1    2  502    0 -0.19291349091E+02  0.21256366015E+02 -0.33593211676E+02  0.44187024301E+02  0.00000000000E+00 0. -1.
         22    1    3    3    0    0  0.13778334134E+01 -0.47963630259E+02  0.42168205137E+02  0.63879306328E+02  0.00000000000E+00 0.  1.
         22    1    3    3    0    0  0.11864546604E+03 -0.22361822804E+02 -0.27129115187E+02  0.12374484482E+03  0.00000000000E+00 0.  1.
</event>
<event>
 7    1  0.4402832E-005  0.2566257E+03  0.7818608E-02  0.1276402E+00
          2   -1    0    0  502    0  0.00000000000E+00  0.00000000000E+00  0.18390850321E+03  0.18390850321E+03  0.00000000000E+00 0. -1.
          1   -1    0    0  501    0 -0.00000000000E+00 -0.00000000000E+00 -0.67359646791E+03  0.67359646791E+03  0.00000000000E+00 0. -1.
         25    2    1    2    0    0 -0.26966773650E+02 -0.28467312905E+03 -0.31679273031E+03  0.44468869680E+03  0.12499762317E+03 0.  0.
          2    1    1    2  501    0  0.12726309560E+02  0.38387627312E+02 -0.16081666007E+03  0.16582390371E+03  0.00000000000E+00 0. -1.
          1    1    1    2  502    0  0.14240464090E+02  0.24628550174E+03 -0.12078574326E+02  0.24699237061E+03  0.00000000000E+00 0. -1.
         22    1    3    3    0    0  0.15370278982E+01 -0.26866590229E+03 -0.31185395018E+03  0.41162679183E+03  0.00000000000E+00 0.  1.
         22    1    3    3    0    0 -0.28503801548E+02 -0.16007226759E+02 -0.49387801336E+01  0.33061904972E+02  0.00000000000E+00 0.  1.
</event>
<event>
 7    1  0.4402832E-005  0.1459705E+03  0.7818608E-02  0.1264335E+00
          2   -1    0    0  502    0  0.00000000000E+00  0.00000000000E+00  0.43051819500E+03  0.43051819500E+03  0.00000000000E+00 0. -1.
          1   -1    0    0  501    0 -0.00000000000E+00 -0.00000000000E+00 -0.50769252163E+03  0.50769252163E+03  0.00000000000E+00 0. -1.
         25    2    1    2    0    0 -0.13960455407E+03  0.67112530496E+02  0.21056588362E+03  0.28975354697E+03  0.12500241347E+03 0.  0.
          2    1    1    2  501    0  0.56930296154E+02  0.56053915143E+02 -0.43331461830E+03  0.44061849536E+03  0.00000000000E+00 0. -1.
          1    1    1    2  502    0  0.82674257917E+02 -0.12316644564E+03  0.14557440805E+03  0.20783867429E+03  0.00000000000E+00 0. -1.
         22    1    3    3    0    0  0.92009991006E+01 -0.22493327705E+02  0.36452895537E+02  0.43811205972E+02  0.00000000000E+00 0. -1.
         22    1    3    3    0    0 -0.14880555317E+03  0.89605858201E+02  0.17411298808E+03  0.24594234100E+03  0.00000000000E+00 0. -1.
</event>
<event>
 7    1  0.4402832E-005  0.2043400E+03  0.7818608E-02  0.1171863E+00
          2   -1    0    0  502    0  0.00000000000E+00  0.00000000000E+00  0.26900684074E+04  0.26900684074E+04  0.00000000000E+00 0. -1.
          1   -1    0    0  501    0 -0.00000000000E+00 -0.00000000000E+00 -0.12505315650E+03  0.12505315650E+03  0.00000000000E+00 0. -1.
         25    2    1    2    0    0 -0.28713298601E+03  0.70798111653E+02  0.95900839194E+03  0.10113268232E+04  0.12500849269E+03 0.  0.
          2    1    1    2  501    0  0.14211813985E+03  0.52090172006E+02 -0.32072152707E+02  0.15472418904E+03  0.00000000000E+00 0. -1.
          1    1    1    2  502    0  0.14501484616E+03 -0.12288828366E+03  0.16380790117E+04  0.16490705516E+04  0.00000000000E+00 0. -1.
         22    1    3    3    0    0 -0.12365128230E+03 -0.16466353809E+02  0.52108033477E+03  0.53580359807E+03  0.00000000000E+00 0. -1.
         22    1    3    3    0    0 -0.16348170371E+03  0.87264465462E+02  0.43792805717E+03  0.47552322513E+03  0.00000000000E+00 0. -1.
</event>
<event>
 7    1  0.4402832E-005  0.1937663E+03  0.7818608E-02  0.1258856E+00
          2   -1    0    0  502    0  0.00000000000E+00  0.00000000000E+00  0.11972411097E+04  0.11972411097E+04  0.00000000000E+00 0. -1.
          1   -1    0    0  501    0 -0.00000000000E+00 -0.00000000000E+00 -0.82573820115E+03  0.82573820115E+03  0.00000000000E+00 0. -1.
         25    2    1    2    0    0  0.18755550814E+03  0.68557843333E+02 -0.77538288216E+03  0.81038301802E+03  0.12499910172E+03 0.  0.
          2    1    1    2  501    0 -0.12404904150E+03 -0.68875572427E+02  0.12606193515E+03  0.18979889532E+03  0.00000000000E+00 0. -1.
          1    1    1    2  502    0 -0.63506466639E+02  0.31772909376E+00  0.10208238556E+04  0.10227973975E+04  0.00000000000E+00 0. -1.
         22    1    3    3    0    0  0.54222686475E+02 -0.32965593935E+02 -0.14858107871E+03  0.16156474573E+03  0.00000000000E+00 0. -1.
         22    1    3    3    0    0  0.13333282166E+03  0.10152343727E+03 -0.62680180345E+03  0.64881827229E+03  0.00000000000E+00 0. -1.
</event>
<event>
 7    1  0.4402832E-005  0.1014977E+04  0.7818608E-02  0.1205449E+00
          2   -1    0    0  502    0  0.00000000000E+00  0.00000000000E+00  0.20568070396E+04  0.20568070396E+04  0.00000000000E+00 0. -1.
          1   -1    0    0  501    0 -0.00000000000E+00 -0.00000000000E+00 -0.10369094569E+04  0.10369094569E+04  0.00000000000E+00 0. -1.
         25    2    1    2    0    0  0.41603143168E+03 -0.91449087712E+03  0.40952656759E+03  0.10921157860E+04  0.12501665460E+03 0.  0.
          2    1    1    2  501    0 -0.43543392420E+03  0.92254438667E+03 -0.32141444770E+03  0.10695784660E+04  0.00000000000E+00 0. -1.
          1    1    1    2  502    0  0.19402492515E+02 -0.80535095481E+01  0.93178546274E+03  0.93202224454E+03  0.00000000000E+00 0. -1.
         22    1    3    3    0    0 -0.12905730802E+01 -0.72581472861E+02  0.34561580406E+02  0.80400488940E+02  0.00000000000E+00 0. -1.
         22    1    3    3    0    0  0.41732200476E+03 -0.84190940426E+03  0.37496498718E+03  0.10117152970E+04  0.00000000000E+00 0. -1.
</event>
<event>
 7    1  0.4402832E-005  0.7504011E+03  0.7818608E-02  0.1122588E+00
          2   -1    0    0  502    0  0.00000000000E+00  0.00000000000E+00  0.29900200226E+04  0.29900200226E+04  0.00000000000E+00 0. -1.
          1   -1    0    0  501    0 -0.00000000000E+00 -0.00000000000E+00 -0.12921695952E+04  0.12921695952E+04  0.00000000000E+00 0. -1.
         25    2    1    2    0    0 -0.66405517694E+02 -0.77286497132E+03 -0.63813690272E+03  0.10122126861E+04  0.12500343419E+03 0.  0.
          2    1    1    2  501    0  0.21668661335E+02  0.71375875646E+03 -0.19315388132E+03  0.73974963006E+03  0.00000000000E+00 0. -1.
          1    1    1    2  502    0  0.44736856359E+02  0.59106214858E+02  0.25291412114E+04  0.25302273017E+04  0.00000000000E+00 0. -1.
         22    1    3    3    0    0 -0.40288926126E+02 -0.17677453927E+03 -0.91871718129E+02  0.20325562205E+03  0.00000000000E+00 0.  1.
         22    1    3    3    0    0 -0.26116591568E+02 -0.59609043205E+03 -0.54626518459E+03  0.80895706402E+03  0.00000000000E+00 0.  1.
</event>
<event>
 7    1  0.4402832E-005  0.5609580E+02  0.7818608E-02  0.1488238E+00
          2   -1    0    0  502    0  0.00000000000E+00  0.00000000000E+00  0.77098478599E+03  0.77098478599E+03  0.00000000000E+00 0. -1.
          1   -1    0    0  501    0 -0.00000000000E+00 -0.00000000000E+00 -0.61647094714E+03  0.61647094714E+03  0.00000000000E+00 0. -1.
         25    2    1    2    0    0  0.38683773635E+02  0.40637542549E+02  0.59531191152E+02  0.14938612936E+03  0.12499763485E+03 0.  0.
          2    1    1    2  501    0  0.16307819884E+02 -0.28377469020E+02 -0.56988244750E+03  0.57082153928E+03  0.00000000000E+00 0. -1.
          1    1    1    2  502    0 -0.54991593518E+02 -0.12260073528E+02  0.66486509519E+03  0.66724806449E+03  0.00000000000E+00 0. -1.
         22    1    3    3    0    0  0.67319629261E+02  0.45621936481E+02 -0.19874461790E+01  0.81346441314E+02  0.00000000000E+00 0. -1.
         22    1    3    3    0    0 -0.28635855627E+02 -0.49843939318E+01  0.61518637331E+02  0.68039688046E+02  0.00000000000E+00 0. -1.
</event>
<event>
 7    1  0.4402832E-005  0.6911610E+03  0.7818608E-02  0.9849725E-01
          2   -1    0    0  502    0  0.00000000000E+00  0.00000000000E+00  0.74331431008E+03  0.74331431008E+03  0.00000000000E+00 0. -1.
          1   -1    0    0  501    0 -0.00000000000E+00 -0.00000000000E+00 -0.33143419468E+04  0.33143419468E+04  0.00000000000E+00 0. -1.
         25    2    1    2    0    0  0.11439746461E+04 -0.81442015795E+02 -0.18597581689E+02  0.11538120312E+04  0.12500216197E+03 0.  0.
          2    1    1    2  501    0 -0.60191554781E+03  0.25739436532E+03 -0.20218506016E+04  0.21251903541E+04  0.00000000000E+00 0. -1.
          1    1    1    2  502    0 -0.54205909826E+03 -0.17595234953E+03 -0.53057945344E+03  0.77865387158E+03  0.00000000000E+00 0. -1.
         22    1    3    3    0    0  0.11209382141E+04 -0.93445424209E+02 -0.57699702334E+01  0.11248412420E+04  0.00000000000E+00 0.  1.
         22    1    3    3    0    0  0.23036431989E+02  0.12003408413E+02 -0.12827611456E+02  0.28970789219E+02  0.00000000000E+00 0.  1.
</event>
<event>
 7    1  0.4402832E-005  0.4741528E+03  0.7818608E-02  0.1167633E+00
          2   -1    0    0  502    0  0.00000000000E+00  0.00000000000E+00  0.28029907039E+04  0.28029907039E+04  0.00000000000E+00 0. -1.
          1   -1    0    0  501    0 -0.00000000000E+00 -0.00000000000E+00 -0.14412266522E+04  0.14412266522E+04  0.00000000000E+00 0. -1.
         25    2    1    2    0    0  0.46693991315E+03 -0.75167159206E+02  0.10438582749E+04  0.11527997700E+04  0.12499690912E+03 0.  0.
          2    1    1    2  501    0 -0.47432015127E+03  0.71000762840E+01 -0.13454633528E+04  0.14266399863E+04  0.00000000000E+00 0. -1.
          1    1    1    2  502    0  0.73802381217E+01  0.68067082922E+02  0.16633691295E+04  0.16647775998E+04  0.00000000000E+00 0. -1.
         22    1    3    3    0    0  0.14718071582E+03 -0.48399366758E+02  0.22378154428E+03  0.27218163306E+03  0.00000000000E+00 0.  1.
         22    1    3    3    0    0  0.31975919732E+03 -0.26767792448E+02  0.82007673063E+03  0.88061813694E+03  0.00000000000E+00 0.  1.
</event>
<event>
 7    1  0.4402832E-005  0.3371306E+03  0.7818608E-02  0.1159171E+00
          2   -1    0    0  502    0  0.00000000000E+00  0.00000000000E+00  0.17080068227E+04  0.17080068227E+04  0.00000000000E+00 0. -1.
          1   -1    0    0  501    0 -0.00000000000E+00 -0.00000000000E+00 -0.77689367554E+03  0.77689367554E+03  0.00000000000E+00 0. -1.
         25    2    1    2    0    0  0.71250654229E+02  0.36701336378E+03  0.93495143034E+03  0.10146585295E+04  0.12498915750E+03 0.  0.
          2    1    1    2  501    0  0.62583567700E+02 -0.85797771540E+02 -0.69978025574E+03  0.70779260160E+03  0.00000000000E+00 0. -1.
          1    1    1    2  502    0 -0.13383422193E+03 -0.28121559224E+03  0.69594197252E+03  0.76244936710E+03  0.00000000000E+00 0. -1.
         22    1    3    3    0    0 -0.32515090765E+02  0.90483715285E+02  0.28400217358E+03  0.29983623606E+03  0.00000000000E+00 0.  1.
         22    1    3    3    0    0  0.10376574499E+03  0.27652964849E+03  0.65094925676E+03  0.71482229345E+03  0.00000000000E+00 0.  1.
</event>
<event>
 7    1  0.4402832E-005  0.6871980E+03  0.7818608E-02  0.1159914E+00
          2   -1    0    0  502    0  0.00000000000E+00  0.00000000000E+00  0.53242996528E+03  0.53242996528E+03  0.00000000000E+00 0. -1.
          1   -1    0    0  501    0 -0.00000000000E+00 -0.00000000000E+00 -0.30646334630E+04  0.30646334630E+04  0.00000000000E+00 0. -1.
         25    2    1    2    0    0  0.18555889086E+02 -0.70594825904E+03 -0.83179076145E+03  0.10982739904E+04  0.12499048646E+03 0.  0.
          2    1    1    2  501    0  0.25677793461E+02  0.67928123152E+03 -0.20425918873E+04  0.21527340659E+04  0.00000000000E+00 0. -1.
          1    1    1    2  502    0 -0.44233682547E+02  0.26667027519E+02  0.34217915105E+03  0.34605537193E+03  0.00000000000E+00 0. -1.
         22    1    3    3    0    0  0.46453848310E+02 -0.15642628178E+03 -0.14533865690E+03  0.21851880204E+03  0.00000000000E+00 0. -1.
         22    1    3    3    0    0 -0.27897959224E+02 -0.54952197726E+03 -0.68645210454E+03  0.87975518836E+03  0.00000000000E+00 0. -1.
</event>
<event>
 7    1  0.4402832E-005  0.9525174E+03  0.7818608E-02  0.1097493E+00
          2   -1    0    0  502    0  0.00000000000E+00  0.00000000000E+00  0.22320389350E+04  0.22320389350E+04  0.00000000000E+00 0. -1.
          1   -1    0    0  501    0 -0.00000000000E+00 -0.00000000000E+00 -0.78953511806E+03  0.78953511806E+03  0.00000000000E+00 0. -1.
         25    2    1    2    0    0 -0.67239872811E+03  0.65941525120E+03  0.58095729757E+02  0.95181386114E+03  0.12500395733E+03 0.  0.
          2    1    1    2  501    0  0.74328612244E+03 -0.62149483651E+03  0.34685305858E+03  0.10290952997E+04  0.00000000000E+00 0. -1.
          1    1    1    2  502    0 -0.70887394328E+02 -0.37920414691E+02  0.10375550286E+04  0.10406648922E+04  0.00000000000E+00 0. -1.
         22    1    3    3    0    0 -0.15521580099E+03  0.14614733314E+03  0.65843733672E+02  0.22312862910E+03  0.00000000000E+00 0. -1.
         22    1    3    3    0    0 -0.51718292712E+03  0.51326791807E+03 -0.77480039155E+01  0.72868523203E+03  0.00000000000E+00 0. -1.
</event>
<event>
 7    1  0.4402832E-005  0.5013069E+03  0.7818608E-02  0.1085284E+00
          2   -1    0    0  502    0  0.00000000000E+00  0.00000000000E+00  0.51709710172E+03  0.51709710172E+03  0.00000000000E+00 0. -1.
          1   -1    0    0  501    0 -0.00000000000E+00 -0.00000000000E+00 -0.77358855663E+03  0.77358855663E+03  0.00000000000E+00 0. -1.
         25    2    1    2    0    0  0.47703953174E+03 -0.12394154847E+03 -0.15613279206E+03  0.53191220721E+03  0.12499970054E+03 0.  0.
          2    1    1    2  501    0 -0.52248108171E+03 -0.49634994417E+02 -0.19004346573E+03  0.55818154061E+03  0.00000000000E+00 0. -1.
          1    1    1    2  502    0  0.45441549962E+02  0.17357654289E+03  0.89684802876E+02  0.20059191053E+03  0.00000000000E+00 0. -1.
         22    1    3    3    0    0  0.16719421167E+03  0.15288751865E+02 -0.66620269160E+02  0.18062643941E+03  0.00000000000E+00 0. -1.
         22    1    3    3    0    0  0.30984532007E+03 -0.13923030034E+03 -0.89512522900E+02  0.35128576780E+03  0.00000000000E+00 0. -1.
</event>
<event>
 7    1  0.4402832E-005  0.1525976E+03  0.7818608E-02  0.1325220E+00
          2   -1    0    0  502    0  0.00000000000E+00  0.00000000000E+00  0.10123651285E+03  0.10123651285E+03  0.00000000000E+00 0. -1.
          1   -1    0    0  501    0 -0.00000000000E+00 -0.00000000000E+00 -0.25228358143E+04  0.25228358143E+04  0.00000000000E+00 0. -1.
         25    2    1    2    0    0 -0.95744488938E+02 -0.10601403374E+03 -0.18037677229E+04  0.18137281287E+04  0.12500297710E+03 0.  0.
          2    1    1    2  501    0  0.92684335808E+02  0.14929036802E+03 -0.69768106687E+03  0.71946985424E+03  0.00000000000E+00 0. -1.
          1    1    1    2  502    0  0.30601531297E+01 -0.43276334283E+02  0.79849488318E+02  0.90874344183E+02  0.00000000000E+00 0. -1.
         22    1    3    3    0    0 -0.21062965611E+02  0.25254835808E+02 -0.53376580091E+03  0.53477788424E+03  0.00000000000E+00 0.  1.
         22    1    3    3    0    0 -0.74681523327E+02 -0.13126886955E+03 -0.12700019220E+04  0.12789502445E+04  0.00000000000E+00 0.  1.
</event>
<event>
 7    1  0.4402832E-005  0.1044470E+03  0.7818608E-02  0.1287765E+00
          2   -1    0    0  502    0  0.00000000000E+00  0.00000000000E+00  0.84506813878E+02  0.84506813878E+02  0.00000000000E+00 0. -1.
          1   -1    0    0  501    0 -0.00000000000E+00 -0.00000000000E+00 -0.41628791496E+03  0.41628791496E+03  0.00000000000E+00 0. -1.
         25    2    1    2    0    0 -0.78280050301E+02  0.11975521181E+03 -0.14978052355E+03  0.24192942152E+03  0.12500625077E+03 0.  0.
          2    1    1    2  501    0 -0.98885362253E+01 -0.88664776882E+02 -0.10471832993E+03  0.13756872621E+03  0.00000000000E+00 0. -1.
          1    1    1    2  502    0  0.88168586526E+02 -0.31090434928E+02 -0.77282247603E+02  0.12129658111E+03  0.00000000000E+00 0. -1.
         22    1    3    3    0    0 -0.35020757061E+01  0.72210312729E+01  0.21977400863E+02  0.23396879612E+02  0.00000000000E+00 0. -1.
         22    1    3    3    0    0 -0.74777974595E+02  0.11253418054E+03 -0.17175792442E+03  0.21853254191E+03  0.00000000000E+00 0. -1.
</event>
<event>
 7    1  0.4402832E-005  0.5732990E+03  0.7818608E-02  0.1179978E+00
          2   -1    0    0  502    0  0.00000000000E+00  0.00000000000E+00  0.14220692501E+04  0.14220692501E+04  0.00000000000E+00 0. -1.
          1   -1    0    0  501    0 -0.00000000000E+00 -0.00000000000E+00 -0.34601340512E+03  0.34601340512E+03  0.00000000000E+00 0. -1.
         25    2    1    2    0    0  0.23245684758E+03  0.56044590156E+03  0.33586108901E+03  0.70467234613E+03  0.12499859888E+03 0.  0.
          2    1    1    2  501    0 -0.19328172306E+02 -0.45261167624E+02 -0.66542799004E+02  0.82765304558E+02  0.00000000000E+00 0. -1.
          1    1    1    2  502    0 -0.21312867527E+03 -0.51518473394E+03  0.80673755493E+03  0.98064500449E+03  0.00000000000E+00 0. -1.
         22    1    3    3    0    0  0.55325281282E+02  0.19526802466E+03  0.52380250086E+02  0.20960481579E+03  0.00000000000E+00 0.  1.
         22    1    3    3    0    0  0.17713156629E+03  0.36517787690E+03  0.28348083893E+03  0.49506753034E+03  0.00000000000E+00 0.  1.
</event>
<event>
 7    1  0.4402832E-005  0.9668621E+03  0.7818608E-02  0.1184988E+00
          2   -1    0    0  502    0  0.00000000000E+00  0.00000000000E+00  0.61683439389E+03  0.61683439389E+03  0.00000000000E+00 0. -1.
          1   -1    0    0  501    0 -0.00000000000E+00 -0.00000000000E+00 -0.37623648730E+04  0.37623648730E+04  0.00000000000E+00 0. -1.
         25    2    1    2    0    0 -0.85567014015E+03 -0.39659081095E+03 -0.29040101607E+04  0.30558722922E+04  0.12499917116E+03 0.  0.
          2    1    1    2  501    0 -0.22785008630E+02 -0.15559442331E+02 -0.34625754711E+03  0.34735506588E+03  0.00000000000E+00 0. -1.
          1    1    1    2  502    0  0.87845514878E+03  0.41215025328E+03  0.10473722868E+03  0.97597190881E+03  0.00000000000E+00 0. -1.
         22    1    3    3    0    0 -0.85592202223E+03 -0.39056649068E+03 -0.28443704830E+04  0.29959285933E+04  0.00000000000E+00 0. -1.
         22    1    3    3    0    0  0.25188207768E+00 -0.60243202673E+01 -0.59639677732E+02  0.59943698912E+02  0.00000000000E+00 0. -1.
</event>
<event>
 7    1  0.4402832E-005  0.6917425E+03  0.7818608E-02  0.1168720E+00
          2   -1    0    0  502    0  0.00000000000E+00  0.00000000000E+00  0.13582693567E+04  0.13582693567E+04  0.00000000000E+00 0. -1.
          1   -1    0    0  501    0 -0.00000000000E+00 -0.00000000000E+00 -0.21175389253E+04  0.21175389253E+04  0.00000000000E+00 0. -1.
         25    2    1    2    0    0  0.29675303274E+03  0.61067013695E+03  0.37132523545E+03  0.78389271322E+03  0.12499990697E+03 0.  0.
          2    1    1    2  501    0 -0.26234207612E+03 -0.64171938174E+03 -0.18476143581E+04  0.19733995910E+04  0.00000000000E+00 0. -1.
          1    1    1    2  502    0 -0.34410956625E+02  0.31049244789E+02  0.71701955395E+03  0.71851597775E+03  0.00000000000E+00 0. -1.
         22    1    3    3    0    0  0.80764016395E+02  0.28404610351E+03  0.19883141201E+03  0.35600413715E+03  0.00000000000E+00 0.  1.
         22    1    3    3    0    0  0.21598901635E+03  0.32662403344E+03  0.17249382344E+03  0.42788857607E+03  0.00000000000E+00 0.  1.
</event>
<event>
 7    1  0.4402832E-005  0.6976688E+03  0.7818608E-02  0.1090010E+00
          2   -1    0    0  502    0  0.00000000000E+00  0.00000000000E+00  0.12072180997E+04  0.12072180997E+04  0.00000000000E+00 0. -1.
          1   -1    0    0  501    0 -0.00000000000E+00 -0.00000000000E+00 -0.55471858851E+03  0.55471858851E+03  0.00000000000E+00 0. -1.
         25    2    1    2    0    0  0.84170214506E+02  0.75359769203E+03  0.24449328086E+03  0.80647369973E+03  0.12501502917E+03 0.  0.
          2    1    1    2  501    0 -0.12492189606E+03 -0.63957596155E+03  0.14743437085E+03  0.66813156221E+03  0.00000000000E+00 0. -1.
          1    1    1    2  502    0  0.40751681554E+02 -0.11402173048E+03  0.26057185949E+03  0.28733142628E+03  0.00000000000E+00 0. -1.
         22    1    3    3    0    0  0.64133320693E+01  0.12339563081E+02  0.26493007564E+02  0.29921147957E+02  0.00000000000E+00 0.  1.
         22    1    3    3    0    0  0.77756882437E+02  0.74125812895E+03  0.21800027329E+03  0.77655255177E+03  0.00000000000E+00 0.  1.
</event>
<event>
 7    1  0.4402832E-005  0.1835588E+03  0.7818608E-02  0.1173891E+00
          2   -1    0    0  502    0  0.00000000000E+00  0.00000000000E+00  0.27798957855E+04  0.27798957855E+04  0.00000000000E+00 0. -1.
          1   -1    0    0  501    0 -0.00000000000E+00 -0.00000000000E+00 -0.44355688168E+03  0.44355688168E+03  0.00000000000E+00 0. -1.
         25    2    1    2    0    0 -0.47560037236E+02  0.15260285710E+03  0.15376697743E+04  0.15510000040E+04  0.12499235317E+03 0.  0.
          2    1    1    2  501    0  0.13304913501E+03  0.97001072491E+02 -0.40658418669E+03  0.43865929975E+03  0.00000000000E+00 0. -1.
          1    1    1    2  502    0 -0.85489097778E+02 -0.24960392959E+03  0.12052533162E+04  0.12337933635E+04  0.00000000000E+00 0. -1.
         22    1    3    3    0    0 -0.64873521279E+02  0.62027477627E+02  0.41739311080E+03  0.42693441029E+03  0.00000000000E+00 0. -1.
         22    1    3    3    0    0  0.17313484043E+02  0.90575379471E+02  0.11202766635E+04  0.11240655937E+04  0.00000000000E+00 0. -1.
</event>
<event>
 7    1  0.4402832E-005  0.6565260E+03  0.7818608E-02  0.1157642E+00
          2   -1    0    0  502    0  0.00000000000E+00  0.00000000000E+00  0.15214441121E+04  0.15214441121E+04  0.00000000000E+00 0. -1.
          1   -1    0    0  501    0 -0.00000000000E+00 -0.00000000000E+00 -0.11446383467E+04  0.11446383467E+04  0.00000000000E+00 0. -1.
         25    2    1    2    0    0 -0.23311882588E+03 -0.64992572801E+03 -0.14376868057E+03  0.71626547286E+03  0.12497581841E+03 0.  0.
          2    1    1    2  501    0  0.23611136964E+03  0.59449124799E+03 -0.57063245864E+03  0.85719882504E+03  0.00000000000E+00 0. -1.
          1    1    1    2  502    0 -0.29925437557E+01  0.55434480024E+02  0.10912069046E+04  0.10926181609E+04  0.00000000000E+00 0. -1.
         22    1    3    3    0    0 -0.10773703158E+03 -0.14408732733E+03 -0.50219214544E+02  0.18678970898E+03  0.00000000000E+00 0. -1.
         22    1    3    3    0    0 -0.12538179431E+03 -0.50583840068E+03 -0.93549466029E+02  0.52947576388E+03  0.00000000000E+00 0. -1.
</event>
<event>
 7    1  0.4402832E-005  0.7334818E+02  0.7818608E-02  0.1378581E+00
          2   -1    0    0  502    0  0.00000000000E+00  0.00000000000E+00  0.21457572820E+04  0.21457572820E+04  0.00000000000E+00 0. -1.
          1   -1    0    0  501    0 -0.00000000000E+00 -0.00000000000E+00 -0.17175009492E+02  0.17175009492E+02  0.00000000000E+00 0. -1.
         25    2    1    2    0    0  0.60175249040E+02 -0.10324367992E+03  0.53890758581E+03  0.56597454859E+03  0.12500194225E+03 0.  0.
          2    1    1    2  501    0 -0.45968352432E+02  0.34234325864E+02  0.30412391642E+03  0.30947768099E+03  0.00000000000E+00 0. -1.
          1    1    1    2  502    0 -0.14206896608E+02  0.69009354059E+02  0.12855507703E+04  0.12874800619E+04  0.00000000000E+00 0. -1.
         22    1    3    3    0    0  0.63307996282E+02 -0.13073759191E+03  0.45167572676E+03  0.47445883117E+03  0.00000000000E+00 0.  1.
         22    1    3    3    0    0 -0.31327472421E+01  0.27493911985E+02  0.87231859050E+02  0.91515717419E+02  0.00000000000E+00 0.  1.
</event>
<event>
 7    1  0.4402832E-005  0.3218543E+03  0.7818608E-02  0.1189539E+00
          2   -1    0    0  502    0  0.00000000000E+00  0.00000000000E+00  0.97866001752E+02  0.97866001752E+02  0.00000000000E+00 0. -1.
          1   -1    0    0  501    0 -0.00000000000E+00 -0.00000000000E+00 -0.17708874863E+04  0.17708874863E+04  0.00000000000E+00 0. -1.
         25    2    1    2    0    0 -0.29237824656E+03 -0.21610111153E+03 -0.50005505374E+03  0.63076775797E+03  0.12501271238E+03 0.  0.
          2    1    1    2  501    0  0.21383844349E+03  0.22251091329E+03 -0.10235712696E+04  0.10690819101E+04  0.00000000000E+00 0. -1.
          1    1    1    2  502    0  0.78539803074E+02 -0.64098017597E+01 -0.14939516115E+03  0.16890381997E+03  0.00000000000E+00 0. -1.
         22    1    3    3    0    0 -0.30012076608E+03 -0.18555435812E+03 -0.45495660780E+03  0.57575030093E+03  0.00000000000E+00 0.  1.
         22    1    3    3    0    0  0.77425195114E+01 -0.30546753416E+02 -0.45098445940E+02  0.55017457037E+02  0.00000000000E+00 0.  1.
</event>
<event>
 7    1  0.4402832E-005  0.4400898E+03  0.7818608E-02  0.1161636E+00
          2   -1    0    0  502    0  0.00000000000E+00  0.00000000000E+00  0.21290563638E+04  0.21290563638E+04  0.00000000000E+00 0. -1.
          1   -1    0    0  501    0 -0.00000000000E+00 -0.00000000000E+00 -0.10145734352E+04  0.10145734352E+04  0.00000000000E+00 0. -1.
         25    2    1    2    0    0 -0.38430809188E+03 -0.29923120760E+03  0.81945720901E+03  0.96143982163E+03  0.12499755254E+03 0.  0.
          2    1    1    2  501    0  0.35007288889E+02  0.70879988424E+02 -0.90666187350E+03  0.91010177228E+03  0.00000000000E+00 0. -1.
          1    1    1    2  502    0  0.34930080299E+03  0.22835121917E+03  0.12016875930E+04  0.12720882051E+04  0.00000000000E+00 0. -1.
         22    1    3    3    0    0 -0.38209591503E+02 -0.34103027827E+02  0.29351562625E+02  0.59029684214E+02  0.00000000000E+00 0. -1.
         22    1    3    3    0    0 -0.34609850037E+03 -0.26512817977E+03  0.79010564638E+03  0.90241013742E+03  0.00000000000E+00 0. -1.
</event>
<event>
 7    1  0.4402832E-005  0.6043930E+03  0.7818608E-02  0.1161378E+00
          2   -1    0    0  502    0  0.00000000000E+00  0.00000000000E+00  0.16201438663E+04  0.16201438663E+04  0.00000000000E+00 0. -1.
          1   -1    0    0  501    0 -0.00000000000E+00 -0.00000000000E+00 -0.14475145901E+04  0.14475145901E+04  0.00000000000E+00 0. -1.
         25    2    1    2    0    0 -0.33591843983E+03 -0.47957477553E+03  0.81332924559E+03  0.10099316564E+04  0.12499730164E+03 0.  0.
          2    1    1    2  501    0  0.30128123194E+03  0.52576608562E+03 -0.12798067186E+04  0.14160175121E+04  0.00000000000E+00 0. -1.
          1    1    1    2  502    0  0.34637207882E+02 -0.46191310087E+02  0.63910674919E+03  0.64170928788E+03  0.00000000000E+00 0. -1.
         22    1    3    3    0    0 -0.26267909406E+03 -0.39638266664E+03  0.56831629280E+03  0.74101479981E+03  0.00000000000E+00 0. -1.
         22    1    3    3    0    0 -0.73239345763E+02 -0.83192108889E+02  0.24501295278E+03  0.26891685663E+03  0.00000000000E+00 0. -1.
</event>
<event>
 7    1  0.4402832E-005  0.1540184E+03  0.7818608E-02  0.1252042E+00
          2   -1    0    0  502    0  0.00000000000E+00  0.00000000000E+00  0.88828630202E+02  0.88828630202E+02  0.00000000000E+00 0. -1.
          1   -1    0    0  501    0 -0.00000000000E+00 -0.00000000000E+00 -0.10103888098E+04  0.10103888098E+04  0.00000000000E+00 0. -1.
         25    2    1    2    0    0 -0.10396880339E+03 -0.12653724999E+03 -0.72467991095E+03  0.75339704458E+03  0.12499978291E+03 0.  0.
          2    1    1    2  501    0 -0.42373824562E+02  0.74230415511E+02 -0.16694549122E+03  0.18755397259E+03  0.00000000000E+00 0. -1.
          1    1    1    2  502    0  0.14634262795E+03  0.52306834483E+02 -0.29934777392E+02  0.15826642280E+03  0.00000000000E+00 0. -1.
         22    1    3    3    0    0 -0.22261920674E+02 -0.12208525952E+03 -0.42526721778E+03  0.44300407472E+03  0.00000000000E+00 0.  1.
         22    1    3    3    0    0 -0.81706882713E+02 -0.44519904737E+01 -0.29941269318E+03  0.31039296986E+03  0.00000000000E+00 0.  1.
</event>
<event>
 7    1  0.4402832E-005  0.1615430E+03  0.7818608E-02  0.1311571E+00
          2   -1    0    0  502    0  0.00000000000E+00  0.00000000000E+00  0.49891434131E+02  0.49891434131E+02  0.00000000000E+00 0. -1.
          1   -1    0    0  501    0 -0.00000000000E+00 -0.00000000000E+00 -0.25097921289E+04  0.25097921289E+04  0.00000000000E+00 0. -1.
         25    2    1    2    0    0  0.14996321410E+03  0.11574630215E+02 -0.13397473119E+04  0.13539454899E+04  0.12499036813E+03 0.  0.
          2    1    1    2  501    0 -0.16525254464E+03 -0.55288829935E+02 -0.11415143714E+04  0.11547382034E+04  0.00000000000E+00 0. -1.
          1    1    1    2  502    0  0.15289330535E+02  0.43714199720E+02  0.21360988548E+02  0.50999869776E+02  0.00000000000E+00 0. -1.
         22    1    3    3    0    0  0.11269315703E+03 -0.37838741547E+02 -0.10973900271E+04  0.11038099427E+04  0.00000000000E+00 0. -1.
         22    1    3    3    0    0  0.37270057077E+02  0.49413371762E+02 -0.24235728481E+03  0.25013554718E+03  0.00000000000E+00 0. -1.
</event>
<event>
 7    1  0.4402832E-005  0.2542923E+03  0.7818608E-02  0.1343469E+00
          2   -1    0    0  502    0  0.00000000000E+00  0.00000000000E+00  0.21849037118E+04  0.21849037118E+04  0.00000000000E+00 0. -1.
          1   -1    0    0  501    0 -0.00000000000E+00 -0.00000000000E+00 -0.28854828337E+04  0.28854828337E+04  0.00000000000E+00 0. -1.
         25    2    1    2    0    0 -0.27115883818E+03 -0.48481381072E+02 -0.21692423232E+04  0.21902317338E+04  0.12500092469E+03 0.  0.
          2    1    1    2  501    0  0.19890387848E+02  0.98527386790E+01 -0.69813828649E+03  0.69849106727E+03  0.00000000000E+00 0. -1.
          1    1    1    2  502    0  0.25126845033E+03  0.38628642393E+02  0.21668014878E+04  0.21816637444E+04  0.00000000000E+00 0. -1.
         22    1    3    3    0    0 -0.69714233700E+02  0.14727472473E+02 -0.26827674609E+03  0.27757771042E+03  0.00000000000E+00 0. -1.
         22    1    3    3    0    0 -0.20144460448E+03 -0.63208853545E+02 -0.19009655771E+04  0.19126540234E+04  0.00000000000E+00 0. -1.
</event>
<event>
 7    1  0.4402832E-005  0.1014204E+03  0.7818608E-02  0.1288484E+00
          2   -1    0    0  502    0  0.00000000000E+00  0.00000000000E+00  0.18900269647E+03  0.18900269647E+03  0.00000000000E+00 0. -1.
          1   -1    0    0  501    0 -0.00000000000E+00 -0.00000000000E+00 -0.16952095947E+04  0.16952095947E+04  0.00000000000E+00 0. -1.
         25    2    1    2    0    0  0.11686654522E+02  0.82173294635E+01 -0.72191360528E+01  0.12602061953E+03  0.12499991289E+03 0.  0.
          2    1    1    2  501    0 -0.50614693780E+02 -0.90756569406E+02 -0.16106402558E+04  0.16139890444E+04  0.00000000000E+00 0. -1.
          1    1    1    2  502    0  0.38928039257E+02  0.82539239942E+02  0.11165249358E+03  0.14420262720E+03  0.00000000000E+00 0. -1.
         22    1    3    3    0    0  0.55663579506E+02 -0.18918025338E+02  0.26322517188E+02  0.64414289387E+02  0.00000000000E+00 0. -1.
         22    1    3    3    0    0 -0.43976924984E+02  0.27135354802E+02 -0.33541653240E+02  0.61606330140E+02  0.00000000000E+00 0. -1.
</event>
<event>
 7    1  0.4402832E-005  0.1992174E+03  0.7818608E-02  0.1152864E+00
          2   -1    0    0  502    0  0.00000000000E+00  0.00000000000E+00  0.15864396226E+03  0.15864396226E+03  0.00000000000E+00 0. -1.
          1   -1    0    0  501    0 -0.00000000000E+00 -0.00000000000E+00 -0.26187249435E+04  0.26187249435E+04  0.00000000000E+00 0. -1.
         25    2    1    2    0    0  0.15094357535E+03  0.80887409631E+01 -0.11918621180E+04  0.12078947172E+04  0.12499979554E+03 0.  0.
          2    1    1    2  501    0 -0.62827101371E+02 -0.18905108655E+03 -0.13407944558E+04  0.13555136778E+04  0.00000000000E+00 0. -1.
          1    1    1    2  502    0 -0.88116473978E+02  0.18096234559E+03  0.72575592593E+02  0.21396051072E+03  0.00000000000E+00 0. -1.
         22    1    3    3    0    0  0.16539486641E+03 -0.16553262100E+02 -0.10618354781E+04  0.10747669770E+04  0.00000000000E+00 0. -1.
         22    1    3    3    0    0 -0.14451291061E+02  0.24642003063E+02 -0.13002663989E+03  0.13312774020E+03  0.00000000000E+00 0. -1.
</event>
<event>
 7    1  0.4402832E-005  0.2489657E+03  0.7818608E-02  0.1132313E+00
          2   -1    0    0  502    0  0.00000000000E+00  0.00000000000E+00  0.88216419776E+03  0.88216419776E+03  0.00000000000E+00 0. -1.
          1   -1    0    0  501    0 -0.00000000000E+00 -0.00000000000E+00 -0.28688680788E+03  0.28688680788E+03  0.00000000000E+00 0. -1.
         25    2    1    2    0    0  0.33678001284E+02  0.38039713742E+03  0.19459572978E+03  0.44646721648E+03  0.12501714847E+03 0.  0.
          2    1    1    2  501    0 -0.10120451696E+03 -0.19408999046E+03 -0.54984750374E+02  0.22569138536E+03  0.00000000000E+00 0. -1.
          1    1    1    2  502    0  0.67526515674E+02 -0.18630714696E+03  0.45566641047E+03  0.49689240380E+03  0.00000000000E+00 0. -1.
         22    1    3    3    0    0 -0.35067823159E+02  0.10500254167E+03  0.17964153469E+02  0.11215166869E+03  0.00000000000E+00 0.  1.
         22    1    3    3    0    0  0.68745824443E+02  0.27539459575E+03  0.17663157631E+03  0.33431554779E+03  0.00000000000E+00 0.  1.
</event>
<event>
 7    1  0.4402832E-005  0.8335946E+03  0.7818608E-02  0.1035730E+00
          2   -1    0    0  502    0  0.00000000000E+00  0.00000000000E+00  0.34896708093E+04  0.34896708093E+04  0.00000000000E+00 0. -1.
          1   -1    0    0  501    0 -0.00000000000E+00 -0.00000000000E+00 -0.17067503892E+04  0.17067503892E+04  0.00000000000E+00 0. -1.
         25    2    1    2    0    0 -0.76792471842E+02  0.10102880103E+04  0.26574318765E+03  0.10549041911E+04  0.12499785250E+03 0.  0.
          2    1    1    2  501    0  0.74069934147E+02 -0.20268747531E+03 -0.12450683616E+04  0.12636311934E+04  0.00000000000E+00 0. -1.
          1    1    1    2  502    0  0.27225376945E+01 -0.80760053501E+03  0.27622455941E+04  0.28778858140E+04  0.00000000000E+00 0. -1.
         22    1    3    3    0    0 -0.12225085918E+02  0.21642262171E+02  0.25144796431E+02  0.35356767741E+02  0.00000000000E+00 0.  1.
         22    1    3    3    0    0 -0.64567385923E+02  0.98864574815E+03  0.24059839122E+03  0.10195474234E+04  0.00000000000E+00 0.  1.
</event>
<event>
 7    1  0.4585977E-005  0.2676943E+03  0.7818608E-02  0.1191573E+00
          2   -1    0    0  502    0  0.00000000000E+00  0.00000000000E+00  0.17664394646E+04  0.17664394646E+04  0.00000000000E+00 0. -1.
          1   -1    0    0  501    0 -0.00000000000E+00 -0.00000000000E+00 -0.96679506944E+03  0.96679506944E+03  0.00000000000E+00 0. -1.
         25    2    1    2    0    0  0.22112125680E+03  0.11662515525E+03 -0.56153394774E+02  0.28508509032E+03  0.12499707170E+03 0.  0.
          2    1    1    2  501    0  0.46189106200E+02 -0.80305731023E+02 -0.78241163861E+03  0.78787715806E+03  0.00000000000E+00 0. -1.
          1    1    1    2  502    0 -0.26731036300E+03 -0.36319424226E+02  0.16382094285E+04  0.16602722856E+04  0.00000000000E+00 0. -1.
         22    1    3    3    0    0  0.99911448147E+02  0.11424409878E+03 -0.69978731569E+00  0.15177121361E+03  0.00000000000E+00 0. -1.
         22    1    3    3    0    0  0.12120980865E+03  0.23810564640E+01 -0.55453607458E+02  0.13331387671E+03  0.00000000000E+00 0. -1.
</event>
<event>
 7    1  0.4402832E-005  0.5365561E+03  0.7818608E-02  0.1116268E+00
          2   -1    0    0  502    0  0.00000000000E+00  0.00000000000E+00  0.99496649116E+03  0.99496649116E+03  0.00000000000E+00 0. -1.
          1   -1    0    0  501    0 -0.00000000000E+00 -0.00000000000E+00 -0.30938930407E+04  0.30938930407E+04  0.00000000000E+00 0. -1.
         25    2    1    2    0    0 -0.85547477848E+02 -0.58933492425E+03 -0.75069448970E+03  0.96633433521E+03  0.12500322650E+03 0.  0.
          2    1    1    2  501    0 -0.37157084997E+01  0.52134709527E+03 -0.22012551199E+04  0.22621539964E+04  0.00000000000E+00 0. -1.
          1    1    1    2  502    0  0.89263186348E+02  0.67987828978E+02  0.85302306007E+03  0.86037120031E+03  0.00000000000E+00 0. -1.
         22    1    3    3    0    0 -0.10166530722E+03 -0.32035378255E+03 -0.46330618697E+03  0.57237662738E+03  0.00000000000E+00 0. -1.
         22    1    3    3    0    0  0.16117829369E+02 -0.26898114170E+03 -0.28738830273E+03  0.39395770783E+03  0.00000000000E+00 0. -1.
</event>
<event>
 7    1  0.4402832E-005  0.6845955E+03  0.7818608E-02  0.1183588E+00
          2   -1    0    0  502    0  0.00000000000E+00  0.00000000000E+00  0.54949431119E+03  0.54949431119E+03  0.00000000000E+00 0. -1.
          1   -1    0    0  501    0 -0.00000000000E+00 -0.00000000000E+00 -0.17381410664E+04  0.17381410664E+04  0.00000000000E+00 0. -1.
         25    2    1    2    0    0  0.23291673672E+03  0.63212557804E+03 -0.10719495570E+02  0.68525432592E+03  0.12500252377E+03 0.  0.
          2    1    1    2  501    0 -0.20224312834E+03 -0.65714021729E+03 -0.13018669206E+04  0.14722747798E+04  0.00000000000E+00 0. -1.
          1    1    1    2  502    0 -0.30673608379E+02  0.25014639246E+02  0.12393966097E+03  0.13010627190E+03  0.00000000000E+00 0. -1.
         22    1    3    3    0    0  0.80664575469E+02  0.85767124004E+02  0.52027432171E+01  0.11785517313E+03  0.00000000000E+00 0.  1.
         22    1    3    3    0    0  0.15225216125E+03  0.54635845404E+03 -0.15922238787E+02  0.56739915280E+03  0.00000000000E+00 0.  1.
</event>
<event>
 7    1  0.4402832E-005  0.3576301E+03  0.7818608E-02  0.1098811E+00
          2   -1    0    0  502    0  0.00000000000E+00  0.00000000000E+00  0.51022449090E+03  0.51022449090E+03  0.00000000000E+00 0. -1.
          1   -1    0    0  501    0 -0.00000000000E+00 -0.00000000000E+00 -0.12861953671E+04  0.12861953671E+04  0.00000000000E+00 0. -1.
         25    2    1    2    0    0 -0.26340499251E+03 -0.34883577262E+03 -0.44100119653E+03  0.63338522155E+03  0.12500478869E+03 0.  0.
          2    1    1    2  501    0  0.53421519710E+02  0.33443726419E+03 -0.67954307405E+03  0.75926341407E+03  0.00000000000E+00 0. -1.
          1    1    1    2  502    0  0.20998347280E+03  0.14398508429E+02  0.34457339440E+03  0.40377122238E+03  0.00000000000E+00 0. -1.
         22    1    3    3    0    0 -0.13124987691E+03 -0.22833497347E+03 -0.18813011518E+03  0.32366082639E+03  0.00000000000E+00 0. -1.
         22    1    3    3    0    0 -0.13215511559E+03 -0.12050079914E+03 -0.25287108135E+03  0.30972439516E+03  0.00000000000E+00 0. -1.
</event>
<event>
 7    1  0.4402832E-005  0.1087575E+04  0.7818608E-02  0.1131367E+00
          2   -1    0    0  502    0  0.00000000000E+00  0.00000000000E+00  0.63807369040E+03  0.63807369040E+03  0.00000000000E+00 0. -1.
          1   -1    0    0  501    0 -0.00000000000E+00 -0.00000000000E+00 -0.47809547268E+04  0.47809547268E+04  0.00000000000E+00 0. -1.
         25    2    1    2    0    0  0.10733869965E+04  0.19911628397E+03 -0.40924064854E+03  0.11725651398E+04  0.12499664006E+03 0.  0.
          2    1    1    2  501    0 -0.18431420420E+02  0.42028598030E+02 -0.28472431242E+04  0.28476129528E+04  0.00000000000E+00 0. -1.
          1    1    1    2  502    0 -0.10549555761E+04 -0.24114488200E+03 -0.88639726358E+03  0.13988503245E+04  0.00000000000E+00 0. -1.
         22    1    3    3    0    0  0.12191049069E+03  0.29288852123E+02 -0.66489988627E+01  0.12555562028E+03  0.00000000000E+00 0.  1.
         22    1    3    3    0    0  0.95147650578E+03  0.16982743185E+03 -0.40259164968E+03  0.10470095196E+04  0.00000000000E+00 0.  1.
</event>
<event>
 7    1  0.4402832E-005  0.4395808E+03  0.7818608E-02  0.1166090E+00
          2   -1    0    0  502    0  0.00000000000E+00  0.00000000000E+00  0.44679545968E+04  0.44679545968E+04  0.00000000000E+00 0. -1.
          1   -1    0    0  501    0 -0.00000000000E+00 -0.00000000000E+00 -0.91609577837E+03  0.91609577837E+03  0.00000000000E+00 0. -1.
         25    2    1    2    0    0 -0.85550231640E+02 -0.36232846730E+03  0.25658171763E+03  0.46910605841E+03  0.12500222346E+03 0.  0.
          2    1    1    2  501    0 -0.11986990289E+02 -0.74210610345E+02 -0.79587242071E+03  0.79941466879E+03  0.00000000000E+00 0. -1.
          1    1    1    2  502    0  0.97537221929E+02  0.43653907764E+03  0.40911495215E+04  0.41155296479E+04  0.00000000000E+00 0. -1.
         22    1    3    3    0    0 -0.98047461711E+02 -0.35436375317E+03  0.21722641509E+03  0.42705302917E+03  0.00000000000E+00 0. -1.
         22    1    3    3    0    0  0.12497230072E+02 -0.79647141255E+01  0.39355302538E+02  0.42053029242E+02  0.00000000000E+00 0. -1.
</event>
<event>
 7    1  0.4402832E-005  0.6044297E+03  0.7818608E-02  0.1230315E+00
          2   -1    0    0  502    0  0.00000000000E+00  0.00000000000E+00  0.98151114351E+03  0.98151114351E+03  0.00000000000E+00 0. -1.
          1   -1    0    0  501    0 -0.00000000000E+00 -0.00000000000E+00 -0.30077516740E+04  0.30077516740E+04  0.00000000000E+00 0. -1.
         25    2    1    2    0    0 -0.13169501053E+03 -0.59299769379E+03 -0.78503578682E+03  0.10004477531E+04  0.12499871798E+03 0.  0.
          2    1    1    2  501    0  0.15679731975E+03  0.58266612235E+03 -0.20717477726E+04  0.21578285481E+04  0.00000000000E+00 0. -1.
          1    1    1    2  502    0 -0.25102309214E+02  0.10331571437E+02  0.83054302896E+03  0.83098651628E+03  0.00000000000E+00 0. -1.
         22    1    3    3    0    0 -0.88659267005E+02 -0.36350139149E+03 -0.38235196359E+03  0.53496425236E+03  0.00000000000E+00 0.  1.
         22    1    3    3    0    0 -0.43035743528E+02 -0.22949630230E+03 -0.40268382323E+03  0.46548350076E+03  0.00000000000E+00 0.  1.
</event>
<event>
 7    1  0.4402832E-005  0.9814136E+02  0.7818608E-02  0.1386267E+00
          2   -1    0    0  502    0  0.00000000000E+00  0.00000000000E+00  0.17787474469E+04  0.17787474469E+04  0.00000000000E+00 0. -1.
          1   -1    0    0  501    0 -0.00000000000E+00 -0.00000000000E+00 -0.18918133770E+03  0.18918133770E+03  0.00000000000E+00 0. -1.
         25    2    1    2    0    0  0.78100483339E+02  0.73139258767E+02  0.23202451208E+02  0.16617030468E+03  0.12500071898E+03 0.  0.
          2    1    1    2  501    0 -0.36953571039E+02  0.15934070550E+02 -0.11278304262E+03  0.11974754995E+03  0.00000000000E+00 0. -1.
          1    1    1    2  502    0 -0.41146912301E+02 -0.89073329317E+02  0.16791467006E+04  0.16820109300E+04  0.00000000000E+00 0. -1.
         22    1    3    3    0    0  0.66919668007E+02  0.28867846817E+02 -0.43843716327E+02  0.85052136995E+02  0.00000000000E+00 0. -1.
         22    1    3    3    0    0  0.11180815332E+02  0.44271411951E+02  0.67046167536E+02  0.81118167686E+02  0.00000000000E+00 0. -1.
</event>
<event>
 7    1  0.4402832E-005  0.2219614E+03  0.7818608E-02  0.1200925E+00
          2   -1    0    0  502    0  0.00000000000E+00  0.00000000000E+00  0.83124184441E+03  0.83124184441E+03  0.00000000000E+00 0. -1.
          1   -1    0    0  501    0 -0.00000000000E+00 -0.00000000000E+00 -0.14063018837E+04  0.14063018837E+04  0.00000000000E+00 0. -1.
         25    2    1    2    0    0  0.12282869192E+03 -0.23998896356E+03  0.51075472790E+03  0.59091150309E+03  0.12499768888E+03 0.  0.
          2    1    1    2  501    0 -0.83680376721E+02  0.56328693850E+02 -0.13326626726E+04  0.13364748880E+04  0.00000000000E+00 0. -1.
          1    1    1    2  502    0 -0.39148315197E+02  0.18366026971E+03  0.24684790548E+03  0.31015733700E+03  0.00000000000E+00 0. -1.
         22    1    3    3    0    0  0.18898152576E+02 -0.15683747776E+03  0.33561785437E+03  0.37093729763E+03  0.00000000000E+00 0.  1.
         22    1    3    3    0    0  0.10393053934E+03 -0.83151485804E+02  0.17513687353E+03  0.21997420546E+03  0.00000000000E+00 0.  1.
</event>
<event>
 7    1  0.4402832E-005  0.3803797E+03  0.7818608E-02  0.1177302E+00
          2   -1    0    0  502    0  0.00000000000E+00  0.00000000000E+00  0.91149277503E+03  0.91149277503E+03  0.00000000000E+00 0. -1.
          1   -1    0    0  501    0 -0.00000000000E+00 -0.00000000000E+00 -0.43935334622E+03  0.43935334622E+03  0.00000000000E+00 0. -1.
         25    2    1    2    0    0 -0.32362845048E+03 -0.25605608643E+03 -0.22456469190E+03  0.48616389969E+03  0.12500377256E+03 0.  0.
          2    1    1    2  501    0 -0.73422860283E+01  0.76092751283E+02  0.44748403601E+01  0.76577021084E+02  0.00000000000E+00 0. -1.
          1    1    1    2  502    0  0.33097073651E+03  0.17996333514E+03  0.69222928036E+03  0.78810520047E+03  0.00000000000E+00 0. -1.
         22    1    3    3    0    0 -0.25105535028E+02  0.74200639797E+01  0.48654528832E+01  0.26627389476E+02  0.00000000000E+00 0. -1.
         22    1    3    3    0    0 -0.29852291546E+03 -0.26347615040E+03 -0.22943014479E+03  0.45953651022E+03  0.00000000000E+00 0. -1.
</event>
<event>
 7    1  0.4402832E-005  0.1794192E+03  0.7818608E-02  0.1196524E+00
          2   -1    0    0  502    0  0.00000000000E+00  0.00000000000E+00  0.20934474612E+04  0.20934474612E+04  0.00000000000E+00 0. -1.
          1   -1    0    0  501    0 -0.00000000000E+00 -0.00000000000E+00 -0.35609943091E+03  0.35609943091E+03  0.00000000000E+00 0. -1.
         25    2    1    2    0    0 -0.64803592715E+02  0.22371717786E+03  0.24169666052E+03  0.35817739766E+03  0.12499956473E+03 0.  0.
          2    1    1    2  501    0  0.11920228837E+03 -0.54122916861E+02 -0.27879778477E+03  0.30800435139E+03  0.00000000000E+00 0. -1.
          1    1    1    2  502    0 -0.54398695651E+02 -0.16959426100E+03  0.17744491545E+04  0.17833651431E+04  0.00000000000E+00 0. -1.
         22    1    3    3    0    0 -0.10165821834E+03  0.14304138267E+03  0.16630546014E+03  0.24177000762E+03  0.00000000000E+00 0.  1.
         22    1    3    3    0    0  0.36854625621E+02  0.80675795198E+02  0.75391200383E+02  0.11640739004E+03  0.00000000000E+00 0.  1.
</event>
<event>
 7    1  0.4402832E-005  0.1294838E+03  0.7818608E-02  0.1238815E+00
          2   -1    0    0  502    0  0.00000000000E+00  0.00000000000E+00  0.69139181110E+03  0.69139181110E+03  0.00000000000E+00 0. -1.
          1   -1    0    0  501    0 -0.00000000000E+00 -0.00000000000E+00 -0.11325517532E+04  0.11325517532E+04  0.00000000000E+00 0. -1.
         25    2    1    2    0    0  0.83090683453E+02 -0.10782428855E+03 -0.81840292863E+03  0.83901012706E+03  0.12499800331E+03 0.  0.
          2    1    1    2  501    0 -0.11472891353E+03 -0.18085727750E+02 -0.28622007288E+03  0.30888792024E+03  0.00000000000E+00 0. -1.
          1    1    1    2  502    0  0.31638230075E+02  0.12591001630E+03  0.66346305943E+03  0.67604551699E+03  0.00000000000E+00 0. -1.
         22    1    3    3    0    0  0.81771383594E+02 -0.11826538273E+03 -0.81552053689E+03  0.82809842774E+03  0.00000000000E+00 0. -1.
         22    1    3    3    0    0  0.13192998594E+01  0.10441094187E+02 -0.28823917430E+01  0.10911699322E+02  0.00000000000E+00 0. -1.
</event>
<event>
 7    1  0.4402832E-005  0.2508487E+03  0.7818608E-02  0.1295736E+00
          2   -1    0    0  502    0  0.00000000000E+00  0.00000000000E+00  0.12685655165E+04  0.12685655165E+04  0.00000000000E+00 0. -1.
          1   -1    0    0  501    0 -0.00000000000E+00 -0.00000000000E+00 -0.13612592719E+04  0.13612592719E+04  0.00000000000E+00 0. -1.
         25    2    1    2    0    0  0.13179545397E+03  0.19163872790E+03 -0.36833514557E+03  0.45320103986E+03  0.12499983739E+03 0.  0.
          2    1    1    2  501    0 -0.12647022964E+03 -0.22570687545E+03 -0.93263441855E+03  0.96785601784E+03  0.00000000000E+00 0. -1.
          1    1    1    2  502    0 -0.53252243283E+01  0.34068147552E+02  0.12082758087E+04  0.12087677307E+04  0.00000000000E+00 0. -1.
         22    1    3    3    0    0  0.11450169792E+03  0.15014594038E+03 -0.36134738194E+03  0.40770868605E+03  0.00000000000E+00 0. -1.
         22    1    3    3    0    0  0.17293756051E+02  0.41492787524E+02 -0.69877636241E+01  0.45492353812E+02  0.00000000000E+00 0. -1.
</event>
<event>
 7    1  0.4402832E-005  0.3185979E+03  0.7818608E-02  0.1293644E+00
          2   -1    0    0  502    0  0.00000000000E+00  0.00000000000E+00  0.14498466246E+04  0.14498466246E+04  0.00000000000E+00 0. -1.
          1   -1    0    0  501    0 -0.00000000000E+00 -0.00000000000E+00 -0.13286041089E+04  0.13286041089E+04  0.00000000000E+00 0. -1.
         25    2    1    2    0    0  0.28872622412E+03 -0.17822019105E+03  0.38036199067E+03  0.52480969763E+03  0.12499882317E+03 0.  0.
          2    1    1    2  501    0 -0.23550915592E+02  0.14548964188E+02 -0.12318777253E+04  0.12321887226E+04  0.00000000000E+00 0. -1.
          1    1    1    2  502    0 -0.26517530852E+03  0.16367122686E+03  0.97275825029E+03  0.10214523133E+04  0.00000000000E+00 0. -1.
         22    1    3    3    0    0  0.55316492326E+02  0.14925041360E+02  0.44899723390E+02  0.72791870036E+02  0.00000000000E+00 0.  1.
         22    1    3    3    0    0  0.23340973179E+03 -0.19314523241E+03  0.33546226728E+03  0.45201782760E+03  0.00000000000E+00 0.  1.
</event>
<event>
 7    1  0.4402832E-005  0.6252615E+03  0.7818608E-02  0.1029398E+00
          2   -1    0    0  502    0  0.00000000000E+00  0.00000000000E+00  0.53283789540E+03  0.53283789540E+03  0.00000000000E+00 0. -1.
          1   -1    0    0  501    0 -0.00000000000E+00 -0.00000000000E+00 -0.19283326172E+04  0.19283326172E+04  0.00000000000E+00 0. -1.
         25    2    1    2    0    0  0.70895567399E+03  0.10165935916E+03 -0.14371136465E+04  0.16105497642E+04  0.12498854764E+03 0.  0.
          2    1    1    2  501    0 -0.41298362002E+03 -0.21204337159E+03 -0.14171487495E+03  0.48538744074E+03  0.00000000000E+00 0. -1.
          1    1    1    2  502    0 -0.29597205397E+03  0.11038401243E+03  0.18333379964E+03  0.36523330766E+03  0.00000000000E+00 0. -1.
         22    1    3    3    0    0  0.26938453910E+03  0.40697317009E+02 -0.41727158400E+03  0.49833711114E+03  0.00000000000E+00 0. -1.
         22    1    3    3    0    0  0.43957113489E+03  0.60962042155E+02 -0.10198420625E+04  0.11122126531E+04  0.00000000000E+00 0. -1.
</event>
<event>
 7    1  0.4402832E-005  0.2688360E+03  0.7818608E-02  0.1171173E+00
          2   -1    0    0  502    0  0.00000000000E+00  0.00000000000E+00  0.10124841861E+04  0.10124841861E+04  0.00000000000E+00 0. -1.
          1   -1    0    0  501    0 -0.00000000000E+00 -0.00000000000E+00 -0.55804554011E+03  0.55804554011E+03  0.00000000000E+00 0. -1.
         25    2    1    2    0    0 -0.34848035021E+03  0.88882978467E+02 -0.74916832858E+02  0.38804258646E+03  0.12500311483E+03 0.  0.
          2    1    1    2  501    0  0.11319497837E+03  0.25167236939E+02 -0.29536417280E+03  0.31731134162E+03  0.00000000000E+00 0. -1.
          1    1    1    2  502    0  0.23528537184E+03 -0.11405021541E+03  0.82471965166E+03  0.86517579813E+03  0.00000000000E+00 0. -1.
         22    1    3    3    0    0 -0.17524143547E+03 -0.19564403702E+02 -0.37067841822E+02  0.18018421544E+03  0.00000000000E+00 0.  1.
         22    1    3    3    0    0 -0.17323891474E+03  0.10844738217E+03 -0.37848991036E+02  0.20785837102E+03  0.00000000000E+00 0.  1.
</event>
<event>
 7    1  0.4402832E-005  0.1544314E+03  0.7818608E-02  0.1367196E+00
          2   -1    0    0  502    0  0.00000000000E+00  0.00000000000E+00  0.66400792492E+03  0.66400792492E+03  0.00000000000E+00 0. -1.
          1   -1    0    0  501    0 -0.00000000000E+00 -0.00000000000E+00 -0.14805762327E+03  0.14805762327E+03  0.00000000000E+00 0. -1.
         25    2    1    2    0    0  0.16040246010E+03 -0.33631695966E+02  0.33759112615E+03  0.39554241938E+03  0.12500398750E+03 0.  0.
          2    1    1    2  501    0 -0.14229838328E+03  0.57428435686E+02 -0.68367691136E+02  0.16799106018E+03  0.00000000000E+00 0. -1.
          1    1    1    2  502    0 -0.18104076822E+02 -0.23796739720E+02  0.24672686664E+03  0.24853206863E+03  0.00000000000E+00 0. -1.
         22    1    3    3    0    0  0.74051544965E+02 -0.70091257852E+02  0.23724838303E+03  0.25823092571E+03  0.00000000000E+00 0.  1.
         22    1    3    3    0    0  0.86350915136E+02  0.36459561886E+02  0.10034274312E+03  0.13731149367E+03  0.00000000000E+00 0.  1.
</event>
<event>
 7    1  0.4402832E-005  0.5156078E+03  0.7818608E-02  0.1081279E+00
          2   -1    0    0  502    0  0.00000000000E+00  0.00000000000E+00  0.10923167837E+04  0.10923167837E+04  0.00000000000E+00 0. -1.
          1   -1    0    0  501    0 -0.00000000000E+00 -0.00000000000E+00 -0.78185106359E+03  0.78185106359E+03  0.00000000000E+00 0. -1.
         25    2    1    2    0    0 -0.50560055455E+03  0.33472640945E+03  0.51070979600E+03  0.80257282272E+03  0.12499980036E+03 0.  0.
          2    1    1    2  501    0  0.18179652871E+03 -0.28766479297E+02 -0.50123166142E+03  0.53395755130E+03  0.00000000000E+00 0. -1.
          1    1    1    2  502    0  0.32380402584E+03 -0.30595993016E+03  0.30098758549E+03  0.53763747324E+03  0.00000000000E+00 0. -1.
         22    1    3    3    0    0 -0.30891624907E+03  0.17136818156E+03  0.36647209174E+03  0.50901679404E+03  0.00000000000E+00 0.  1.
         22    1    3    3    0    0 -0.19668430548E+03  0.16335822789E+03  0.14423770426E+03  0.29355602868E+03  0.00000000000E+00 0.  1.
</event>
<event>
 7    1  0.4402832E-005  0.5126191E+03  0.7818608E-02  0.1101631E+00
          2   -1    0    0  502    0  0.00000000000E+00  0.00000000000E+00  0.67320084833E+03  0.67320084833E+03  0.00000000000E+00 0. -1.
          1   -1    0    0  501    0 -0.00000000000E+00 -0.00000000000E+00 -0.97044381898E+03  0.97044381898E+03  0.00000000000E+00 0. -1.
         25    2    1    2    0    0  0.38325997978E+03  0.41273190645E+03 -0.14615948172E+03  0.59516637646E+03  0.12499833148E+03 0.  0.
          2    1    1    2  501    0 -0.24275499974E+03 -0.43003649005E+03 -0.48106654019E+03  0.68941017455E+03  0.00000000000E+00 0. -1.
          1    1    1    2  502    0 -0.14050498004E+03  0.17304583606E+02  0.32998305126E+03  0.35906811631E+03  0.00000000000E+00 0. -1.
         22    1    3    3    0    0  0.36274848540E+03  0.36687348721E+03 -0.97174378523E+02  0.52500045630E+03  0.00000000000E+00 0. -1.
         22    1    3    3    0    0  0.20511494386E+02  0.45858419235E+02 -0.48985103197E+02  0.70165920161E+02  0.00000000000E+00 0. -1.
</event>
<event>
 7    1  0.4402832E-005  0.4393847E+03  0.7818608E-02  0.1148572E+00
          2   -1    0    0  502    0  0.00000000000E+00  0.00000000000E+00  0.10816067753E+04  0.10816067753E+04  0.00000000000E+00 0. -1.
          1   -1    0    0  501    0 -0.00000000000E+00 -0.00000000000E+00 -0.13656010835E+04  0.13656010835E+04  0.00000000000E+00 0. -1.
         25    2    1    2    0    0  0.27100114194E+03 -0.30638513511E+03 -0.11203603043E+04  0.11992268585E+04  0.12499750736E+03 0.  0.
          2    1    1    2  501    0 -0.51938442254E+02 -0.76306486726E+02 -0.14512090810E+03  0.17198941732E+03  0.00000000000E+00 0. -1.
          1    1    1    2  502    0 -0.21906269969E+03  0.38269162183E+03  0.98148690410E+03  0.10759915830E+04  0.00000000000E+00 0. -1.
         22    1    3    3    0    0  0.20807359604E+02 -0.91995199256E+02 -0.18743718570E+03  0.20983031593E+03  0.00000000000E+00 0. -1.
         22    1    3    3    0    0  0.25019378234E+03 -0.21438993585E+03 -0.93292311855E+03  0.98939654257E+03  0.00000000000E+00 0. -1.
</event>
<event>
 7    1  0.4402832E-005  0.3363992E+03  0.7818608E-02  0.1084777E+00
          2   -1    0    0  502    0  0.00000000000E+00  0.00000000000E+00  0.11769053244E+04  0.11769053244E+04  0.00000000000E+00 0. -1.
          1   -1    0    0  501    0 -0.00000000000E+00 -0.00000000000E+00 -0.37229371781E+03  0.37229371781E+03  0.00000000000E+00 0. -1.
         25    2    1    2    0    0  0.31523733447E+03  0.31608643766E+03 -0.25610084354E+02  0.46429462704E+03  0.12501364389E+03 0.  0.
          2    1    1    2  501    0 -0.26919163551E+03 -0.50855856253E+02  0.76324574365E+02  0.28438687627E+03  0.00000000000E+00 0. -1.
          1    1    1    2  502    0 -0.46045698961E+02 -0.26523058141E+03  0.75389711663E+03  0.80051753895E+03  0.00000000000E+00 0. -1.
         22    1    3    3    0    0  0.28887875989E+03  0.28863032207E+03  0.15001035296E+02  0.40863606277E+03  0.00000000000E+00 0. -1.
         22    1    3    3    0    0  0.26358574581E+02  0.27456115586E+02 -0.40611119650E+02  0.55658564267E+02  0.00000000000E+00 0. -1.
</event>
<event>
 7    1  0.4402832E-005  0.1346403E+03  0.7818608E-02  0.1293596E+00
          2   -1    0    0  502    0  0.00000000000E+00  0.00000000000E+00  0.48802938615E+02  0.48802938615E+02  0.00000000000E+00 0. -1.
          1   -1    0    0  501    0 -0.00000000000E+00 -0.00000000000E+00 -0.16390332176E+04  0.16390332176E+04  0.00000000000E+00 0. -1.
         25    2    1    2    0    0 -0.14837280333E+03  0.70722725181E+02 -0.24609878431E+03  0.32125478496E+03  0.12499533030E+03 0.  0.
          2    1    1    2  501    0  0.65470237237E+02 -0.28893378837E+01 -0.10738427183E+04  0.10758405476E+04  0.00000000000E+00 0. -1.
          1    1    1    2  502    0  0.82902566088E+02 -0.67833387297E+02 -0.27028877634E+03  0.29074082361E+03  0.00000000000E+00 0. -1.
         22    1    3    3    0    0 -0.54225554484E+02  0.94776222591E+02 -0.13591927904E+03  0.17434733592E+03  0.00000000000E+00 0.  1.
         22    1    3    3    0    0 -0.94147248841E+02 -0.24053497410E+02 -0.11017950526E+03  0.14690744903E+03  0.00000000000E+00 0.  1.
</event>
<event>
 7    1  0.4402832E-005  0.3841431E+02  0.7818608E-02  0.1521247E+00
          2   -1    0    0  502    0  0.00000000000E+00  0.00000000000E+00  0.19138569075E+02  0.19138569075E+02  0.00000000000E+00 0. -1.
          1   -1    0    0  501    0 -0.00000000000E+00 -0.00000000000E+00 -0.10975651869E+04  0.10975651869E+04  0.00000000000E+00 0. -1.
         25    2    1    2    0    0 -0.15365804756E+02 -0.21711761618E+02 -0.64485715469E+03  0.65739798274E+03  0.12499539674E+03 0.  0.
          2    1    1    2  501    0  0.36127908946E+02 -0.12257381689E+02 -0.41250402226E+03  0.41426445369E+03  0.00000000000E+00 0. -1.
          1    1    1    2  502    0 -0.20762104190E+02  0.33969143306E+02 -0.21065440881E+02  0.45041319551E+02  0.00000000000E+00 0. -1.
         22    1    3    3    0    0 -0.30186038734E+02  0.40131121297E+02 -0.14368816317E+03  0.15221035466E+03  0.00000000000E+00 0. -1.
         22    1    3    3    0    0  0.14820233978E+02 -0.61842882915E+02 -0.50116899151E+03  0.50518762807E+03  0.00000000000E+00 0. -1.
</event>
<event>
 7    1  0.4402832E-005  0.1858720E+03  0.7818608E-02  0.1211074E+00
          2   -1    0    0  502    0  0.00000000000E+00  0.00000000000E+00  0.10481880102E+04  0.10481880102E+04  0.00000000000E+00 0. -1.
          1   -1    0    0  501    0 -0.00000000000E+00 -0.00000000000E+00 -0.11654201279E+03  0.11654201279E+03  0.00000000000E+00 0. -1.
         25    2    1    2    0    0  0.22538646193E+03 -0.15219643404E+03  0.19352809259E+03  0.35642846173E+03  0.12500125581E+03 0.  0.
          2    1    1    2  501    0 -0.63751830497E+02  0.87187803635E+02  0.10129045854E+03  0.14807351547E+03  0.00000000000E+00 0. -1.
          1    1    1    2  502    0 -0.16163463143E+03  0.65008630410E+02  0.63682744624E+03  0.66022804574E+03  0.00000000000E+00 0. -1.
         22    1    3    3    0    0  0.23209216575E+03 -0.16436699250E+03  0.19020152819E+03  0.34214018026E+03  0.00000000000E+00 0. -1.
         22    1    3    3    0    0 -0.67057038156E+01  0.12170558452E+02  0.33265644010E+01  0.14288281472E+02  0.00000000000E+00 0. -1.
</event>
<event>
 7    1  0.4402832E-005  0.3120189E+03  0.7818608E-02  0.1285941E+00
          2   -1    0    0  502    0  0.00000000000E+00  0.00000000000E+00  0.45331369898E+03  0.45331369898E+03  0.00000000000E+00 0. -1.
          1   -1    0    0  501    0 -0.00000000000E+00 -0.00000000000E+00 -0.43533285304E+03  0.43533285304E+03  0.00000000000E+00 0. -1.
         25    2    1    2    0    0  0.15805057670E+03  0.27904393608E+03 -0.24998802718E+03  0.42539839386E+03  0.12499710680E+03 0.  0.
          2    1    1    2  501    0 -0.14261676218E+03 -0.25287492825E+03  0.12328953020E+03  0.31541334539E+03  0.00000000000E+00 0. -1.
          1    1    1    2  502    0 -0.15433814520E+02 -0.26169007826E+02  0.14467934292E+03  0.14783481277E+03  0.00000000000E+00 0. -1.
         22    1    3    3    0    0  0.17563059515E+03  0.25853167570E+03 -0.20786430867E+03  0.37535623628E+03  0.00000000000E+00 0. -1.
         22    1    3    3    0    0 -0.17580018450E+02  0.20512260372E+02 -0.42123718503E+02  0.50042157575E+02  0.00000000000E+00 0. -1.
</event>
<event>
 7    1  0.4402832E-005  0.3707802E+03  0.7818608E-02  0.1085396E+00
          2   -1    0    0  502    0  0.00000000000E+00  0.00000000000E+00  0.14353831789E+04  0.14353831789E+04  0.00000000000E+00 0. -1.
          1   -1    0    0  501    0 -0.00000000000E+00 -0.00000000000E+00 -0.10834086457E+04  0.10834086457E+04  0.00000000000E+00 0. -1.
         25    2    1    2    0    0 -0.35237040998E+03  0.47523918100E+03  0.31809412440E+03  0.68324682586E+03  0.12500067235E+03 0.  0.
          2    1    1    2  501    0  0.24322416253E+03 -0.25899234752E+03 -0.84883687215E+03  0.92019512324E+03  0.00000000000E+00 0. -1.
          1    1    1    2  502    0  0.10914624745E+03 -0.21624683347E+03  0.88271728097E+03  0.91534987542E+03  0.00000000000E+00 0. -1.
         22    1    3    3    0    0 -0.35877456176E+03  0.47592649100E+03  0.30702421706E+03  0.67043946845E+03  0.00000000000E+00 0.  1.
         22    1    3    3    0    0  0.64041517863E+01 -0.68731000206E+00  0.11069907339E+02  0.12807357402E+02  0.00000000000E+00 0.  1.
</event>
<event>
 7    1  0.4402832E-005  0.3041319E+02  0.7818608E-02  0.1598222E+00
          2   -1    0    0  502    0  0.00000000000E+00  0.00000000000E+00  0.53160674784E+03  0.53160674784E+03  0.00000000000E+00 0. -1.
          1   -1    0    0  501    0 -0.00000000000E+00 -0.00000000000E+00 -0.21876102658E+04  0.21876102658E+04  0.00000000000E+00 0. -1.
         25    2    1    2    0    0 -0.29685387622E+02  0.23027726476E+02  0.13018666854E+03  0.18435065268E+03  0.12500038421E+03 0.  0.
          2    1    1    2  501    0  0.10504137214E+01 -0.30399378785E+02 -0.21598371183E+04  0.21600512964E+04  0.00000000000E+00 0. -1.
          1    1    1    2  502    0  0.28634973901E+02  0.73716523091E+01  0.37364693179E+03  0.37481506456E+03  0.00000000000E+00 0. -1.
         22    1    3    3    0    0 -0.71446053346E+02 -0.31146783146E+01  0.40928444879E+02  0.82397678123E+02  0.00000000000E+00 0.  1.
         22    1    3    3    0    0  0.41760665724E+02  0.26142404791E+02  0.89258223656E+02  0.10195297455E+03  0.00000000000E+00 0.  1.
</event>
<event>
 7    1  0.4402832E-005  0.7752559E+02  0.7818608E-02  0.1488607E+00
          2   -1    0    0  502    0  0.00000000000E+00  0.00000000000E+00  0.16241576957E+04  0.16241576957E+04  0.00000000000E+00 0. -1.
          1   -1    0    0  501    0 -0.00000000000E+00 -0.00000000000E+00 -0.29282802174E+02  0.29282802174E+02  0.00000000000E+00 0. -1.
         25    2    1    2    0    0 -0.37269909573E+02  0.64015987650E+02  0.17210071184E+03  0.22523426324E+03  0.12499890194E+03 0.  0.
          2    1    1    2  501    0  0.59024845630E+02 -0.73219173535E+02  0.90042772405E+03  0.90532594463E+03  0.00000000000E+00 0. -1.
          1    1    1    2  502    0 -0.21754936057E+02  0.92031858847E+01  0.52234645763E+03  0.52288029000E+03  0.00000000000E+00 0. -1.
         22    1    3    3    0    0  0.12413192904E+02  0.16384913963E+02 -0.15279911364E+02  0.25613052433E+02  0.00000000000E+00 0. -1.
         22    1    3    3    0    0 -0.49683102476E+02  0.47631073687E+02  0.18738062320E+03  0.19962121080E+03  0.00000000000E+00 0. -1.
</event>
<event>
 7    1  0.4402832E-005  0.5932781E+03  0.7818608E-02  0.1136826E+00
          2   -1    0    0  502    0  0.00000000000E+00  0.00000000000E+00  0.10048129031E+04  0.10048129031E+04  0.00000000000E+00 0. -1.
          1   -1    0    0  501    0 -0.00000000000E+00 -0.00000000000E+00 -0.79446465358E+03  0.79446465358E+03  0.00000000000E+00 0. -1.
         25    2    1    2    0    0 -0.33941710756E+03  0.53055176249E+03  0.21058512109E+03  0.67576670191E+03  0.12500158638E+03 0.  0.
          2    1    1    2  501    0  0.74863117394E+02 -0.24312960412E+02 -0.41194747012E+03  0.41939995771E+03  0.00000000000E+00 0. -1.
          1    1    1    2  502    0  0.26455399016E+03 -0.50623880207E+03  0.41171059860E+03  0.70411089711E+03  0.00000000000E+00 0. -1.
         22    1    3    3    0    0 -0.86984633294E+02  0.88947321923E+02 -0.21058804272E+01  0.12442824132E+03  0.00000000000E+00 0. -1.
         22    1    3    3    0    0 -0.25243247426E+03  0.44160444056E+03  0.21269100152E+03  0.55133846058E+03  0.00000000000E+00 0. -1.
</event>
<event>
 7    1  0.4402832E-005  0.6924366E+03  0.7818608E-02  0.1069132E+00
          2   -1    0    0  502    0  0.00000000000E+00  0.00000000000E+00  0.17002312588E+04  0.17002312588E+04  0.00000000000E+00 0. -1.
          1   -1    0    0  501    0 -0.00000000000E+00 -0.00000000000E+00 -0.10516053643E+04  0.10516053643E+04  0.00000000000E+00 0. -1.
         25    2    1    2    0    0  0.22943789202E+03 -0.66086949795E+03  0.33310876620E+03  0.78484022249E+03  0.12498994000E+03 0.  0.
          2    1    1    2  501    0 -0.70590820405E+02  0.69088340172E+03 -0.67197426533E+03  0.96636036341E+03  0.00000000000E+00 0. -1.
          1    1    1    2  502    0 -0.15884707161E+03 -0.30013903772E+02  0.98749139359E+03  0.10006360372E+04  0.00000000000E+00 0. -1.
         22    1    3    3    0    0  0.22850030664E+03 -0.53476106506E+03  0.30047742606E+03  0.65457503039E+03  0.00000000000E+00 0. -1.
         22    1    3    3    0    0  0.93758537381E+00 -0.12610843289E+03  0.32631340133E+02  0.13026519209E+03  0.00000000000E+00 0. -1.
</event>
<event>
 7    1  0.4402832E-005  0.1083851E+04  0.7818608E-02  0.1130473E+00
          2   -1    0    0  502    0  0.00000000000E+00  0.00000000000E+00  0.14003122254E+04  0.14003122254E+04  0.00000000000E+00 0. -1.
          1   -1    0    0  501    0 -0.00000000000E+00 -0.00000000000E+00 -0.95992359138E+03  0.95992359138E+03  0.00000000000E+00 0. -1.
         25    2    1    2    0    0 -0.75393472559E+03 -0.76826069269E+03  0.10607865771E+03  0.10888153973E+04  0.12499690141E+03 0.  0.
          2    1    1    2  501    0  0.73299385876E+03  0.80984286070E+03  0.17598105989E+03  0.11063881730E+04  0.00000000000E+00 0. -1.
          1    1    1    2  502    0  0.20940866825E+02 -0.41582168008E+02  0.15832891640E+03  0.16503224645E+03  0.00000000000E+00 0. -1.
         22    1    3    3    0    0 -0.11656292987E+03 -0.82226779168E+02  0.48341365391E+02  0.15061556175E+03  0.00000000000E+00 0. -1.
         22    1    3    3    0    0 -0.63737179572E+03 -0.68603391352E+03  0.57737292323E+02  0.93819983554E+03  0.00000000000E+00 0. -1.
</event>
<event>
 7    1  0.4402832E-005  0.1580075E+03  0.7818608E-02  0.1231954E+00
          2   -1    0    0  502    0  0.00000000000E+00  0.00000000000E+00  0.42384823424E+03  0.42384823424E+03  0.00000000000E+00 0. -1.
          1   -1    0    0  501    0 -0.00000000000E+00 -0.00000000000E+00 -0.71750272942E+03  0.71750272942E+03  0.00000000000E+00 0. -1.
         25    2    1    2    0    0  0.97682097651E+02 -0.21203013032E+03 -0.11341257772E+03  0.28807303822E+03  0.12500037680E+03 0.  0.
          2    1    1    2  501    0 -0.10153432401E+03  0.11000239040E+03 -0.49774145614E+03  0.51976562219E+03  0.00000000000E+00 0. -1.
          1    1    1    2  502    0  0.38522263575E+01  0.10202773992E+03  0.31749953868E+03  0.33351230325E+03  0.00000000000E+00 0. -1.
         22    1    3    3    0    0  0.46914769683E+02 -0.13148617452E+03  0.50746884710E+00  0.13960611458E+03  0.00000000000E+00 0.  1.
         22    1    3    3    0    0  0.50767327968E+02 -0.80543955800E+02 -0.11392004657E+03  0.14846692364E+03  0.00000000000E+00 0.  1.
</event>
<event>
 7    1  0.4402832E-005  0.2249592E+03  0.7818608E-02  0.1159474E+00
          2   -1    0    0  502    0  0.00000000000E+00  0.00000000000E+00  0.50411396736E+04  0.50411396736E+04  0.00000000000E+00 0. -1.
          1   -1    0    0  501    0 -0.00000000000E+00 -0.00000000000E+00 -0.27652662284E+02  0.27652662284E+02  0.00000000000E+00 0. -1.
         25    2    1    2    0    0 -0.65930093215E+01  0.25229541739E+03  0.31486907294E+04  0.31612605639E+04  0.12497438961E+03 0.  0.
          2    1    1    2  501    0 -0.13658173861E+03 -0.18409076854E+03  0.13339754381E+04  0.13535266720E+04  0.00000000000E+00 0. -1.
          1    1    1    2  502    0  0.14317474793E+03 -0.68204648847E+02  0.53082084380E+03  0.55400509996E+03  0.00000000000E+00 0. -1.
         22    1    3    3    0    0  0.37807609671E+02  0.65222127797E+02  0.14006923935E+04  0.14027196878E+04  0.00000000000E+00 0.  1.
         22    1    3    3    0    0 -0.44400618993E+02  0.18707328959E+03  0.17479983359E+04  0.17585408761E+04  0.00000000000E+00 0.  1.
</event>
<event>
 7    1  0.4402832E-005  0.9427603E+03  0.7818608E-02  0.1022750E+00
          2   -1    0    0  502    0  0.00000000000E+00  0.00000000000E+00  0.54683061302E+03  0.54683061302E+03  0.00000000000E+00 0. -1.
          1   -1    0    0  501    0 -0.00000000000E+00 -0.00000000000E+00 -0.26054043702E+04  0.26054043702E+04  0.00000000000E+00 0. -1.
         25    2    1    2    0    0  0.90753772519E+03 -0.16973669215E+03 -0.14390611540E+04  0.17143388263E+04  0.12500135574E+03 0.  0.
          2    1    1    2  501    0 -0.36277236167E+02 -0.22853991284E+03 -0.38892547461E+03  0.45255889608E+03  0.00000000000E+00 0. -1.
          1    1    1    2  502    0 -0.87126048902E+03  0.39827660498E+03 -0.23058712854E+03  0.98533726087E+03  0.00000000000E+00 0. -1.
         22    1    3    3    0    0  0.23566911396E+03 -0.37563211495E+02 -0.47835647745E+03  0.53458006477E+03  0.00000000000E+00 0.  1.
         22    1    3    3    0    0  0.67186861122E+03 -0.13217348065E+03 -0.96070467655E+03  0.11797587615E+04  0.00000000000E+00 0.  1.
</event>
<event>
 7    1  0.4402832E-005  0.7965884E+03  0.7818608E-02  0.1185118E+00
          2   -1    0    0  502    0  0.00000000000E+00  0.00000000000E+00  0.81302215779E+03  0.81302215779E+03  0.00000000000E+00 0. -1.
          1   -1    0    0  501    0 -0.00000000000E+00 -0.00000000000E+00 -0.14209167746E+04  0.14209167746E+04  0.00000000000E+00 0. -1.
         25    2    1    2    0    0  0.47663094485E+03 -0.65541485758E+03  0.48573457395E+02  0.82141944091E+03  0.12499929606E+03 0.  0.
          2    1    1    2  501    0 -0.30992452510E+02  0.12557678613E+02 -0.62893244686E+03  0.62982080794E+03  0.00000000000E+00 0. -1.
          1    1    1    2  502    0 -0.44563849234E+03  0.64285717897E+03 -0.27535627321E+02  0.78269868352E+03  0.00000000000E+00 0. -1.
         22    1    3    3    0    0  0.15996214791E+03 -0.16806699705E+03  0.61666709916E+02  0.24007746119E+03  0.00000000000E+00 0. -1.
         22    1    3    3    0    0  0.31666879694E+03 -0.48734786053E+03 -0.13093252521E+02  0.58134197972E+03  0.00000000000E+00 0. -1.
</event>
<event>
 7    1  0.4402832E-005  0.3481732E+03  0.7818608E-02  0.1101377E+00
          2   -1    0    0  502    0  0.00000000000E+00  0.00000000000E+00  0.72857156038E+03  0.72857156038E+03  0.00000000000E+00 0. -1.
          1   -1    0    0  501    0 -0.00000000000E+00 -0.00000000000E+00 -0.90627268981E+03  0.90627268981E+03  0.00000000000E+00 0. -1.
         25    2    1    2    0    0  0.28155506645E+03 -0.29579363846E+03 -0.12606900743E+03  0.44529301530E+03  0.12500137138E+03 0.  0.
          2    1    1    2  501    0 -0.33011729380E+03  0.92396494073E+02 -0.55056686204E+03  0.64856642633E+03  0.00000000000E+00 0. -1.
          1    1    1    2  502    0  0.48562227348E+02  0.20339714439E+03  0.49893474004E+03  0.54098480855E+03  0.00000000000E+00 0. -1.
         22    1    3    3    0    0  0.21858574768E+03 -0.19699032425E+03 -0.14257141860E+03  0.32697328077E+03  0.00000000000E+00 0. -1.
         22    1    3    3    0    0  0.62969318774E+02 -0.98803314209E+02  0.16502411175E+02  0.11831973453E+03  0.00000000000E+00 0. -1.
</event>
<event>
 7    1  0.4402832E-005  0.1824079E+03  0.7818608E-02  0.1294530E+00
          2   -1    0    0  502    0  0.00000000000E+00  0.00000000000E+00  0.71173029048E+02  0.71173029048E+02  0.00000000000E+00 0. -1.
          1   -1    0    0  501    0 -0.00000000000E+00 -0.00000000000E+00 -0.73445759363E+03  0.73445759363E+03  0.00000000000E+00 0. -1.
         25    2    1    2    0    0  0.17107679960E+03  0.10708539711E+03 -0.29205491578E+03  0.37637097647E+03  0.12499793783E+03 0.  0.
          2    1    1    2  501    0 -0.16388413940E+02 -0.45066716640E+02 -0.10032276614E+03  0.11119463326E+03  0.00000000000E+00 0. -1.
          1    1    1    2  502    0 -0.15468838566E+03 -0.62018680472E+02 -0.27090688266E+03  0.31806501295E+03  0.00000000000E+00 0. -1.
         22    1    3    3    0    0  0.83989530237E+02 -0.17025080610E+02 -0.10062170756E+03  0.13216967349E+03  0.00000000000E+00 0. -1.
         22    1    3    3    0    0  0.87087269366E+02  0.12411047772E+03 -0.19143320822E+03  0.24420130298E+03  0.00000000000E+00 0. -1.
</event>
<event>
 7    1  0.4402832E-005  0.5462810E+03  0.7818608E-02  0.1049715E+00
          2   -1    0    0  502    0  0.00000000000E+00  0.00000000000E+00  0.13344157504E+04  0.13344157504E+04  0.00000000000E+00 0. -1.
          1   -1    0    0  501    0 -0.00000000000E+00 -0.00000000000E+00 -0.97289858270E+03  0.97289858270E+03  0.00000000000E+00 0. -1.
         25    2    1    2    0    0  0.66647490376E+03  0.30251244490E+03  0.18922575070E+03  0.76624516671E+03  0.12499077612E+03 0.  0.
          2    1    1    2  501    0 -0.39815356769E+03 -0.32113906506E+03 -0.56148315283E+03  0.75955242971E+03  0.00000000000E+00 0. -1.
          1    1    1    2  502    0 -0.26832133607E+03  0.18626620160E+02  0.73377456982E+03  0.78151673666E+03  0.00000000000E+00 0. -1.
         22    1    3    3    0    0  0.29120074699E+02 -0.35430795908E+01 -0.11130152930E+02  0.31375348089E+02  0.00000000000E+00 0. -1.
         22    1    3    3    0    0  0.63735482906E+03  0.30605552449E+03  0.20035590363E+03  0.73486981862E+03  0.00000000000E+00 0. -1.
</event>
<event>
 7    1  0.4402832E-005  0.4172840E+03  0.7818608E-02  0.1075739E+00
          2   -1    0    0  502    0  0.00000000000E+00  0.00000000000E+00  0.34186212662E+04  0.34186212662E+04  0.00000000000E+00 0. -1.
          1   -1    0    0  501    0 -0.00000000000E+00 -0.00000000000E+00 -0.15603159031E+04  0.15603159031E+04  0.00000000000E+00 0. -1.
         25    2    1    2    0    0  0.23274569235E+03  0.48166901859E+03  0.26811271356E+04  0.27368308403E+04  0.12499892079E+03 0.  0.
          2    1    1    2  501    0 -0.11555030820E+03 -0.21614919473E+03 -0.14923684094E+04  0.15123610077E+04  0.00000000000E+00 0. -1.
          1    1    1    2  502    0 -0.11719538415E+03 -0.26551982386E+03  0.66954663691E+03  0.72974532128E+03  0.00000000000E+00 0. -1.
         22    1    3    3    0    0  0.92219698752E+02  0.25085037231E+03  0.10505860002E+04  0.10840485810E+04  0.00000000000E+00 0. -1.
         22    1    3    3    0    0  0.14052599360E+03  0.23081864628E+03  0.16305411354E+04  0.16527822593E+04  0.00000000000E+00 0. -1.
</event>
<event>
 7    1  0.4402832E-005  0.5095579E+03  0.7818608E-02  0.1089057E+00
          2   -1    0    0  502    0  0.00000000000E+00  0.00000000000E+00  0.61149041205E+03  0.61149041205E+03  0.00000000000E+00 0. -1.
          1   -1    0    0  501    0 -0.00000000000E+00 -0.00000000000E+00 -0.22970647943E+04  0.22970647943E+04  0.00000000000E+00 0. -1.
         25    2    1    2    0    0  0.36443225532E+03 -0.48208173207E+03 -0.54062477213E+03  0.82043554729E+03  0.12500271158E+03 0.  0.
          2    1    1    2  501    0 -0.16515456590E+03  0.30181220792E+02 -0.14811670580E+04  0.14906518006E+04  0.00000000000E+00 0. -1.
          1    1    1    2  502    0 -0.19927768943E+03  0.45190051127E+03  0.33621744794E+03  0.59746785846E+03  0.00000000000E+00 0. -1.
         22    1    3    3    0    0  0.30984471591E+03 -0.41769095573E+03 -0.39872605758E+03  0.65532583611E+03  0.00000000000E+00 0.  1.
         22    1    3    3    0    0  0.54587539414E+02 -0.64390776337E+02 -0.14189871454E+03  0.16510971118E+03  0.00000000000E+00 0.  1.
</event>
<event>
 7    1  0.4402832E-005  0.3169324E+03  0.7818608E-02  0.1167057E+00
          2   -1    0    0  502    0  0.00000000000E+00  0.00000000000E+00  0.37225860041E+03  0.37225860041E+03  0.00000000000E+00 0. -1.
          1   -1    0    0  501    0 -0.00000000000E+00 -0.00000000000E+00 -0.59844243713E+03  0.59844243713E+03  0.00000000000E+00 0. -1.
         25    2    1    2    0    0  0.23552257738E+03  0.12189203915E+03 -0.89807166907E+02  0.30662157042E+03  0.12499162595E+03 0.  0.
          2    1    1    2  501    0 -0.33849097791E+03 -0.11648898296E+03 -0.30242471934E+03  0.46862195440E+03  0.00000000000E+00 0. -1.
          1    1    1    2  502    0  0.10296840053E+03 -0.54030561928E+01  0.16604804953E+03  0.19545751271E+03  0.00000000000E+00 0. -1.
         22    1    3    3    0    0  0.12586156631E+03  0.59023725345E+02 -0.11170635443E+03  0.17833463951E+03  0.00000000000E+00 0. -1.
         22    1    3    3    0    0  0.10966101107E+03  0.62868313805E+02  0.21899187527E+02  0.12828693092E+03  0.00000000000E+00 0. -1.
</event>
<event>
 7    1  0.4402832E-005  0.2237172E+03  0.7818608E-02  0.1163980E+00
          2   -1    0    0  502    0  0.00000000000E+00  0.00000000000E+00  0.10077188603E+03  0.10077188603E+03  0.00000000000E+00 0. -1.
          1   -1    0    0  501    0 -0.00000000000E+00 -0.00000000000E+00 -0.17994119866E+04  0.17994119866E+04  0.00000000000E+00 0. -1.
         25    2    1    2    0    0  0.23831406634E+03  0.24527710634E+01 -0.89090672300E+03  0.93066592682E+03  0.12499867179E+03 0.  0.
          2    1    1    2  501    0 -0.55634945265E+02 -0.14075026421E+03 -0.70028082739E+03  0.71644896624E+03  0.00000000000E+00 0. -1.
          1    1    1    2  502    0 -0.18267912108E+03  0.13829749315E+03 -0.10745255021E+03  0.25306897960E+03  0.00000000000E+00 0. -1.
         22    1    3    3    0    0  0.19908032394E+03  0.28326222927E+02 -0.82843400603E+03  0.85248944429E+03  0.00000000000E+00 0.  1.
         22    1    3    3    0    0  0.39233742402E+02 -0.25873451863E+02 -0.62472716972E+02  0.78176482525E+02  0.00000000000E+00 0.  1.
</event>
<event>
 7    1  0.4402832E-005  0.9918175E+02  0.7818608E-02  0.1410624E+00
          2   -1    0    0  502    0  0.00000000000E+00  0.00000000000E+00  0.18521222753E+04  0.18521222753E+04  0.00000000000E+00 0. -1.
          1   -1    0    0  501    0 -0.00000000000E+00 -0.00000000000E+00 -0.13802415732E+02  0.13802415732E+02  0.00000000000E+00 0. -1.
         25    2    1    2    0    0  0.79958011795E+02  0.89024735735E+02  0.87205859668E+03  0.88906136940E+03  0.12500094122E+03 0.  0.
          2    1    1    2  501    0 -0.16969942135E+02 -0.28093506323E+02  0.57373855186E+03  0.57467656114E+03  0.00000000000E+00 0. -1.
          1    1    1    2  502    0 -0.62988069661E+02 -0.60931229412E+02  0.39252271107E+03  0.40218676053E+03  0.00000000000E+00 0. -1.
         22    1    3    3    0    0 -0.22321902674E+02  0.37888163044E+02  0.10988756059E+03  0.11835985895E+03  0.00000000000E+00 0.  1.
         22    1    3    3    0    0  0.10227991447E+03  0.51136572691E+02  0.76217103608E+03  0.77070151045E+03  0.00000000000E+00 0.  1.
</event>
<event>
 7    1  0.4402832E-005  0.5014429E+03  0.7818608E-02  0.1080206E+00
          2   -1    0    0  502    0  0.00000000000E+00  0.00000000000E+00  0.64846414804E+03  0.64846414804E+03  0.00000000000E+00 0. -1.
          1   -1    0    0  501    0 -0.00000000000E+00 -0.00000000000E+00 -0.10705961993E+04  0.10705961993E+04  0.00000000000E+00 0. -1.
         25    2    1    2    0    0  0.29898062341E+02 -0.53544719469E+03 -0.39490631209E+03  0.67762341573E+03  0.12499962313E+03 0.  0.
          2    1    1    2  501    0 -0.19953342666E+03  0.44549775139E+03 -0.39408828739E+03  0.62736545418E+03  0.00000000000E+00 0. -1.
          1    1    1    2  502    0  0.16963536432E+03  0.89949443298E+02  0.36686254819E+03  0.41407147745E+03  0.00000000000E+00 0. -1.
         22    1    3    3    0    0 -0.14985895377E+02 -0.43876008345E+03 -0.35203277854E+03  0.56272734522E+03  0.00000000000E+00 0.  1.
         22    1    3    3    0    0  0.44883957718E+02 -0.96687111233E+02 -0.42873533556E+02  0.11489607051E+03  0.00000000000E+00 0.  1.
</event>
<event>
 7    1  0.4402832E-005  0.1920894E+04  0.7818608E-02  0.1065026E+00
          2   -1    0    0  502    0  0.00000000000E+00  0.00000000000E+00  0.48555191157E+04  0.48555191157E+04  0.00000000000E+00 0. -1.
          1   -1    0    0  501    0 -0.00000000000E+00 -0.00000000000E+00 -0.11923823848E+04  0.11923823848E+04  0.00000000000E+00 0. -1.
         25    2    1    2    0    0  0.63413463979E+03  0.18296333317E+04  0.41953817349E+03  0.19852764045E+04  0.12500101333E+03 0.  0.
          2    1    1    2  501    0 -0.57887046375E+03 -0.18022593292E+04  0.17821094567E+04  0.25998353446E+04  0.00000000000E+00 0. -1.
          1    1    1    2  502    0 -0.55264176043E+02 -0.27374002548E+02  0.14614891007E+04  0.14627897513E+04  0.00000000000E+00 0. -1.
         22    1    3    3    0    0  0.63267752039E+03  0.18290534954E+04  0.42335680878E+03  0.19811482835E+04  0.00000000000E+00 0. -1.
         22    1    3    3    0    0  0.14571194006E+01  0.57983631158E+00 -0.38186352919E+01  0.41281209513E+01  0.00000000000E+00 0. -1.
</event>
<event>
 7    1  0.4402832E-005  0.5297217E+03  0.7818608E-02  0.1248001E+00
          2   -1    0    0  502    0  0.00000000000E+00  0.00000000000E+00  0.66973593569E+03  0.66973593569E+03  0.00000000000E+00 0. -1.
          1   -1    0    0  501    0 -0.00000000000E+00 -0.00000000000E+00 -0.68675746399E+03  0.68675746399E+03  0.00000000000E+00 0. -1.
         25    2    1    2    0    0  0.43649238489E+02 -0.54478301343E+03 -0.12912437340E+03  0.57531339022E+03  0.12497441905E+03 0.  0.
          2    1    1    2  501    0  0.72817942433E+01  0.24829530343E+02 -0.18052320060E+03  0.18236818818E+03  0.00000000000E+00 0. -1.
          1    1    1    2  502    0 -0.50931032732E+02  0.51995348309E+03  0.29262604570E+03  0.59881182127E+03  0.00000000000E+00 0. -1.
         22    1    3    3    0    0  0.36331999495E+01 -0.12275865831E+03 -0.84455851481E+02  0.14904925086E+03  0.00000000000E+00 0.  1.
         22    1    3    3    0    0  0.40016038540E+02 -0.42202435512E+03 -0.44668521924E+02  0.42626413937E+03  0.00000000000E+00 0.  1.
</event>
<event>
 7    1  0.4402832E-005  0.9422402E+02  0.7818608E-02  0.1392008E+00
          2   -1    0    0  502    0  0.00000000000E+00  0.00000000000E+00  0.15433680537E+04  0.15433680537E+04  0.00000000000E+00 0. -1.
          1   -1    0    0  501    0 -0.00000000000E+00 -0.00000000000E+00 -0.80065250910E+03  0.80065250910E+03  0.00000000000E+00 0. -1.
         25    2    1    2    0    0  0.63217670778E+02  0.13314757873E+02  0.37010445560E+03  0.39594998072E+03  0.12500129001E+03 0.  0.
          2    1    1    2  501    0 -0.93609403347E+02  0.12728410770E+02 -0.78455009832E+03  0.79021743186E+03  0.00000000000E+00 0. -1.
          1    1    1    2  502    0  0.30391732570E+02 -0.26043168643E+02  0.11571611873E+04  0.11578531502E+04  0.00000000000E+00 0. -1.
         22    1    3    3    0    0  0.55333947613E+02  0.62477133114E+02  0.28874355166E+03  0.30056293275E+03  0.00000000000E+00 0. -1.
         22    1    3    3    0    0  0.78837231645E+01 -0.49162375241E+02  0.81360903944E+02  0.95387047972E+02  0.00000000000E+00 0. -1.
</event>
<event>
 7    1  0.4402832E-005  0.6324138E+03  0.7818608E-02  0.1129791E+00
          2   -1    0    0  502    0  0.00000000000E+00  0.00000000000E+00  0.25815439427E+04  0.25815439427E+04  0.00000000000E+00 0. -1.
          1   -1    0    0  501    0 -0.00000000000E+00 -0.00000000000E+00 -0.86121936313E+03  0.86121936313E+03  0.00000000000E+00 0. -1.
         25    2    1    2    0    0  0.33420306909E+03  0.52423631641E+03 -0.46121020221E+03  0.78412680998E+03  0.12499838669E+03 0.  0.
          2    1    1    2  501    0 -0.29752543508E+03 -0.59585340096E+03  0.22874896847E+03  0.70419368822E+03  0.00000000000E+00 0. -1.
          1    1    1    2  502    0 -0.36677634017E+02  0.71617084552E+02  0.19527858133E+04  0.19544428076E+04  0.00000000000E+00 0. -1.
         22    1    3    3    0    0  0.13773376628E+03  0.16878317764E+03 -0.22997596585E+03  0.31677641373E+03  0.00000000000E+00 0.  1.
         22    1    3    3    0    0  0.19646930281E+03  0.35545313877E+03 -0.23123423635E+03  0.46735039624E+03  0.00000000000E+00 0.  1.
</event>
<event>
 7    1  0.4402832E-005  0.6277082E+03  0.7818608E-02  0.1179052E+00
          2   -1    0    0  502    0  0.00000000000E+00  0.00000000000E+00  0.13564631590E+04  0.13564631590E+04  0.00000000000E+00 0. -1.
          1   -1    0    0  501    0 -0.00000000000E+00 -0.00000000000E+00 -0.19488888174E+04  0.19488888174E+04  0.00000000000E+00 0. -1.
         25    2    1    2    0    0 -0.60392538143E+03  0.15614644123E+03 -0.15960054656E+04  0.17181285538E+04  0.12499881446E+03 0.  0.
          2    1    1    2  501    0  0.63937805285E+03 -0.12775527811E+03  0.73625221018E+02  0.65616033004E+03  0.00000000000E+00 0. -1.
          1    1    1    2  502    0 -0.35452671414E+02 -0.28391163117E+02  0.92995458620E+03  0.93106309262E+03  0.00000000000E+00 0. -1.
         22    1    3    3    0    0 -0.10482156985E+03 -0.27268589690E+01 -0.37806109701E+03  0.39233300949E+03  0.00000000000E+00 0.  1.
         22    1    3    3    0    0 -0.49910381158E+03  0.15887330019E+03 -0.12179443686E+04  0.13257955443E+04  0.00000000000E+00 0.  1.
</event>
<event>
 7    1  0.4402832E-005  0.2415290E+03  0.7818608E-02  0.1155382E+00
          2   -1    0    0  502    0  0.00000000000E+00  0.00000000000E+00  0.12169193647E+03  0.12169193647E+03  0.00000000000E+00 0. -1.
          1   -1    0    0  501    0 -0.00000000000E+00 -0.00000000000E+00 -0.42917361784E+04  0.42917361784E+04  0.00000000000E+00 0. -1.
         25    2    1    2    0    0 -0.15793098851E+03  0.21352452223E+03 -0.10599852817E+03  0.31209691794E+03  0.12503551292E+03 0.  0.
          2    1    1    2  501    0  0.15453579707E+03 -0.11307733479E+02 -0.34764967824E+04  0.34799481398E+04  0.00000000000E+00 0. -1.
          1    1    1    2  502    0  0.33951914398E+01 -0.20221678875E+03 -0.58754893136E+03  0.62138305716E+03  0.00000000000E+00 0. -1.
         22    1    3    3    0    0 -0.46903565474E+02  0.12519993929E+03  0.21312150173E+01  0.13371428992E+03  0.00000000000E+00 0. -1.
         22    1    3    3    0    0 -0.11102742304E+03  0.88324582941E+02 -0.10812974319E+03  0.17838262802E+03  0.00000000000E+00 0. -1.
</event>
<event>
 7    1  0.4402832E-005  0.1871691E+03  0.7818608E-02  0.1198703E+00
          2   -1    0    0  502    0  0.00000000000E+00  0.00000000000E+00  0.19565329902E+03  0.19565329902E+03  0.00000000000E+00 0. -1.
          1   -1    0    0  501    0 -0.00000000000E+00 -0.00000000000E+00 -0.12221188260E+04  0.12221188260E+04  0.00000000000E+00 0. -1.
         25    2    1    2    0    0 -0.24706201718E+03 -0.17083890284E+03 -0.36385478829E+02  0.32737814194E+03  0.12500789451E+03 0.  0.
          2    1    1    2  501    0  0.15901218844E+03  0.85603918023E+02 -0.94134651170E+03  0.95851247354E+03  0.00000000000E+00 0. -1.
          1    1    1    2  502    0  0.88049828739E+02  0.85234984819E+02 -0.48733536411E+02  0.13188150950E+03  0.00000000000E+00 0. -1.
         22    1    3    3    0    0 -0.19764089018E+03 -0.18612461511E+03 -0.16599486344E+02  0.27199234689E+03  0.00000000000E+00 0. -1.
         22    1    3    3    0    0 -0.49421127003E+02  0.15285712273E+02 -0.19785992485E+02  0.55385795043E+02  0.00000000000E+00 0. -1.
</event>
<event>
 7    1  0.4402832E-005  0.3784616E+03  0.7818608E-02  0.1066555E+00
          2   -1    0    0  502    0  0.00000000000E+00  0.00000000000E+00  0.84581533588E+03  0.84581533588E+03  0.00000000000E+00 0. -1.
          1   -1    0    0  501    0 -0.00000000000E+00 -0.00000000000E+00 -0.93809839632E+03  0.93809839632E+03  0.00000000000E+00 0. -1.
         25    2    1    2    0    0  0.38178965549E+03  0.53766649415E+03  0.53874772535E+03  0.86065641430E+03  0.12502700481E+03 0.  0.
          2    1    1    2  501    0 -0.19805818968E+03 -0.29238525148E+03 -0.43137240998E+03  0.55749290388E+03  0.00000000000E+00 0. -1.
          1    1    1    2  502    0 -0.18373146582E+03 -0.24528124267E+03 -0.19965837581E+03  0.36576441403E+03  0.00000000000E+00 0. -1.
         22    1    3    3    0    0  0.56894930323E+02  0.17526076319E+03  0.13874143160E+03  0.23065678627E+03  0.00000000000E+00 0. -1.
         22    1    3    3    0    0  0.32489472517E+03  0.36240573096E+03  0.40000629375E+03  0.62999962803E+03  0.00000000000E+00 0. -1.
</event>
<event>
 7    1  0.4402832E-005  0.1806521E+03  0.7818608E-02  0.1219124E+00
          2   -1    0    0  502    0  0.00000000000E+00  0.00000000000E+00  0.11427617226E+03  0.11427617226E+03  0.00000000000E+00 0. -1.
          1   -1    0    0  501    0 -0.00000000000E+00 -0.00000000000E+00 -0.11979654940E+04  0.11979654940E+04  0.00000000000E+00 0. -1.
         25    2    1    2    0    0 -0.13624535218E+02  0.18496685237E+03 -0.21019224914E+03  0.30692556007E+03  0.12499661352E+03 0.  0.
          2    1    1    2  501    0  0.10901998581E+03 -0.14871152036E+03 -0.88372048848E+03  0.90275266566E+03  0.00000000000E+00 0. -1.
          1    1    1    2  502    0 -0.95395450587E+02 -0.36255332013E+02  0.10223415919E+02  0.10256344049E+03  0.00000000000E+00 0. -1.
         22    1    3    3    0    0  0.37827299034E+02  0.15555397586E+03 -0.12481495545E+03  0.20299437692E+03  0.00000000000E+00 0.  1.
         22    1    3    3    0    0 -0.51451834252E+02  0.29412876505E+02 -0.85377293691E+02  0.10393118315E+03  0.00000000000E+00 0.  1.
</event>
<event>
 7    1  0.4402832E-005  0.6294606E+03  0.7818608E-02  0.1088030E+00
          2   -1    0    0  502    0  0.00000000000E+00  0.00000000000E+00  0.17429888784E+04  0.17429888784E+04  0.00000000000E+00 0. -1.
          1   -1    0    0  501    0 -0.00000000000E+00 -0.00000000000E+00 -0.11768909462E+04  0.11768909462E+04  0.00000000000E+00 0. -1.
         25    2    1    2    0    0  0.31226649480E+03  0.48963254957E+03  0.83475325525E+03  0.10245430645E+04  0.12500038579E+03 0.  0.
          2    1    1    2  501    0  0.11148423312E+03  0.80947501395E+02 -0.92062259464E+03  0.93087442439E+03  0.00000000000E+00 0. -1.
          1    1    1    2  502    0 -0.42375072792E+03 -0.57058005097E+03  0.65196727154E+03  0.96446233577E+03  0.00000000000E+00 0. -1.
         22    1    3    3    0    0  0.16234047142E+03  0.31575995551E+03  0.59285788337E+03  0.69104214636E+03  0.00000000000E+00 0. -1.
         22    1    3    3    0    0  0.14992602338E+03  0.17387259406E+03  0.24189537187E+03  0.33350091812E+03  0.00000000000E+00 0. -1.
</event>
<event>
 7    1  0.4402832E-005  0.4549188E+03  0.7818608E-02  0.1076789E+00
          2   -1    0    0  502    0  0.00000000000E+00  0.00000000000E+00  0.13071963580E+04  0.13071963580E+04  0.00000000000E+00 0. -1.
          1   -1    0    0  501    0 -0.00000000000E+00 -0.00000000000E+00 -0.98294994177E+03  0.98294994177E+03  0.00000000000E+00 0. -1.
         25    2    1    2    0    0 -0.65162684661E+02 -0.49039480941E+03 -0.22389813148E+01  0.51025829293E+03  0.12500107156E+03 0.  0.
          2    1    1    2  501    0 -0.19051562469E+03  0.11326602603E+03 -0.65840595015E+03  0.69471130054E+03  0.00000000000E+00 0. -1.
          1    1    1    2  502    0  0.25567830935E+03  0.37712878339E+03  0.98489134766E+03  0.10851767063E+04  0.00000000000E+00 0. -1.
         22    1    3    3    0    0 -0.82758382498E+02 -0.39498924772E+03  0.37744852163E+02  0.40532718827E+03  0.00000000000E+00 0. -1.
         22    1    3    3    0    0  0.17595697838E+02 -0.95405561695E+02 -0.39983833478E+02  0.10493110466E+03  0.00000000000E+00 0. -1.
</event>
<event>
 7    1  0.4402832E-005  0.2027429E+03  0.7818608E-02  0.1150042E+00
          2   -1    0    0  502    0  0.00000000000E+00  0.00000000000E+00  0.28806566583E+03  0.28806566583E+03  0.00000000000E+00 0. -1.
          1   -1    0    0  501    0 -0.00000000000E+00 -0.00000000000E+00 -0.14432458336E+04  0.14432458336E+04  0.00000000000E+00 0. -1.
         25    2    1    2    0    0 -0.48747883870E+02  0.19904842762E+03  0.94763319912E+02  0.25807032318E+03  0.12499428861E+03 0.  0.
          2    1    1    2  501    0  0.19641363306E+03  0.82583558894E+01 -0.11973007970E+04  0.12133324830E+04  0.00000000000E+00 0. -1.
          1    1    1    2  502    0 -0.14766574919E+03 -0.20730678351E+03 -0.52642690677E+02  0.25990869330E+03  0.00000000000E+00 0. -1.
         22    1    3    3    0    0 -0.72498102520E+02  0.20287738035E+03  0.79836233964E+02  0.22975863549E+03  0.00000000000E+00 0. -1.
         22    1    3    3    0    0  0.23750218651E+02 -0.38289527347E+01  0.14927085947E+02  0.28311687691E+02  0.00000000000E+00 0. -1.
</event>
<event>
 7    1  0.4402832E-005  0.3182593E+03  0.7818608E-02  0.1144878E+00
          2   -1    0    0  502    0  0.00000000000E+00  0.00000000000E+00  0.51582871275E+03  0.51582871275E+03  0.00000000000E+00 0. -1.
          1   -1    0    0  501    0 -0.00000000000E+00 -0.00000000000E+00 -0.26138297969E+04  0.26138297969E+04  0.00000000000E+00 0. -1.
         25    2    1    2    0    0 -0.27965130799E+03  0.15208605880E+03  0.27468711723E+03  0.43864700635E+03  0.12499264165E+03 0.  0.
          2    1    1    2  501    0  0.71334367053E+02  0.11245420403E+03 -0.23497442591E+04  0.23535149507E+04  0.00000000000E+00 0. -1.
          1    1    1    2  502    0  0.20831694094E+03 -0.26454026283E+03 -0.22943942285E+02  0.33749655262E+03  0.00000000000E+00 0. -1.
         22    1    3    3    0    0 -0.16114661144E+02 -0.15399547956E+02  0.47564783865E+02  0.52528440346E+02  0.00000000000E+00 0.  1.
         22    1    3    3    0    0 -0.26353664684E+03  0.16748560676E+03  0.22712233337E+03  0.38611856601E+03  0.00000000000E+00 0.  1.
</event>
<event>
 7    1  0.4402832E-005  0.1847544E+03  0.7818608E-02  0.1251035E+00
          2   -1    0    0  502    0  0.00000000000E+00  0.00000000000E+00  0.17390208699E+04  0.17390208699E+04  0.00000000000E+00 0. -1.
          1   -1    0    0  501    0 -0.00000000000E+00 -0.00000000000E+00 -0.62569848655E+02  0.62569848655E+02  0.00000000000E+00 0. -1.
         25    2    1    2    0    0  0.12788061454E+03  0.15112873066E+03  0.14752805671E+04  0.14937444440E+04  0.12500546947E+03 0.  0.
          2    1    1    2  501    0 -0.71050055383E+02 -0.11485567685E+02  0.25512241281E+02  0.76360350249E+02  0.00000000000E+00 0. -1.
          1    1    1    2  502    0 -0.56830559161E+02 -0.13964316298E+03  0.17565821284E+03  0.23148592432E+03  0.00000000000E+00 0. -1.
         22    1    3    3    0    0  0.15239639246E+03  0.12233967168E+03  0.12805730102E+04  0.12953991238E+04  0.00000000000E+00 0. -1.
         22    1    3    3    0    0 -0.24515777916E+02  0.28789058980E+02  0.19470755694E+03  0.19834532012E+03  0.00000000000E+00 0. -1.
</event>
<event>
 7    1  0.4402832E-005  0.1700164E+03  0.7818608E-02  0.1276621E+00
          2   -1    0    0  502    0  0.00000000000E+00  0.00000000000E+00  0.78321110984E+03  0.78321110984E+03  0.00000000000E+00 0. -1.
          1   -1    0    0  501    0 -0.00000000000E+00 -0.00000000000E+00 -0.26687234117E+03  0.26687234117E+03  0.00000000000E+00 0. -1.
         25    2    1    2    0    0 -0.51875449994E+02  0.14548657775E+03  0.68950581112E+03  0.71756491569E+03  0.12499495207E+03 0.  0.
          2    1    1    2  501    0  0.11088363803E+03 -0.13035910324E+03 -0.20231256679E+03  0.26498877648E+03  0.00000000000E+00 0. -1.
          1    1    1    2  502    0 -0.59008188035E+02 -0.15127474516E+02  0.29145524327E+02  0.67529758838E+02  0.00000000000E+00 0. -1.
         22    1    3    3    0    0  0.25118008691E+02  0.10690298806E+03  0.32607944744E+03  0.34407407525E+03  0.00000000000E+00 0.  1.
         22    1    3    3    0    0 -0.76993458685E+02  0.38583589688E+02  0.36342636368E+03  0.37349084044E+03  0.00000000000E+00 0.  1.
</event>
<event>
 7    1  0.4402832E-005  0.8008428E+02  0.7818608E-02  0.1357858E+00
          2   -1    0    0  502    0  0.00000000000E+00  0.00000000000E+00  0.40115056523E+02  0.40115056523E+02  0.00000000000E+00 0. -1.
          1   -1    0    0  501    0 -0.00000000000E+00 -0.00000000000E+00 -0.14927444918E+04  0.14927444918E+04  0.00000000000E+00 0. -1.
         25    2    1    2    0    0 -0.99646404842E+02 -0.24454762849E+02 -0.21934349436E+03  0.27251400859E+03  0.12499949974E+03 0.  0.
          2    1    1    2  501    0  0.50101978145E+02  0.62304056901E+02 -0.11655304932E+04  0.11682693758E+04  0.00000000000E+00 0. -1.
          1    1    1    2  502    0  0.49544426697E+02 -0.37849294052E+02 -0.67755447656E+02  0.92076163929E+02  0.00000000000E+00 0. -1.
         22    1    3    3    0    0 -0.50612815033E+02  0.34366208993E+02 -0.17182401607E+03  0.18239020222E+03  0.00000000000E+00 0.  1.
         22    1    3    3    0    0 -0.49033589809E+02 -0.58820971842E+02 -0.47519478286E+02  0.90123806370E+02  0.00000000000E+00 0.  1.
</event>
<event>
 7    1  0.4402832E-005  0.1285696E+03  0.7818608E-02  0.1249491E+00
          2   -1    0    0  502    0  0.00000000000E+00  0.00000000000E+00  0.90684299898E+03  0.90684299898E+03  0.00000000000E+00 0. -1.
          1   -1    0    0  501    0 -0.00000000000E+00 -0.00000000000E+00 -0.31062398752E+03  0.31062398752E+03  0.00000000000E+00 0. -1.
         25    2    1    2    0    0 -0.95513579547E+02  0.16167228737E+03  0.76266498886E+03  0.79532588057E+03  0.12499839479E+03 0.  0.
          2    1    1    2  501    0 -0.39419821677E+01 -0.12790831217E+03 -0.25464389374E+03  0.28499050539E+03  0.00000000000E+00 0. -1.
          1    1    1    2  502    0  0.99455561715E+02 -0.33763975194E+02  0.88197916339E+02  0.13715060052E+03  0.00000000000E+00 0. -1.
         22    1    3    3    0    0  0.13029270874E+01  0.49421989245E+02  0.40720935487E+03  0.41019957257E+03  0.00000000000E+00 0. -1.
         22    1    3    3    0    0 -0.96816506635E+02  0.11225029812E+03  0.35545563399E+03  0.38512630800E+03  0.00000000000E+00 0. -1.
</event>
<event>
 7    1  0.4402832E-005  0.2669145E+03  0.7818608E-02  0.1318883E+00
          2   -1    0    0  502    0  0.00000000000E+00  0.00000000000E+00  0.65624477974E+03  0.65624477974E+03  0.00000000000E+00 0. -1.
          1   -1    0    0  501    0 -0.00000000000E+00 -0.00000000000E+00 -0.16166943317E+03  0.16166943317E+03  0.00000000000E+00 0. -1.
         25    2    1    2    0    0  0.24395840494E+03 -0.14339934880E+03  0.41404868906E+03  0.51685857812E+03  0.12500958477E+03 0.  0.
          2    1    1    2  501    0 -0.23218494336E+03  0.11994530426E+03  0.61044307202E+02  0.26837125662E+03  0.00000000000E+00 0. -1.
          1    1    1    2  502    0 -0.11773461580E+02  0.23454044545E+02  0.19482350300E+02  0.32684378169E+02  0.00000000000E+00 0. -1.
         22    1    3    3    0    0  0.11855796262E+03 -0.13869054750E+03  0.22068571809E+03  0.28634462565E+03  0.00000000000E+00 0. -1.
         22    1    3    3    0    0  0.12540044232E+03 -0.47088013060E+01  0.19336297097E+03  0.23051395248E+03  0.00000000000E+00 0. -1.
</event>
<event>
 7    1  0.4402832E-005  0.1243412E+03  0.7818608E-02  0.1297763E+00
          2   -1    0    0  502    0  0.00000000000E+00  0.00000000000E+00  0.23872211659E+04  0.23872211659E+04  0.00000000000E+00 0. -1.
          1   -1    0    0  501    0 -0.00000000000E+00 -0.00000000000E+00 -0.22513020259E+03  0.22513020259E+03  0.00000000000E+00 0. -1.
         25    2    1    2    0    0 -0.98262570994E+02 -0.14175642396E+03 -0.10921052060E+03  0.23937949045E+03  0.12500074418E+03 0.  0.
          2    1    1    2  501    0  0.64460899293E+02  0.22486141743E+02 -0.25463010818E+02  0.72864250686E+02  0.00000000000E+00 0. -1.
          1    1    1    2  502    0  0.33801671702E+02  0.11927028222E+03  0.22967644948E+04  0.23001076274E+04  0.00000000000E+00 0. -1.
         22    1    3    3    0    0  0.15966975549E+02 -0.59287296519E+02 -0.46020069881E+00  0.61401462698E+02  0.00000000000E+00 0. -1.
         22    1    3    3    0    0 -0.11422954654E+03 -0.82469127440E+02 -0.10875031990E+03  0.17797802775E+03  0.00000000000E+00 0. -1.
</event>
<event>
 7    1  0.4402832E-005  0.2944190E+03  0.7818608E-02  0.1279420E+00
          2   -1    0    0  502    0  0.00000000000E+00  0.00000000000E+00  0.16143140043E+03  0.16143140043E+03  0.00000000000E+00 0. -1.
          1   -1    0    0  501    0 -0.00000000000E+00 -0.00000000000E+00 -0.77103261738E+03  0.77103261738E+03  0.00000000000E+00 0. -1.
         25    2    1    2    0    0 -0.31446989618E+03 -0.41373413086E+02 -0.17503959720E+03  0.38323203322E+03  0.12499942315E+03 0.  0.
          2    1    1    2  501    0  0.28093590302E+03  0.48338070478E+02 -0.42818062289E+03  0.51439303696E+03  0.00000000000E+00 0. -1.
          1    1    1    2  502    0  0.33533993160E+02 -0.69646573918E+01 -0.63809968614E+01  0.34838947613E+02  0.00000000000E+00 0. -1.
         22    1    3    3    0    0 -0.31437262787E+03 -0.39803365847E+02 -0.13711566116E+03  0.34527548657E+03  0.00000000000E+00 0. -1.
         22    1    3    3    0    0 -0.97268305113E-01 -0.15700472393E+01 -0.37923936040E+02  0.37956546658E+02  0.00000000000E+00 0. -1.
</event>
<event>
 7    1  0.4402832E-005  0.1125479E+04  0.7818608E-02  0.1169614E+00
          2   -1    0    0  502    0  0.00000000000E+00  0.00000000000E+00  0.22415130497E+04  0.22415130497E+04  0.00000000000E+00 0. -1.
          1   -1    0    0  501    0 -0.00000000000E+00 -0.00000000000E+00 -0.14502009441E+04  0.14502009441E+04  0.00000000000E+00 0. -1.
         25    2    1    2    0    0 -0.24805434338E+03 -0.11071160242E+04 -0.60309136937E+03  0.12909614064E+04  0.12500121874E+03 0.  0.
          2    1    1    2  501    0  0.23032046676E+03  0.10851949499E+04  0.10863342625E+03  0.11146734132E+04  0.00000000000E+00 0. -1.
          1    1    1    2  502    0  0.17733876619E+02  0.21921074278E+02  0.12857700488E+04  0.12860791741E+04  0.00000000000E+00 0. -1.
         22    1    3    3    0    0 -0.76839091385E+02 -0.62379008113E+03 -0.34317419881E+03  0.71609136429E+03  0.00000000000E+00 0. -1.
         22    1    3    3    0    0 -0.17121525200E+03 -0.48332594308E+03 -0.25991717056E+03  0.57487004212E+03  0.00000000000E+00 0. -1.
</event>
<event>
 7    1  0.4670570E-005  0.2935455E+03  0.7818608E-02  0.1194393E+00
          2   -1    0    0  502    0  0.00000000000E+00  0.00000000000E+00  0.57402739461E+03  0.57402739461E+03  0.00000000000E+00 0. -1.
          1   -1    0    0  501    0 -0.00000000000E+00 -0.00000000000E+00 -0.22059631847E+04  0.22059631847E+04  0.00000000000E+00 0. -1.
         25    2    1    2    0    0 -0.27160290665E+03  0.10041230662E+03 -0.12932244979E+04  0.13311292381E+04  0.12499870539E+03 0.  0.
          2    1    1    2  501    0  0.34977960021E+02  0.74059895272E+02 -0.85275804788E+03  0.85668232969E+03  0.00000000000E+00 0. -1.
          1    1    1    2  502    0  0.23662494663E+03 -0.17447220189E+03  0.51404675572E+03  0.59217901150E+03  0.00000000000E+00 0. -1.
         22    1    3    3    0    0 -0.25228665173E+02 -0.22539532217E+02 -0.76653236407E+02  0.83786840916E+02  0.00000000000E+00 0.  1.
         22    1    3    3    0    0 -0.24637424148E+03  0.12295183883E+03 -0.12165712615E+04  0.12473423972E+04  0.00000000000E+00 0.  1.
</event>
<event>
 7    1  0.4402832E-005  0.1413360E+03  0.7818608E-02  0.1261076E+00
          2   -1    0    0  502    0  0.00000000000E+00  0.00000000000E+00  0.63834274265E+03  0.63834274265E+03  0.00000000000E+00 0. -1.
          1   -1    0    0  501    0 -0.00000000000E+00 -0.00000000000E+00 -0.11638919932E+03  0.11638919932E+03  0.00000000000E+00 0. -1.
         25    2    1    2    0    0 -0.15140611269E+03 -0.10895880198E+03  0.11254394916E+03  0.25117069248E+03  0.12499897913E+03 0.  0.
          2    1    1    2  501    0  0.66407839296E+02  0.10328559157E+03  0.47334146314E+02  0.13159952869E+03  0.00000000000E+00 0. -1.
          1    1    1    2  502    0  0.84998273391E+02  0.56732104114E+01  0.36207544786E+03  0.37196172080E+03  0.00000000000E+00 0. -1.
         22    1    3    3    0    0 -0.71887075669E+02 -0.10513484546E+03  0.19713846775E+02  0.12887871482E+03  0.00000000000E+00 0.  1.
         22    1    3    3    0    0 -0.79519037017E+02 -0.38239565125E+01  0.92830102385E+02  0.12229197766E+03  0.00000000000E+00 0.  1.
</event>
<event>
 7    1  0.4402832E-005  0.5537922E+03  0.7818608E-02  0.1148467E+00
          2   -1    0    0  502    0  0.00000000000E+00  0.00000000000E+00  0.64311523464E+03  0.64311523464E+03  0.00000000000E+00 0. -1.
          1   -1    0    0  501    0 -0.00000000000E+00 -0.00000000000E+00 -0.15896618558E+04  0.15896618558E+04  0.00000000000E+00 0. -1.
         25    2    1    2    0    0 -0.56147382485E+03  0.50137105188E+02 -0.58867095037E+03  0.82457512427E+03  0.12499624976E+03 0.  0.
          2    1    1    2  501    0  0.54811659431E+03  0.21964091901E+02 -0.79449264529E+03  0.96547024072E+03  0.00000000000E+00 0. -1.
          1    1    1    2  502    0  0.13357230538E+02 -0.72101197089E+02  0.43661697454E+03  0.44273172541E+03  0.00000000000E+00 0. -1.
         22    1    3    3    0    0 -0.14438152886E+03 -0.24535038872E+02 -0.97731968044E+02  0.17606683841E+03  0.00000000000E+00 0. -1.
         22    1    3    3    0    0 -0.41709229599E+03  0.74672144060E+02 -0.49093898232E+03  0.64850828586E+03  0.00000000000E+00 0. -1.
</event>
<event>
 7    1  0.4402832E-005  0.2278789E+03  0.7818608E-02  0.1134543E+00
          2   -1    0    0  502    0  0.00000000000E+00  0.00000000000E+00  0.18962541861E+03  0.18962541861E+03  0.00000000000E+00 0. -1.
          1   -1    0    0  501    0 -0.00000000000E+00 -0.00000000000E+00 -0.22053126675E+04  0.22053126675E+04  0.00000000000E+00 0. -1.
         25    2    1    2    0    0  0.39211481185E+03 -0.16688365797E+03 -0.13937018467E+04  0.14627484687E+04  0.12499625769E+03 0.  0.
          2    1    1    2  501    0 -0.19858985924E+03  0.70382392501E+02 -0.67701889011E+03  0.70904597237E+03  0.00000000000E+00 0. -1.
          1    1    1    2  502    0 -0.19352495261E+03  0.96501265470E+02  0.55033487873E+02  0.22314364500E+03  0.00000000000E+00 0. -1.
         22    1    3    3    0    0  0.29604030604E+03 -0.17158943106E+03 -0.11754310204E+04  0.12242225612E+04  0.00000000000E+00 0. -1.
         22    1    3    3    0    0  0.96074505806E+02  0.47057730843E+01 -0.21827082627E+03  0.23852590754E+03  0.00000000000E+00 0. -1.
</event>
<event>
 7    1  0.4402832E-005  0.4126075E+03  0.7818608E-02  0.1118341E+00
          2   -1    0    0  502    0  0.00000000000E+00  0.00000000000E+00  0.15062557155E+04  0.15062557155E+04  0.00000000000E+00 0. -1.
          1   -1    0    0  501    0 -0.00000000000E+00 -0.00000000000E+00 -0.53565998355E+03  0.53565998355E+03  0.00000000000E+00 0. -1.
         25    2    1    2    0    0 -0.42435689292E+03  0.25957318785E+03 -0.32290582095E+03  0.60609415340E+03  0.12499976464E+03 0.  0.
          2    1    1    2  501    0  0.41269385329E+02 -0.13604005546E+03  0.72767974458E+03  0.74143635568E+03  0.00000000000E+00 0. -1.
          1    1    1    2  502    0  0.38308750759E+03 -0.12353313239E+03  0.56582180830E+03  0.69438518995E+03  0.00000000000E+00 0. -1.
         22    1    3    3    0    0 -0.12060398226E+03  0.10909604799E+03 -0.47743269501E+02  0.16948949232E+03  0.00000000000E+00 0. -1.
         22    1    3    3    0    0 -0.30375291066E+03  0.15047713986E+03 -0.27516255145E+03  0.43660466108E+03  0.00000000000E+00 0. -1.
</event>
<event>
 7    1  0.4402832E-005  0.3263687E+03  0.7818608E-02  0.1147742E+00
          2   -1    0    0  502    0  0.00000000000E+00  0.00000000000E+00  0.16136172543E+04  0.16136172543E+04  0.00000000000E+00 0. -1.
          1   -1    0    0  501    0 -0.00000000000E+00 -0.00000000000E+00 -0.43488162321E+04  0.43488162321E+04  0.00000000000E+00 0. -1.
         25    2    1    2    0    0 -0.40443316739E+03 -0.16499038813E+03 -0.27831927627E+04  0.28200311173E+04  0.12500213314E+03 0.  0.
          2    1    1    2  501    0  0.87430879787E+02  0.90035849286E+02 -0.15279753390E+04  0.15331207551E+04  0.00000000000E+00 0. -1.
          1    1    1    2  502    0  0.31700228760E+03  0.74954538846E+02  0.15759691240E+04  0.16092816139E+04  0.00000000000E+00 0. -1.
         22    1    3    3    0    0  0.66077231746E+01 -0.37916874641E+01 -0.14742667955E+02  0.16594732833E+02  0.00000000000E+00 0. -1.
         22    1    3    3    0    0 -0.41104089056E+03 -0.16119870067E+03 -0.27684500948E+04  0.28034363845E+04  0.00000000000E+00 0. -1.
</event>
<event>
 7    1  0.4402832E-005  0.5185427E+03  0.7818608E-02  0.1118057E+00
          2   -1    0    0  502    0  0.00000000000E+00  0.00000000000E+00  0.67499623751E+03  0.67499623751E+03  0.00000000000E+00 0. -1.
          1   -1    0    0  501    0 -0.00000000000E+00 -0.00000000000E+00 -0.19736845945E+04  0.19736845945E+04  0.00000000000E+00 0. -1.
         25    2    1    2    0    0 -0.32869449876E+03 -0.43747194738E+03  0.76297575516E+02  0.56645283363E+03  0.12500285773E+03 0.  0.
          2    1    1    2  501    0 -0.46247611597E+02  0.10367598021E+03 -0.15473159068E+04  0.15514748035E+04  0.00000000000E+00 0. -1.
          1    1    1    2  502    0  0.37494211036E+03  0.33379596717E+03  0.17232997430E+03  0.53075319486E+03  0.00000000000E+00 0. -1.
         22    1    3    3    0    0 -0.33449054811E+03 -0.42939003156E+03  0.60315759182E+02  0.54762917818E+03  0.00000000000E+00 0. -1.
         22    1    3    3    0    0  0.57960493541E+01 -0.80819158145E+01  0.15981816334E+02  0.18823655455E+02  0.00000000000E+00 0. -1.
</event>
<event>
 7    1  0.4402832E-005  0.1799967E+03  0.7818608E-02  0.1177767E+00
          2   -1    0    0  502    0  0.00000000000E+00  0.00000000000E+00  0.26181851656E+03  0.26181851656E+03  0.00000000000E+00 0. -1.
          1   -1    0    0  501    0 -0.00000000000E+00 -0.00000000000E+00 -0.48249551363E+03  0.48249551363E+03  0.00000000000E+00 0. -1.
         25    2    1    2    0    0  0.50958173814E+02 -0.17901450260E+03 -0.74568020943E+02  0.23627818692E+03  0.12499625695E+03 0.  0.
          2    1    1    2  501    0 -0.16002535043E+03  0.14769250175E+02 -0.24065329490E+03  0.28937907989E+03  0.00000000000E+00 0. -1.
          1    1    1    2  502    0  0.10906717662E+03  0.16424525242E+03  0.94544318778E+02  0.21865676338E+03  0.00000000000E+00 0. -1.
         22    1    3    3    0    0  0.56738274342E+02 -0.92065972456E+02  0.17453535807E+02  0.10954451594E+03  0.00000000000E+00 0. -1.
         22    1    3    3    0    0 -0.57801005277E+01 -0.86948530140E+02 -0.92021556750E+02  0.12673367099E+03  0.00000000000E+00 0. -1.
</event>
<event>
 7    1  0.4402832E-005  0.1335728E+03  0.7818608E-02  0.1307025E+00
          2   -1    0    0  502    0  0.00000000000E+00  0.00000000000E+00  0.19372406699E+04  0.19372406699E+04  0.00000000000E+00 0. -1.
          1   -1    0    0  501    0 -0.00000000000E+00 -0.00000000000E+00 -0.13451787630E+03  0.13451787630E+03  0.00000000000E+00 0. -1.
         25    2    1    2    0    0 -0.14951006542E+03 -0.16846870488E+02  0.15018039002E+04  0.15144889909E+04  0.12499948903E+03 0.  0.
          2    1    1    2  501    0  0.12808209228E+03 -0.37447594521E+02 -0.90683603332E+02  0.16134082128E+03  0.00000000000E+00 0. -1.
          1    1    1    2  502    0  0.21427973135E+02  0.54294465009E+02  0.39160249673E+03  0.39592873401E+03  0.00000000000E+00 0. -1.
         22    1    3    3    0    0 -0.30978297139E+02  0.37108841407E+02  0.18323311146E+03  0.18950222726E+03  0.00000000000E+00 0. -1.
         22    1    3    3    0    0 -0.11853176828E+03 -0.53955711895E+02  0.13185707887E+04  0.13249867636E+04  0.00000000000E+00 0. -1.
</event>
<event>
 7    1  0.4402832E-005  0.1004561E+03  0.7818608E-02  0.1336548E+00
          2   -1    0    0  502    0  0.00000000000E+00  0.00000000000E+00  0.13411571679E+03  0.13411571679E+03  0.00000000000E+00 0. -1.
          1   -1    0    0  501    0 -0.00000000000E+00 -0.00000000000E+00 -0.75206842903E+03  0.75206842903E+03  0.00000000000E+00 0. -1.
         25    2    1    2    0    0 -0.77075757472E+02  0.74679586029E+02 -0.35167370120E+03  0.38835277894E+03  0.12500310330E+03 0.  0.
          2    1    1    2  501    0  0.54687013039E+02  0.23847536461E+02 -0.35705424747E+03  0.36200429559E+03  0.00000000000E+00 0. -1.
          1    1    1    2  502    0  0.22388744434E+02 -0.98527122490E+02  0.90775236437E+02  0.13582707128E+03  0.00000000000E+00 0. -1.
         22    1    3    3    0    0 -0.44687307316E+02  0.16494574423E+02 -0.30080862249E+03  0.30455681537E+03  0.00000000000E+00 0.  1.
         22    1    3    3    0    0 -0.32388450156E+02  0.58185011605E+02 -0.50865078709E+02  0.83795963573E+02  0.00000000000E+00 0.  1.
</event>
<event>
 7    1  0.4402832E-005  0.2422573E+03  0.7818608E-02  0.1160499E+00
          2   -1    0    0  502    0  0.00000000000E+00  0.00000000000E+00  0.66752675042E+02  0.66752675042E+02  0.00000000000E+00 0. -1.
          1   -1    0    0  501    0 -0.00000000000E+00 -0.00000000000E+00 -0.19638706172E+04  0.19638706172E+04  0.00000000000E+00 0. -1.
         25    2    1    2    0    0  0.27452256412E+03 -0.48160794410E+02 -0.46398016296E+03  0.55550402848E+03  0.12500013483E+03 0.  0.
          2    1    1    2  501    0 -0.99170901420E+02  0.10649507046E+03 -0.40144228185E+03  0.42700348170E+03  0.00000000000E+00 0. -1.
          1    1    1    2  502    0 -0.17535166270E+03 -0.58334276051E+02 -0.10316954973E+04  0.10481157820E+04  0.00000000000E+00 0. -1.
         22    1    3    3    0    0  0.40333456426E+01 -0.34385874147E+02 -0.52994444368E+02  0.63301400868E+02  0.00000000000E+00 0. -1.
         22    1    3    3    0    0  0.27048921848E+03 -0.13774920263E+02 -0.41098571859E+03  0.49220262761E+03  0.00000000000E+00 0. -1.
</event>
<event>
 7    1  0.4402832E-005  0.5520341E+03  0.7818608E-02  0.1138142E+00
          2   -1    0    0  502    0  0.00000000000E+00  0.00000000000E+00  0.15141158373E+04  0.15141158373E+04  0.00000000000E+00 0. -1.
          1   -1    0    0  501    0 -0.00000000000E+00 -0.00000000000E+00 -0.55621118160E+03  0.55621118160E+03  0.00000000000E+00 0. -1.
         25    2    1    2    0    0 -0.56474007739E+03 -0.52229430096E+01  0.14023763810E+03  0.59518855575E+03  0.12499675040E+03 0.  0.
          2    1    1    2  501    0  0.20259910550E+02  0.80752748303E+02 -0.25585780983E+03  0.26906261201E+03  0.00000000000E+00 0. -1.
          1    1    1    2  502    0  0.54448016684E+03 -0.75529805294E+02  0.10735248274E+04  0.12060758511E+04  0.00000000000E+00 0. -1.
         22    1    3    3    0    0 -0.46797727293E+02  0.12618456256E+02 -0.20439314280E+02  0.52602455135E+02  0.00000000000E+00 0. -1.
         22    1    3    3    0    0 -0.51794235010E+03 -0.17841399265E+02  0.16067695238E+03  0.54258610061E+03  0.00000000000E+00 0. -1.
</event>
<event>
 7    1  0.4402832E-005  0.7194971E+03  0.7818608E-02  0.1014569E+00
          2   -1    0    0  502    0  0.00000000000E+00  0.00000000000E+00  0.18750122873E+04  0.18750122873E+04  0.00000000000E+00 0. -1.
          1   -1    0    0  501    0 -0.00000000000E+00 -0.00000000000E+00 -0.97534759257E+03  0.97534759257E+03  0.00000000000E+00 0. -1.
         25    2    1    2    0    0  0.21056068656E+03  0.72852565542E+03 -0.44874645409E+03  0.88999110032E+03  0.12500138110E+03 0.  0.
          2    1    1    2  501    0  0.12974703539E+03 -0.68339101285E+03  0.14711519092E+03  0.71098554769E+03  0.00000000000E+00 0. -1.
          1    1    1    2  502    0 -0.34030772195E+03 -0.45134642569E+02  0.12012959579E+04  0.12493832318E+04  0.00000000000E+00 0. -1.
         22    1    3    3    0    0  0.95457643402E+02  0.53214682286E+03 -0.30415696388E+03  0.62032560921E+03  0.00000000000E+00 0. -1.
         22    1    3    3    0    0  0.11510304316E+03  0.19637883256E+03 -0.14458949021E+03  0.26966549112E+03  0.00000000000E+00 0. -1.
</event>
<event>
 7    1  0.4402832E-005  0.3642747E+03  0.7818608E-02  0.1262069E+00
          2   -1    0    0  502    0  0.00000000000E+00  0.00000000000E+00  0.16429315778E+04  0.16429315778E+04  0.00000000000E+00 0. -1.
          1   -1    0    0  501    0 -0.00000000000E+00 -0.00000000000E+00 -0.56516902338E+03  0.56516902338E+03  0.00000000000E+00 0. -1.
         25    2    1    2    0    0  0.37360362695E+03 -0.13272107019E+02 -0.26338950131E+03  0.47408285217E+03  0.12499880970E+03 0.  0.
          2    1    1    2  501    0 -0.34878421604E+03  0.34611739374E+02 -0.39735282051E+02  0.35274253288E+03  0.00000000000E+00 0. -1.
          1    1    1    2  502    0 -0.24819410912E+02 -0.21339632355E+02  0.13808873378E+04  0.13812752161E+04  0.00000000000E+00 0. -1.
         22    1    3    3    0    0  0.15531229884E+03 -0.37784951167E+01 -0.37520274979E+02  0.15982477352E+03  0.00000000000E+00 0. -1.
         22    1    3    3    0    0  0.21829132811E+03 -0.94936119020E+01 -0.22586922633E+03  0.31425807865E+03  0.00000000000E+00 0. -1.
</event>
<event>
 7    1  0.4402832E-005  0.3391232E+03  0.7818608E-02  0.1200949E+00
          2   -1    0    0  502    0  0.00000000000E+00  0.00000000000E+00  0.52966923103E+03  0.52966923103E+03  0.00000000000E+00 0. -1.
          1   -1    0    0  501    0 -0.00000000000E+00 -0.00000000000E+00 -0.19443838872E+04  0.19443838872E+04  0.00000000000E+00 0. -1.
         25    2    1    2    0    0  0.29890033477E+03  0.36032025859E+02 -0.64148029087E+02  0.33223435135E+03  0.12499991026E+03 0.  0.
          2    1    1    2  501    0  0.56152880879E+02 -0.34693301602E+02 -0.16657458034E+04  0.16670530444E+04  0.00000000000E+00 0. -1.
          1    1    1    2  502    0 -0.35505321565E+03 -0.13387242571E+01  0.31517917628E+03  0.47476572253E+03  0.00000000000E+00 0. -1.
         22    1    3    3    0    0  0.11738989428E+03  0.46823647697E+02  0.26390208606E+02  0.12910958281E+03  0.00000000000E+00 0.  1.
         22    1    3    3    0    0  0.18151044049E+03 -0.10791621838E+02 -0.90538237693E+02  0.20312476854E+03  0.00000000000E+00 0.  1.
</event>
<event>
 7    1  0.4402832E-005  0.7555246E+03  0.7818608E-02  0.1126905E+00
          2   -1    0    0  502    0  0.00000000000E+00  0.00000000000E+00  0.41675596036E+04  0.41675596036E+04  0.00000000000E+00 0. -1.
          1   -1    0    0  501    0 -0.00000000000E+00 -0.00000000000E+00 -0.12737860862E+04  0.12737860862E+04  0.00000000000E+00 0. -1.
         25    2    1    2    0    0 -0.15112089025E+03  0.69055669470E+03  0.84429943324E+03  0.11082295872E+04  0.12500085124E+03 0.  0.
          2    1    1    2  501    0  0.92507290513E+01  0.69172963154E+02 -0.10939001062E+04  0.10961240428E+04  0.00000000000E+00 0. -1.
          1    1    1    2  502    0  0.14187016120E+03 -0.75972965785E+03  0.31433741903E+04  0.32369920599E+04  0.00000000000E+00 0. -1.
         22    1    3    3    0    0 -0.40996668122E+02  0.12731340905E+03  0.93438879693E+02  0.16315714866E+03  0.00000000000E+00 0. -1.
         22    1    3    3    0    0 -0.11012422213E+03  0.56324328565E+03  0.75086055354E+03  0.94507243849E+03  0.00000000000E+00 0. -1.
</event>
<event>
 7    1  0.4402832E-005  0.7307237E+03  0.7818608E-02  0.1225586E+00
          2   -1    0    0  502    0  0.00000000000E+00  0.00000000000E+00  0.12369612868E+04  0.12369612868E+04  0.00000000000E+00 0. -1.
          1   -1    0    0  501    0 -0.00000000000E+00 -0.00000000000E+00 -0.21738886466E+04  0.21738886466E+04  0.00000000000E+00 0. -1.
         25    2    1    2    0    0 -0.58119389916E+03 -0.45067160917E+03 -0.22339731353E+03  0.77873179468E+03  0.12500240251E+03 0.  0.
          2    1    1    2  501    0 -0.89316911470E+01  0.21824293806E+02 -0.15340355157E+04  0.15342167508E+04  0.00000000000E+00 0. -1.
          1    1    1    2  502    0  0.59012559031E+03  0.42884731536E+03  0.82050546944E+03  0.10979013879E+04  0.00000000000E+00 0. -1.
         22    1    3    3    0    0 -0.18435361031E+03 -0.14232090068E+03 -0.13272330246E+03  0.26806149933E+03  0.00000000000E+00 0. -1.
         22    1    3    3    0    0 -0.39684028885E+03 -0.30835070849E+03 -0.90674011069E+02  0.51067029536E+03  0.00000000000E+00 0. -1.
</event>
<event>
 7    1  0.4402832E-005  0.3923553E+03  0.7818608E-02  0.1234007E+00
          2   -1    0    0  502    0  0.00000000000E+00  0.00000000000E+00  0.31778496447E+04  0.31778496447E+04  0.00000000000E+00 0. -1.
          1   -1    0    0  501    0 -0.00000000000E+00 -0.00000000000E+00 -0.36209293900E+03  0.36209293900E+03  0.00000000000E+00 0. -1.
         25    2    1    2    0    0  0.33428107871E+03  0.16312582881E+03  0.28260053389E+04  0.28531184776E+04  0.12499998382E+03 0.  0.
          2    1    1    2  501    0 -0.36737113141E+03 -0.14019387338E+03 -0.23527476167E+03  0.45822492709E+03  0.00000000000E+00 0. -1.
          1    1    1    2  502    0  0.33090052702E+02 -0.22931955436E+02  0.22502612845E+03  0.22859917903E+03  0.00000000000E+00 0. -1.
         22    1    3    3    0    0  0.30310234813E+03  0.99001555535E+02  0.21813114153E+04  0.22044935546E+04  0.00000000000E+00 0. -1.
         22    1    3    3    0    0  0.31178730575E+02  0.64124273279E+02  0.64469392362E+03  0.64862492306E+03  0.00000000000E+00 0. -1.
</event>
<event>
 7    1  0.5999984E-005  0.2297913E+03  0.7818608E-02  0.1142828E+00
          2   -1    0    0  502    0  0.00000000000E+00  0.00000000000E+00  0.13919332355E+04  0.13919332355E+04  0.00000000000E+00 0. -1.
          1   -1    0    0  501    0 -0.00000000000E+00 -0.00000000000E+00 -0.73173595740E+03  0.73173595740E+03  0.00000000000E+00 0. -1.
         25    2    1    2    0    0  0.30633829980E+03 -0.59741007001E+02 -0.17605925855E+03  0.37951943100E+03  0.12500397649E+03 0.  0.
          2    1    1    2  501    0 -0.15330723367E+03 -0.11057685965E+03 -0.42349159235E+03  0.46376230827E+03  0.00000000000E+00 0. -1.
          1    1    1    2  502    0 -0.15303106613E+03  0.17031786665E+03  0.12597481290E+04  0.12803874537E+04  0.00000000000E+00 0. -1.
         22    1    3    3    0    0  0.38832237217E+02  0.82006351957E+01 -0.76372113585E+02  0.86069116402E+02  0.00000000000E+00 0. -1.
         22    1    3    3    0    0  0.26750606258E+03 -0.67941642197E+02 -0.99687144970E+02  0.29345031459E+03  0.00000000000E+00 0. -1.
</event>
<event>
 7    1  0.4402832E-005  0.2246808E+03  0.7818608E-02  0.1181713E+00
          2   -1    0    0  502    0  0.00000000000E+00  0.00000000000E+00  0.23885952079E+04  0.23885952079E+04  0.00000000000E+00 0. -1.
          1   -1    0    0  501    0 -0.00000000000E+00 -0.00000000000E+00 -0.43679918626E+02  0.43679918626E+02  0.00000000000E+00 0. -1.
         25    2    1    2    0    0  0.33371637886E+02 -0.22184681261E+03  0.63298463405E+03  0.68309904423E+03  0.12500033119E+03 0.  0.
          2    1    1    2  501    0 -0.12308323446E+03  0.42641326921E+01  0.54366708085E+03  0.55744197925E+03  0.00000000000E+00 0. -1.
          1    1    1    2  502    0  0.89711596578E+02  0.21758267992E+03  0.11682635744E+04  0.11917341031E+04  0.00000000000E+00 0. -1.
         22    1    3    3    0    0  0.10320485091E+02 -0.18525575449E+03  0.34355641733E+03  0.39045770434E+03  0.00000000000E+00 0.  1.
         22    1    3    3    0    0  0.23051152795E+02 -0.36591058116E+02  0.28942821672E+03  0.29264133989E+03  0.00000000000E+00 0.  1.
</event>
<event>
 7    1  0.4402832E-005  0.2387244E+03  0.7818608E-02  0.1214086E+00
          2   -1    0    0  502    0  0.00000000000E+00  0.00000000000E+00  0.10163278583E+04  0.10163278583E+04  0.00000000000E+00 0. -1.
          1   -1    0    0  501    0 -0.00000000000E+00 -0.00000000000E+00 -0.12318608682E+04  0.12318608682E+04  0.00000000000E+00 0. -1.
         25    2    1    2    0    0  0.47813865549E+02  0.29049315776E+03  0.40269348982E+03  0.51425815262E+03  0.12500784114E+03 0.  0.
          2    1    1    2  501    0  0.11008982727E+02 -0.80698565245E+02 -0.11533121893E+04  0.11561844413E+04  0.00000000000E+00 0. -1.
          1    1    1    2  502    0 -0.58822848275E+02 -0.20979459251E+03  0.53508568964E+03  0.57774613264E+03  0.00000000000E+00 0. -1.
         22    1    3    3    0    0  0.68282682491E+02  0.16027731035E+03  0.15280166452E+03  0.23173193483E+03  0.00000000000E+00 0.  1.
         22    1    3    3    0    0 -0.20468816942E+02  0.13021584741E+03  0.24989182530E+03  0.28252621778E+03  0.00000000000E+00 0.  1.
</event>
<event>
 7    1  0.6933659E-005  0.4709725E+02  0.7818608E-02  0.1464619E+00
          2   -1    0    0  502    0  0.00000000000E+00  0.00000000000E+00  0.29292411690E+04  0.29292411690E+04  0.00000000000E+00 0. -1.
          1   -1    0    0  501    0 -0.00000000000E+00 -0.00000000000E+00 -0.39103127982E+03  0.39103127982E+03  0.00000000000E+00 0. -1.
         25    2    1    2    0    0 -0.22613080192E+02 -0.22493430636E+02  0.93760655513E+02  0.15948340141E+03  0.12500635578E+03 0.  0.
          2    1    1    2  501    0  0.40984930946E+02 -0.21104354253E+02 -0.35648596746E+03  0.35945431327E+03  0.00000000000E+00 0. -1.
          1    1    1    2  502    0 -0.18371850754E+02  0.43597784889E+02  0.28009352011E+04  0.28013347342E+04  0.00000000000E+00 0. -1.
         22    1    3    3    0    0  0.18310402970E+02  0.22470091159E+02  0.94329326011E+02  0.98682306415E+02  0.00000000000E+00 0. -1.
         22    1    3    3    0    0 -0.40923483161E+02 -0.44963521795E+02 -0.56867049771E+00  0.60801094993E+02  0.00000000000E+00 0. -1.
</event>
<event>
 7    1  0.4402832E-005  0.7813717E+02  0.7818608E-02  0.1413878E+00
          2   -1    0    0  502    0  0.00000000000E+00  0.00000000000E+00  0.80574045127E+03  0.80574045127E+03  0.00000000000E+00 0. -1.
          1   -1    0    0  501    0 -0.00000000000E+00 -0.00000000000E+00 -0.43554176799E+03  0.43554176799E+03  0.00000000000E+00 0. -1.
         25    2    1    2    0    0 -0.84115027406E+02  0.24136908436E+02  0.45657779679E+03  0.48139822007E+03  0.12499213407E+03 0.  0.
          2    1    1    2  501    0  0.56527423002E+02 -0.53951104346E+02 -0.41827508972E+03  0.42551160019E+03  0.00000000000E+00 0. -1.
          1    1    1    2  502    0  0.27587604404E+02  0.29814195910E+02  0.33189597620E+03  0.33437239900E+03  0.00000000000E+00 0. -1.
         22    1    3    3    0    0 -0.24698081100E+02 -0.77482509450E+01  0.37351144878E+03  0.37440730892E+03  0.00000000000E+00 0. -1.
         22    1    3    3    0    0 -0.59416946306E+02  0.31885159381E+02  0.83066348016E+02  0.10699091116E+03  0.00000000000E+00 0. -1.
</event>
<event>
 7    1  0.4402832E-005  0.2330047E+03  0.7818608E-02  0.1213532E+00
          2   -1    0    0  502    0  0.00000000000E+00  0.00000000000E+00  0.50478773603E+02  0.50478773603E+02  0.00000000000E+00 0. -1.
          1   -1    0    0  501    0 -0.00000000000E+00 -0.00000000000E+00 -0.30420049164E+04  0.30420049164E+04  0.00000000000E+00 0. -1.
         25    2    1    2    0    0  0.23755126462E+03  0.94858392099E+02 -0.13036070650E+04  0.13343332351E+04  0.12500033784E+03 0.  0.
          2    1    1    2  501    0 -0.17170090114E+03 -0.14690911445E+03 -0.16511011916E+04  0.16664929140E+04  0.00000000000E+00 0. -1.
          1    1    1    2  502    0 -0.65850363485E+02  0.52050722348E+02 -0.36817886165E+02  0.91657540932E+02  0.00000000000E+00 0. -1.
         22    1    3    3    0    0  0.21509669253E+03  0.10522023948E+03 -0.12712641116E+04  0.12936190812E+04  0.00000000000E+00 0. -1.
         22    1    3    3    0    0  0.22454572093E+02 -0.10361847379E+02 -0.32342953472E+02  0.40714153906E+02  0.00000000000E+00 0. -1.
</event>
<event>
 7    1  0.4402832E-005  0.8006059E+03  0.7818608E-02  0.1124876E+00
          2   -1    0    0  502    0  0.00000000000E+00  0.00000000000E+00  0.37223678433E+04  0.37223678433E+04  0.00000000000E+00 0. -1.
          1   -1    0    0  501    0 -0.00000000000E+00 -0.00000000000E+00 -0.19401679424E+04  0.19401679424E+04  0.00000000000E+00 0. -1.
         25    2    1    2    0    0 -0.73620964321E+03 -0.33063261848E+03 -0.95228069651E+03  0.12545064497E+04  0.12500136071E+03 0.  0.
          2    1    1    2  501    0  0.69500189951E+03  0.38413649733E+03 -0.64796279229E+03  0.10249118348E+04  0.00000000000E+00 0. -1.
          1    1    1    2  502    0  0.41207743703E+02 -0.53503878850E+02  0.33824433896E+04  0.33831175012E+04  0.00000000000E+00 0. -1.
         22    1    3    3    0    0 -0.72422563664E+03 -0.30150717885E+03 -0.90477032975E+03  0.11975051988E+04  0.00000000000E+00 0.  1.
         22    1    3    3    0    0 -0.11984006574E+02 -0.29125439629E+02 -0.47510366757E+02  0.57001250833E+02  0.00000000000E+00 0.  1.
</event>
<event>
 7    1  0.4402832E-005  0.9981051E+03  0.7818608E-02  0.1132024E+00
          2   -1    0    0  502    0  0.00000000000E+00  0.00000000000E+00  0.16486362296E+04  0.16486362296E+04  0.00000000000E+00 0. -1.
          1   -1    0    0  501    0 -0.00000000000E+00 -0.00000000000E+00 -0.23314335558E+04  0.23314335558E+04  0.00000000000E+00 0. -1.
         25    2    1    2    0    0  0.10009291756E+04 -0.18721057972E+03  0.12552812786E+03  0.10335810488E+04  0.12500183088E+03 0.  0.
          2    1    1    2  501    0 -0.96804046916E+03  0.22434575827E+03 -0.17452159940E+04  0.20082858947E+04  0.00000000000E+00 0. -1.
          1    1    1    2  502    0 -0.32888706473E+02 -0.37135178554E+02  0.93689054005E+03  0.93820284189E+03  0.00000000000E+00 0. -1.
         22    1    3    3    0    0  0.15467177316E+02 -0.37662308777E-01  0.19534852949E+02  0.24916770905E+02  0.00000000000E+00 0.  1.
         22    1    3    3    0    0  0.98546199832E+03 -0.18717291741E+03  0.10599327491E+03  0.10086642779E+04  0.00000000000E+00 0.  1.
</event>
<event>
 7    1  0.4402832E-005  0.1890698E+03  0.7818608E-02  0.1364143E+00
          2   -1    0    0  502    0  0.00000000000E+00  0.00000000000E+00  0.56082925532E+03  0.56082925532E+03  0.00000000000E+00 0. -1.
          1   -1    0    0  501    0 -0.00000000000E+00 -0.00000000000E+00 -0.80999994126E+03  0.80999994126E+03  0.00000000000E+00 0. -1.
         25    2    1    2    0    0 -0.17888286521E+03  0.46623779859E+02 -0.66138999230E+03  0.69802064991E+03  0.12499299770E+03 0.  0.
          2    1    1    2  501    0  0.19925173445E+03 -0.61208376352E+02 -0.46369044073E+02  0.21353643077E+03  0.00000000000E+00 0. -1.
          1    1    1    2  502    0 -0.20368869244E+02  0.14584596493E+02  0.45858835044E+03  0.45927211590E+03  0.00000000000E+00 0. -1.
         22    1    3    3    0    0 -0.11705637573E+03  0.32495914212E+02 -0.21333492115E+03  0.24549942591E+03  0.00000000000E+00 0. -1.
         22    1    3    3    0    0 -0.61826489475E+02  0.14127865648E+02 -0.44805507115E+03  0.45252122400E+03  0.00000000000E+00 0. -1.
</event>
<event>
 7    1  0.4402832E-005  0.3016379E+03  0.7818608E-02  0.1085013E+00
          2   -1    0    0  502    0  0.00000000000E+00  0.00000000000E+00  0.25546837788E+04  0.25546837788E+04  0.00000000000E+00 0. -1.
          1   -1    0    0  501    0 -0.00000000000E+00 -0.00000000000E+00 -0.12436675718E+04  0.12436675718E+04  0.00000000000E+00 0. -1.
         25    2    1    2    0    0  0.14653343621E+03  0.31651090577E+03  0.11435062920E+04  0.12020327155E+04  0.12499923193E+03 0.  0.
          2    1    1    2  501    0  0.17169989466E+03 -0.24512507529E+03 -0.11761573693E+04  0.12136364010E+04  0.00000000000E+00 0. -1.
          1    1    1    2  502    0 -0.31823333087E+03 -0.71385830481E+02  0.13436672843E+04  0.13826822342E+04  0.00000000000E+00 0. -1.
         22    1    3    3    0    0 -0.13603528560E+01  0.13950908565E+03  0.40643271225E+03  0.42971174655E+03  0.00000000000E+00 0. -1.
         22    1    3    3    0    0  0.14789378907E+03  0.17700182012E+03  0.73707357975E+03  0.77232096899E+03  0.00000000000E+00 0. -1.
</event>
<event>
 7    1  0.4402832E-005  0.2285734E+03  0.7818608E-02  0.1235918E+00
          2   -1    0    0  502    0  0.00000000000E+00  0.00000000000E+00  0.12047169435E+04  0.12047169435E+04  0.00000000000E+00 0. -1.
          1   -1    0    0  501    0 -0.00000000000E+00 -0.00000000000E+00 -0.36336088244E+03  0.36336088244E+03  0.00000000000E+00 0. -1.
         25    2    1    2    0    0  0.25549872856E+03 -0.87845361219E+02  0.12784174303E+03  0.32398368513E+03  0.12500203674E+03 0.  0.
          2    1    1    2  501    0 -0.21869018149E+03  0.30945792490E+02 -0.21787309116E+03  0.31024461543E+03  0.00000000000E+00 0. -1.
          1    1    1    2  502    0 -0.36808547068E+02  0.56899568729E+02  0.93138740914E+03  0.93384952533E+03  0.00000000000E+00 0. -1.
         22    1    3    3    0    0  0.22466280799E+03 -0.11344451230E+03  0.85807973703E+02  0.26590607932E+03  0.00000000000E+00 0.  1.
         22    1    3    3    0    0  0.30835920563E+02  0.25599151085E+02  0.42033769330E+02  0.58077605816E+02  0.00000000000E+00 0.  1.
</event>
<event>
 7    1  0.4402832E-005  0.4357632E+03  0.7818608E-02  0.1215047E+00
          2   -1    0    0  502    0  0.00000000000E+00  0.00000000000E+00  0.59678015280E+03  0.59678015280E+03  0.00000000000E+00 0. -1.
          1   -1    0    0  501    0 -0.00000000000E+00 -0.00000000000E+00 -0.70299970279E+03  0.70299970279E+03  0.00000000000E+00 0. -1.
         25    2    1    2    0    0  0.42085222177E+03 -0.10717768967E+02 -0.11436403767E+03  0.45380053441E+03  0.12499731508E+03 0.  0.
          2    1    1    2  501    0  0.18450102635E+02 -0.40128421783E+02 -0.30239470734E+03  0.30560310134E+03  0.00000000000E+00 0. -1.
          1    1    1    2  502    0 -0.43930232441E+03  0.50846190750E+02  0.31053919501E+03  0.54037621985E+03  0.00000000000E+00 0. -1.
         22    1    3    3    0    0  0.91096569428E+02  0.49906615427E+02 -0.27115995039E+02  0.10735237497E+03  0.00000000000E+00 0.  1.
         22    1    3    3    0    0  0.32975565234E+03 -0.60624384394E+02 -0.87248042627E+02  0.34644815944E+03  0.00000000000E+00 0.  1.
</event>
<event>
 7    1  0.4402832E-005  0.8649755E+03  0.7818608E-02  0.1081744E+00
          2   -1    0    0  502    0  0.00000000000E+00  0.00000000000E+00  0.23055545975E+04  0.23055545975E+04  0.00000000000E+00 0. -1.
          1   -1    0    0  501    0 -0.00000000000E+00 -0.00000000000E+00 -0.12013005966E+04  0.12013005966E+04  0.00000000000E+00 0. -1.
         25    2    1    2    0    0  0.35821969685E+03  0.79923593195E+03  0.44526928155E+02  0.88583688054E+03  0.12499962188E+03 0.  0.
          2    1    1    2  501    0 -0.25203948969E+03 -0.82401061451E+03 -0.54043449203E+03  0.10171464188E+04  0.00000000000E+00 0. -1.
          1    1    1    2  502    0 -0.10618020715E+03  0.24774682562E+02  0.16001615648E+04  0.16038718947E+04  0.00000000000E+00 0. -1.
         22    1    3    3    0    0  0.24346312916E+03  0.66468792561E+03  0.36745012614E+02  0.70882616322E+03  0.00000000000E+00 0. -1.
         22    1    3    3    0    0  0.11475656769E+03  0.13454800634E+03  0.77819155413E+01  0.17701071732E+03  0.00000000000E+00 0. -1.
</event>
<event>
 7    1  0.4402832E-005  0.6616202E+03  0.7818608E-02  0.1071616E+00
          2   -1    0    0  502    0  0.00000000000E+00  0.00000000000E+00  0.22843677458E+04  0.22843677458E+04  0.00000000000E+00 0. -1.
          1   -1    0    0  501    0 -0.00000000000E+00 -0.00000000000E+00 -0.24706446030E+04  0.24706446030E+04  0.00000000000E+00 0. -1.
         25    2    1    2    0    0 -0.51055289369E+02  0.73576270640E+03 -0.76204217043E+02  0.75192103883E+03  0.12499905294E+03 0.  0.
          2    1    1    2  501    0  0.13766816361E+03 -0.88240148537E+02 -0.19983337714E+04  0.20050128950E+04  0.00000000000E+00 0. -1.
          1    1    1    2  502    0 -0.86612874246E+02 -0.64752255786E+03  0.18882611312E+04  0.19980784150E+04  0.00000000000E+00 0. -1.
         22    1    3    3    0    0 -0.19018747099E+02  0.70968571941E+02  0.27249428494E+02  0.78363143746E+02  0.00000000000E+00 0. -1.
         22    1    3    3    0    0 -0.32036542270E+02  0.66479413446E+03 -0.10345364554E+03  0.67355789508E+03  0.00000000000E+00 0. -1.
</event>
<event>
 7    1  0.4402832E-005  0.1878175E+03  0.7818608E-02  0.1286811E+00
          2   -1    0    0  502    0  0.00000000000E+00  0.00000000000E+00  0.57430478252E+03  0.57430478252E+03  0.00000000000E+00 0. -1.
          1   -1    0    0  501    0 -0.00000000000E+00 -0.00000000000E+00 -0.16584257955E+03  0.16584257955E+03  0.00000000000E+00 0. -1.
         25    2    1    2    0    0 -0.14158399769E+03 -0.34889300882E+02 -0.25237217341E+02  0.19371333188E+03  0.12499858435E+03 0.  0.
          2    1    1    2  501    0 -0.46742543468E+02 -0.17920668455E+02 -0.18798566953E+02  0.53473375125E+02  0.00000000000E+00 0. -1.
          1    1    1    2  502    0  0.18832654116E+03  0.52809969337E+02  0.45249798726E+03  0.49296065506E+03  0.00000000000E+00 0. -1.
         22    1    3    3    0    0 -0.14916967745E+03 -0.14443693937E+02  0.12226049281E+02  0.15036518628E+03  0.00000000000E+00 0. -1.
         22    1    3    3    0    0  0.75856797583E+01 -0.20445606945E+02 -0.37463266622E+02  0.43348145597E+02  0.00000000000E+00 0. -1.
</event>
<event>
 7    1  0.4402832E-005  0.9985443E+03  0.7818608E-02  0.1144281E+00
          2   -1    0    0  502    0  0.00000000000E+00  0.00000000000E+00  0.20325961329E+04  0.20325961329E+04  0.00000000000E+00 0. -1.
          1   -1    0    0  501    0 -0.00000000000E+00 -0.00000000000E+00 -0.93867385739E+03  0.93867385739E+03  0.00000000000E+00 0. -1.
         25    2    1    2    0    0 -0.97988627705E+03 -0.19040616600E+03  0.27554311543E+03  0.10430633922E+04  0.12500243035E+03 0.  0.
          2    1    1    2  501    0  0.98805180273E+03  0.14844424963E+03 -0.10427082246E+03  0.10045668044E+04  0.00000000000E+00 0. -1.
          1    1    1    2  502    0 -0.81655256833E+01  0.41961916367E+02  0.92264998252E+03  0.92363979368E+03  0.00000000000E+00 0. -1.
         22    1    3    3    0    0 -0.12899082163E+03 -0.17122230695E+02  0.80687930937E+02  0.15310893197E+03  0.00000000000E+00 0. -1.
         22    1    3    3    0    0 -0.85089545542E+03 -0.17328393530E+03  0.19485518449E+03  0.88995446019E+03  0.00000000000E+00 0. -1.
</event>
<event>
 7    1  0.4402832E-005  0.1596992E+03  0.7818608E-02  0.1210029E+00
          2   -1    0    0  502    0  0.00000000000E+00  0.00000000000E+00  0.67078306604E+02  0.67078306604E+02  0.00000000000E+00 0. -1.
          1   -1    0    0  501    0 -0.00000000000E+00 -0.00000000000E+00 -0.16496242397E+04  0.16496242397E+04  0.00000000000E+00 0. -1.
         25    2    1    2    0    0  0.51406774610E+02  0.70384300909E+02 -0.25829381381E+03  0.29989582460E+03  0.12500082027E+03 0.  0.
          2    1    1    2  501    0 -0.17825751233E+03 -0.62123894669E+02 -0.12605736154E+04  0.12746297340E+04  0.00000000000E+00 0. -1.
          1    1    1    2  502    0  0.12685073772E+03 -0.82604062407E+01 -0.63678503873E+02  0.14217698768E+03  0.00000000000E+00 0. -1.
         22    1    3    3    0    0 -0.21010682471E+02 -0.24867781036E+02 -0.61343932104E+02  0.69447342048E+02  0.00000000000E+00 0.  1.
         22    1    3    3    0    0  0.72417457081E+02  0.95252081945E+02 -0.19694988171E+03  0.23044848255E+03  0.00000000000E+00 0.  1.
</event>
<event>
 7    1  0.4402832E-005  0.2870627E+03  0.7818608E-02  0.1215579E+00
          2   -1    0    0  502    0  0.00000000000E+00  0.00000000000E+00  0.36001751667E+03  0.36001751667E+03  0.00000000000E+00 0. -1.
          1   -1    0    0  501    0 -0.00000000000E+00 -0.00000000000E+00 -0.96045049027E+03  0.96045049027E+03  0.00000000000E+00 0. -1.
         25    2    1    2    0    0 -0.11130043888E+03  0.27141269847E+03 -0.66158248307E+03  0.73441734547E+03  0.12499925935E+03 0.  0.
          2    1    1    2  501    0  0.16148751168E+03 -0.22752631620E+03 -0.18253231992E+03  0.33341339026E+03  0.00000000000E+00 0. -1.
          1    1    1    2  502    0 -0.50187072791E+02 -0.43886382269E+02  0.24368182939E+03  0.25263727120E+03  0.00000000000E+00 0. -1.
         22    1    3    3    0    0 -0.11000977134E+03  0.22183269542E+03 -0.62652709718E+03  0.67368249054E+03  0.00000000000E+00 0.  1.
         22    1    3    3    0    0 -0.12906675407E+01  0.49580003041E+02 -0.35055385889E+02  0.60734854935E+02  0.00000000000E+00 0.  1.
</event>
<event>
 7    1  0.4402832E-005  0.4961638E+03  0.7818608E-02  0.1144943E+00
          2   -1    0    0  502    0  0.00000000000E+00  0.00000000000E+00  0.51324933873E+04  0.51324933873E+04  0.00000000000E+00 0. -1.
          1   -1    0    0  501    0 -0.00000000000E+00 -0.00000000000E+00 -0.34737230069E+03  0.34737230069E+03  0.00000000000E+00 0. -1.
         25    2    1    2    0    0 -0.37436722416E+03 -0.43039967319E+03  0.73705423692E+03  0.94035551310E+03  0.12499938256E+03 0.  0.
          2    1    1    2  501    0  0.46210818625E+02  0.71763192261E+02 -0.22408506781E+03  0.23979056098E+03  0.00000000000E+00 0. -1.
          1    1    1    2  502    0  0.32815640554E+03  0.35863648093E+03  0.42721519175E+04  0.42997196139E+04  0.00000000000E+00 0. -1.
         22    1    3    3    0    0 -0.35668526360E+03 -0.34317214968E+03  0.62533927217E+03  0.79752160278E+03  0.00000000000E+00 0.  1.
         22    1    3    3    0    0 -0.17681960565E+02 -0.87227523511E+02  0.11171496475E+03  0.14283391032E+03  0.00000000000E+00 0.  1.
</event>
<event>
 7    1  0.4402832E-005  0.4480310E+03  0.7818608E-02  0.1122234E+00
          2   -1    0    0  502    0  0.00000000000E+00  0.00000000000E+00  0.23334672738E+04  0.23334672738E+04  0.00000000000E+00 0. -1.
          1   -1    0    0  501    0 -0.00000000000E+00 -0.00000000000E+00 -0.74463280190E+03  0.74463280190E+03  0.00000000000E+00 0. -1.
         25    2    1    2    0    0  0.46371843566E+03 -0.23534201016E+03 -0.25135050488E+03  0.59094971796E+03  0.12499537409E+03 0.  0.
          2    1    1    2  501    0 -0.34683612676E+03  0.19187075984E+03 -0.19943881296E+03  0.44371784663E+03  0.00000000000E+00 0. -1.
          1    1    1    2  502    0 -0.11688230890E+03  0.43471250317E+02  0.20396237898E+04  0.20434325111E+04  0.00000000000E+00 0. -1.
         22    1    3    3    0    0  0.37948070614E+02 -0.55255808950E+02 -0.62253364508E+02  0.91480827929E+02  0.00000000000E+00 0. -1.
         22    1    3    3    0    0  0.42577036504E+03 -0.18008620121E+03 -0.18909714037E+03  0.49946889003E+03  0.00000000000E+00 0. -1.
</event>
<event>
 7    1  0.4402832E-005  0.5275623E+03  0.7818608E-02  0.1232156E+00
          2   -1    0    0  502    0  0.00000000000E+00  0.00000000000E+00  0.23999734694E+04  0.23999734694E+04  0.00000000000E+00 0. -1.
          1   -1    0    0  501    0 -0.00000000000E+00 -0.00000000000E+00 -0.65819914838E+03  0.65819914838E+03  0.00000000000E+00 0. -1.
         25    2    1    2    0    0  0.50597249518E+03 -0.14757756623E+03 -0.40703655792E+03  0.67756262887E+03  0.12500021050E+03 0.  0.
          2    1    1    2  501    0 -0.51700652144E+03  0.11912617510E+03  0.49215632146E+03  0.72367439747E+03  0.00000000000E+00 0. -1.
          1    1    1    2  502    0  0.11034026267E+02  0.28451391130E+02  0.16566545575E+04  0.16569355914E+04  0.00000000000E+00 0. -1.
         22    1    3    3    0    0  0.59353054748E+01  0.11536065345E+02 -0.26041052604E+02  0.29093729143E+02  0.00000000000E+00 0.  1.
         22    1    3    3    0    0  0.50003718970E+03 -0.15911363158E+03 -0.38099550531E+03  0.64846889972E+03  0.00000000000E+00 0.  1.
</event>
<event>
 7    1  0.4402832E-005  0.1375638E+03  0.7818608E-02  0.1238522E+00
          2   -1    0    0  502    0  0.00000000000E+00  0.00000000000E+00  0.42372245093E+03  0.42372245093E+03  0.00000000000E+00 0. -1.
          1   -1    0    0  501    0 -0.00000000000E+00 -0.00000000000E+00 -0.26043750038E+03  0.26043750038E+03  0.00000000000E+00 0. -1.
         25    2    1    2    0    0 -0.47519965345E+02  0.70690103975E+02  0.91217224230E+02  0.17663727766E+03  0.12499963183E+03 0.  0.
          2    1    1    2  501    0 -0.10866616344E+03  0.14653006929E+02 -0.17289211412E+03  0.20473086922E+03  0.00000000000E+00 0. -1.
          1    1    1    2  502    0  0.15618612879E+03 -0.85343110904E+02  0.24495984043E+03  0.30279180443E+03  0.00000000000E+00 0. -1.
         22    1    3    3    0    0  0.21456798745E+02  0.42238468389E+02 -0.12380287814E+02  0.48966865844E+02  0.00000000000E+00 0. -1.
         22    1    3    3    0    0 -0.68976764089E+02  0.28451635587E+02  0.10359751204E+03  0.12767041182E+03  0.00000000000E+00 0. -1.
</event>
<event>
 7    1  0.5174729E-005  0.4374044E+02  0.7818608E-02  0.1516204E+00
          2   -1    0    0  502    0  0.00000000000E+00  0.00000000000E+00  0.52495119569E+03  0.52495119569E+03  0.00000000000E+00 0. -1.
          1   -1    0    0  501    0 -0.00000000000E+00 -0.00000000000E+00 -0.19846101217E+04  0.19846101217E+04  0.00000000000E+00 0. -1.
         25    2    1    2    0    0 -0.15770405166E+02  0.15655706374E+02 -0.15894270669E+03  0.20342493847E+03  0.12500045904E+03 0.  0.
          2    1    1    2  501    0 -0.27844771617E+02 -0.20633104323E+02 -0.18023010617E+04  0.18026342317E+04  0.00000000000E+00 0. -1.
          1    1    1    2  502    0  0.43615176782E+02  0.49773979496E+01  0.50158484238E+03  0.50350214721E+03  0.00000000000E+00 0. -1.
         22    1    3    3    0    0 -0.37952306162E+02  0.63546165238E+02 -0.87632578254E+02  0.11470815765E+03  0.00000000000E+00 0.  1.
         22    1    3    3    0    0  0.22181900996E+02 -0.47890458865E+02 -0.71310128435E+02  0.88716780823E+02  0.00000000000E+00 0.  1.
</event>
<event>
 7    1  0.6146121E-005  0.1161400E+04  0.7818608E-02  0.1168414E+00
          2   -1    0    0  502    0  0.00000000000E+00  0.00000000000E+00  0.11613626847E+04  0.11613626847E+04  0.00000000000E+00 0. -1.
          1   -1    0    0  501    0 -0.00000000000E+00 -0.00000000000E+00 -0.27238062704E+04  0.27238062704E+04  0.00000000000E+00 0. -1.
         25    2    1    2    0    0 -0.51516985005E+03 -0.10569061218E+04 -0.96471221855E+03  0.15260228903E+04  0.12500268891E+03 0.  0.
          2    1    1    2  501    0  0.26486950676E+02  0.81155201527E+01 -0.10981609633E+04  0.10985103193E+04  0.00000000000E+00 0. -1.
          1    1    1    2  502    0  0.48868289937E+03  0.10487906017E+04  0.50042959608E+03  0.12606357456E+04  0.00000000000E+00 0. -1.
         22    1    3    3    0    0 -0.39996042166E+03 -0.72613460535E+03 -0.72796447847E+03  0.11032552225E+04  0.00000000000E+00 0.  1.
         22    1    3    3    0    0 -0.11520942839E+03 -0.33077151649E+03 -0.23674774008E+03  0.42276766781E+03  0.00000000000E+00 0.  1.
</event>
<event>
 7    1  0.4402832E-005  0.2725022E+03  0.7818608E-02  0.1171261E+00
          2   -1    0    0  502    0  0.00000000000E+00  0.00000000000E+00  0.24178848373E+04  0.24178848373E+04  0.00000000000E+00 0. -1.
          1   -1    0    0  501    0 -0.00000000000E+00 -0.00000000000E+00 -0.10648843250E+03  0.10648843250E+03  0.00000000000E+00 0. -1.
         25    2    1    2    0    0  0.23814408978E+03  0.17887462557E+03  0.28710013879E+03  0.43215893473E+03  0.12500446394E+03 0.  0.
          2    1    1    2  501    0 -0.12916774286E+03 -0.21329797464E+03  0.45573007940E+03  0.51949036281E+03  0.00000000000E+00 0. -1.
          1    1    1    2  502    0 -0.10897634692E+03  0.34423349070E+02  0.15685661866E+04  0.15727239722E+04  0.00000000000E+00 0. -1.
         22    1    3    3    0    0  0.11488796421E+03  0.14122597158E+02  0.83755221311E+02  0.14287627223E+03  0.00000000000E+00 0.  1.
         22    1    3    3    0    0  0.12325612557E+03  0.16475202841E+03  0.20334491747E+03  0.28928266249E+03  0.00000000000E+00 0.  1.
</event>
<event>
 7    1  0.4402832E-005  0.8896502E+02  0.7818608E-02  0.1331138E+00
          2   -1    0    0  502    0  0.00000000000E+00  0.00000000000E+00  0.77021103975E+03  0.77021103975E+03  0.00000000000E+00 0. -1.
          1   -1    0    0  501    0 -0.00000000000E+00 -0.00000000000E+00 -0.80990182704E+02  0.80990182704E+02  0.00000000000E+00 0. -1.
         25    2    1    2    0    0  0.11679658405E+03  0.93903389038E+02  0.29331344331E+03  0.35230049826E+03  0.12499430600E+03 0.  0.
          2    1    1    2  501    0 -0.46908980169E+02 -0.52802841969E+02 -0.21391645283E+02  0.73798340282E+02  0.00000000000E+00 0. -1.
          1    1    1    2  502    0 -0.69887603879E+02 -0.41100547069E+02  0.41729905902E+03  0.42510238391E+03  0.00000000000E+00 0. -1.
         22    1    3    3    0    0  0.15883618201E+01  0.26586421592E+02 -0.35102547322E+01  0.26864150733E+02  0.00000000000E+00 0. -1.
         22    1    3    3    0    0  0.11520822223E+03  0.67316967446E+02  0.29682369804E+03  0.32543634753E+03  0.00000000000E+00 0. -1.
</event>
<event>
 7    1  0.4402832E-005  0.1823714E+03  0.7818608E-02  0.1208331E+00
          2   -1    0    0  502    0  0.00000000000E+00  0.00000000000E+00  0.99234362011E+03  0.99234362011E+03  0.00000000000E+00 0. -1.
          1   -1    0    0  501    0 -0.00000000000E+00 -0.00000000000E+00 -0.67494608211E+03  0.67494608211E+03  0.00000000000E+00 0. -1.
         25    2    1    2    0    0  0.22488821533E+03 -0.84556435119E+02 -0.59367626349E+02  0.27726301142E+03  0.12500304928E+03 0.  0.
          2    1    1    2  501    0 -0.17620837755E+03 -0.17813531155E+02 -0.48733706464E+03  0.51852109772E+03  0.00000000000E+00 0. -1.
          1    1    1    2  502    0 -0.48679837776E+02  0.10236996627E+03  0.86410222899E+03  0.87150559307E+03  0.00000000000E+00 0. -1.
         22    1    3    3    0    0  0.60599722289E+02  0.30320670651E+02  0.14346159278E+01  0.67777042817E+02  0.00000000000E+00 0. -1.
         22    1    3    3    0    0  0.16428849304E+03 -0.11487710577E+03 -0.60802242277E+02  0.20948596860E+03  0.00000000000E+00 0. -1.
</event>
<event>
 7    1  0.4402832E-005  0.1390162E+03  0.7818608E-02  0.1230324E+00
          2   -1    0    0  502    0  0.00000000000E+00  0.00000000000E+00  0.29746004450E+04  0.29746004450E+04  0.00000000000E+00 0. -1.
          1   -1    0    0  501    0 -0.00000000000E+00 -0.00000000000E+00 -0.93913714875E+03  0.93913714875E+03  0.00000000000E+00 0. -1.
         25    2    1    2    0    0  0.12163311987E+03  0.20129108580E+03  0.77772670093E+02  0.27746438186E+03  0.12500071166E+03 0.  0.
          2    1    1    2  501    0 -0.24514234167E+02 -0.13424379876E+03 -0.83248865341E+03  0.84359925512E+03  0.00000000000E+00 0. -1.
          1    1    1    2  502    0 -0.97118885704E+02 -0.67047287040E+02  0.27901792796E+04  0.27926739568E+04  0.00000000000E+00 0. -1.
         22    1    3    3    0    0  0.34851953791E+01  0.30440977885E+02  0.61982944856E+02  0.69142499047E+02  0.00000000000E+00 0.  1.
         22    1    3    3    0    0  0.11814792449E+03  0.17085010791E+03  0.15789725237E+02  0.20832188281E+03  0.00000000000E+00 0.  1.
</event>
<event>
 7    1  0.4402832E-005  0.4119234E+03  0.7818608E-02  0.1103599E+00
          2   -1    0    0  502    0  0.00000000000E+00  0.00000000000E+00  0.80418645186E+03  0.80418645186E+03  0.00000000000E+00 0. -1.
          1   -1    0    0  501    0 -0.00000000000E+00 -0.00000000000E+00 -0.27177862322E+04  0.27177862322E+04  0.00000000000E+00 0. -1.
         25    2    1    2    0    0 -0.51326767196E+03 -0.96900988373E+02 -0.13311135558E+02  0.53724082743E+03  0.12496805871E+03 0.  0.
          2    1    1    2  501    0  0.12691819370E+03  0.11571585537E+03 -0.23700203968E+04  0.23762354825E+04  0.00000000000E+00 0. -1.
          1    1    1    2  502    0  0.38634947826E+03 -0.18814866998E+02  0.46973175198E+03  0.60849637418E+03  0.00000000000E+00 0. -1.
         22    1    3    3    0    0 -0.19747541167E+03  0.34005390623E+01  0.40352681971E+02  0.20158482290E+03  0.00000000000E+00 0.  1.
         22    1    3    3    0    0 -0.31579226029E+03 -0.10030152744E+03 -0.53663817529E+02  0.33565600453E+03  0.00000000000E+00 0.  1.
</event>
<event>
 7    1  0.4402832E-005  0.2263085E+03  0.7818608E-02  0.1156234E+00
          2   -1    0    0  502    0  0.00000000000E+00  0.00000000000E+00  0.14799699834E+04  0.14799699834E+04  0.00000000000E+00 0. -1.
          1   -1    0    0  501    0 -0.00000000000E+00 -0.00000000000E+00 -0.13309898968E+04  0.13309898968E+04  0.00000000000E+00 0. -1.
         25    2    1    2    0    0  0.27392592959E+03 -0.11990732481E+03  0.13418249470E+03  0.35077518605E+03  0.12500043130E+03 0.  0.
          2    1    1    2  501    0 -0.12475379011E+03  0.18739175083E+03 -0.12068234343E+04  0.12276408180E+04  0.00000000000E+00 0. -1.
          1    1    1    2  502    0 -0.14917213947E+03 -0.67484426025E+02  0.12216210262E+04  0.12325438762E+04  0.00000000000E+00 0. -1.
         22    1    3    3    0    0  0.19200486126E+03 -0.58626297374E+02  0.14536742194E+03  0.24786003480E+03  0.00000000000E+00 0. -1.
         22    1    3    3    0    0  0.81921068329E+02 -0.61281027432E+02 -0.11184927243E+02  0.10291515125E+03  0.00000000000E+00 0. -1.
</event>
<event>
 7    1  0.4402832E-005  0.1178231E+03  0.7818608E-02  0.1342228E+00
          2   -1    0    0  502    0  0.00000000000E+00  0.00000000000E+00  0.18430229203E+04  0.18430229203E+04  0.00000000000E+00 0. -1.
          1   -1    0    0  501    0 -0.00000000000E+00 -0.00000000000E+00 -0.40962766371E+02  0.40962766371E+02  0.00000000000E+00 0. -1.
         25    2    1    2    0    0  0.62659760950E+02 -0.85134087651E+02  0.19162287941E+03  0.25202172162E+03  0.12498624617E+03 0.  0.
          2    1    1    2  501    0 -0.10777836248E+03  0.10271338504E+03  0.53200250190E+03  0.55244264581E+03  0.00000000000E+00 0. -1.
          1    1    1    2  502    0  0.45118601525E+02 -0.17579297387E+02  0.10784347726E+04  0.10795213192E+04  0.00000000000E+00 0. -1.
         22    1    3    3    0    0  0.26347919332E+02 -0.67096451642E+02  0.19824111631E+03  0.21094000776E+03  0.00000000000E+00 0.  1.
         22    1    3    3    0    0  0.36311841618E+02 -0.18037636010E+02 -0.66182368971E+01  0.41081713866E+02  0.00000000000E+00 0.  1.
</event>
<event>
 7    1  0.4402832E-005  0.5675695E+03  0.7818608E-02  0.1118018E+00
          2   -1    0    0  502    0  0.00000000000E+00  0.00000000000E+00  0.12052518104E+04  0.12052518104E+04  0.00000000000E+00 0. -1.
          1   -1    0    0  501    0 -0.00000000000E+00 -0.00000000000E+00 -0.10533944098E+04  0.10533944098E+04  0.00000000000E+00 0. -1.
         25    2    1    2    0    0 -0.54151911963E+03 -0.16000937296E+03  0.26240292271E+03  0.63508051483E+03  0.12500404038E+03 0.  0.
          2    1    1    2  501    0 -0.28056763105E+02  0.99902227880E+02 -0.75459152496E+03  0.76169285583E+03  0.00000000000E+00 0. -1.
          1    1    1    2  502    0  0.56957588274E+03  0.60107145081E+02  0.64404600283E+03  0.86187284958E+03  0.00000000000E+00 0. -1.
         22    1    3    3    0    0 -0.39990173131E+02  0.13563217243E+02  0.44575609422E+02  0.61401626724E+02  0.00000000000E+00 0. -1.
         22    1    3    3    0    0 -0.50152894650E+03 -0.17357259020E+03  0.21782731329E+03  0.57367888811E+03  0.00000000000E+00 0. -1.
</event>
<event>
 7    1  0.4402832E-005  0.2922718E+03  0.7818608E-02  0.1144144E+00
          2   -1    0    0  502    0  0.00000000000E+00  0.00000000000E+00  0.24828914565E+04  0.24828914565E+04  0.00000000000E+00 0. -1.
          1   -1    0    0  501    0 -0.00000000000E+00 -0.00000000000E+00 -0.17863431238E+04  0.17863431238E+04  0.00000000000E+00 0. -1.
         25    2    1    2    0    0  0.32218511554E+02 -0.33214633218E+03  0.97858339220E+03  0.10414480165E+04  0.12501718697E+03 0.  0.
          2    1    1    2  501    0 -0.13064009990E+03  0.65833809328E+02 -0.17381272054E+04  0.17442726588E+04  0.00000000000E+00 0. -1.
          1    1    1    2  502    0  0.98421588342E+02  0.26631252286E+03  0.14560921459E+04  0.14835139050E+04  0.00000000000E+00 0. -1.
         22    1    3    3    0    0  0.52572477734E+01 -0.17609355381E+03  0.33306383047E+03  0.37678653574E+03  0.00000000000E+00 0.  1.
         22    1    3    3    0    0  0.26961263780E+02 -0.15605277837E+03  0.64551956173E+03  0.66466148072E+03  0.00000000000E+00 0.  1.
</event>
<event>
 7    1  0.4402832E-005  0.1698932E+03  0.7818608E-02  0.1181743E+00
          2   -1    0    0  502    0  0.00000000000E+00  0.00000000000E+00  0.75279663447E+03  0.75279663447E+03  0.00000000000E+00 0. -1.
          1   -1    0    0  501    0 -0.00000000000E+00 -0.00000000000E+00 -0.13784977937E+04  0.13784977937E+04  0.00000000000E+00 0. -1.
         25    2    1    2    0    0  0.12744968514E+03 -0.20238961780E+03  0.69555138124E+03  0.74607065583E+03  0.12499887961E+03 0.  0.
          2    1    1    2  501    0 -0.16387693002E+03  0.43699202527E+02 -0.25270996814E+03  0.30434782156E+03  0.00000000000E+00 0. -1.
          1    1    1    2  502    0  0.36427244878E+02  0.15869041527E+03 -0.10685425724E+04  0.10808759508E+04  0.00000000000E+00 0. -1.
         22    1    3    3    0    0  0.41467211187E+02 -0.11727573508E+03  0.50703981957E+03  0.52207519216E+03  0.00000000000E+00 0. -1.
         22    1    3    3    0    0  0.85982473951E+02 -0.85113882720E+02  0.18851156167E+03  0.22399546367E+03  0.00000000000E+00 0. -1.
</event>
<event>
 7    1  0.4402832E-005  0.1249939E+03  0.7818608E-02  0.1292217E+00
          2   -1    0    0  502    0  0.00000000000E+00  0.00000000000E+00  0.63987571969E+03  0.63987571969E+03  0.00000000000E+00 0. -1.
          1   -1    0    0  501    0 -0.00000000000E+00 -0.00000000000E+00 -0.57407870504E+02  0.57407870504E+02  0.00000000000E+00 0. -1.
         25    2    1    2    0    0 -0.58089782279E+02 -0.12862742902E+03  0.28168847641E+03  0.33895679311E+03  0.12499548614E+03 0.  0.
          2    1    1    2  501    0 -0.41882139991E+02  0.57955328928E+02  0.95362053360E+02  0.11919251244E+03  0.00000000000E+00 0. -1.
          1    1    1    2  502    0  0.99971922270E+02  0.70672100088E+02  0.20541731942E+03  0.23913428464E+03  0.00000000000E+00 0. -1.
         22    1    3    3    0    0 -0.18330536939E+02 -0.12512473536E+03  0.12708436401E+03  0.17928369574E+03  0.00000000000E+00 0.  1.
         22    1    3    3    0    0 -0.39759245340E+02 -0.35026936566E+01  0.15460411240E+03  0.15967309737E+03  0.00000000000E+00 0.  1.
</event>
<event>
 7    1  0.4402832E-005  0.7558460E+03  0.7818608E-02  0.1029580E+00
          2   -1    0    0  502    0  0.00000000000E+00  0.00000000000E+00  0.12453328310E+04  0.12453328310E+04  0.00000000000E+00 0. -1.
          1   -1    0    0  501    0 -0.00000000000E+00 -0.00000000000E+00 -0.26119753990E+04  0.26119753990E+04  0.00000000000E+00 0. -1.
         25    2    1    2    0    0 -0.55395242490E+03  0.81389879756E+03  0.28371188839E+03  0.10321883661E+04  0.12500338278E+03 0.  0.
          2    1    1    2  501    0  0.46526015617E+03 -0.56884715053E+03 -0.21442498772E+04  0.22666851633E+04  0.00000000000E+00 0. -1.
          1    1    1    2  502    0  0.88692268732E+02 -0.24505164703E+03  0.49389542080E+03  0.55843470069E+03  0.00000000000E+00 0. -1.
         22    1    3    3    0    0 -0.35237078084E+03  0.43670968095E+03  0.20446428429E+03  0.59723207899E+03  0.00000000000E+00 0. -1.
         22    1    3    3    0    0 -0.20158164406E+03  0.37718911661E+03  0.79247604095E+02  0.43495628707E+03  0.00000000000E+00 0. -1.
</event>
<event>
 7    1  0.4707427E-005  0.6729179E+03  0.7818608E-02  0.1143395E+00
          2   -1    0    0  502    0  0.00000000000E+00  0.00000000000E+00  0.16564901827E+04  0.16564901827E+04  0.00000000000E+00 0. -1.
          1   -1    0    0  501    0 -0.00000000000E+00 -0.00000000000E+00 -0.14532519572E+04  0.14532519572E+04  0.00000000000E+00 0. -1.
         25    2    1    2    0    0  0.14167303580E+03 -0.64522244110E+03 -0.24021250761E+03  0.71394016484E+03  0.12500105032E+03 0.  0.
          2    1    1    2  501    0 -0.58990339101E+02 -0.25109332484E+02 -0.89462879323E+03  0.89692308275E+03  0.00000000000E+00 0. -1.
          1    1    1    2  502    0 -0.82682696694E+02  0.67033177359E+03  0.13380795264E+04  0.14988788923E+04  0.00000000000E+00 0. -1.
         22    1    3    3    0    0  0.98913418310E+02 -0.53681370712E+03 -0.14863167749E+03  0.56572448774E+03  0.00000000000E+00 0.  1.
         22    1    3    3    0    0  0.42759617486E+02 -0.10840873398E+03 -0.91580830127E+02  0.14821567710E+03  0.00000000000E+00 0.  1.
</event>
<event>
 7    1  0.4402832E-005  0.1879412E+03  0.7818608E-02  0.1247486E+00
          2   -1    0    0  502    0  0.00000000000E+00  0.00000000000E+00  0.18790916842E+04  0.18790916842E+04  0.00000000000E+00 0. -1.
          1   -1    0    0  501    0 -0.00000000000E+00 -0.00000000000E+00 -0.93526438663E+02  0.93526438663E+02  0.00000000000E+00 0. -1.
         25    2    1    2    0    0 -0.23185848151E+02  0.23151700421E+03  0.28575047760E+03  0.38912392942E+03  0.12500556067E+03 0.  0.
          2    1    1    2  501    0  0.42575163516E+02 -0.16081972257E+03  0.12846839138E+03  0.21018980779E+03  0.00000000000E+00 0. -1.
          1    1    1    2  502    0 -0.19389315366E+02 -0.70697281643E+02  0.13713463766E+04  0.13733043857E+04  0.00000000000E+00 0. -1.
         22    1    3    3    0    0 -0.24849107818E+02  0.39169651871E+02  0.14087199627E+03  0.14831270721E+03  0.00000000000E+00 0.  1.
         22    1    3    3    0    0  0.16632596677E+01  0.19234735234E+03  0.14487848134E+03  0.24081122220E+03  0.00000000000E+00 0.  1.
</event>
<event>
 7    1  0.4402832E-005  0.3487133E+03  0.7818608E-02  0.1218392E+00
          2   -1    0    0  502    0  0.00000000000E+00  0.00000000000E+00  0.17206346242E+04  0.17206346242E+04  0.00000000000E+00 0. -1.
          1   -1    0    0  501    0 -0.00000000000E+00 -0.00000000000E+00 -0.14525869505E+03  0.14525869505E+03  0.00000000000E+00 0. -1.
         25    2    1    2    0    0 -0.76746305534E+02  0.37849734882E+03  0.73963550469E+03  0.84370400651E+03  0.12500212928E+03 0.  0.
          2    1    1    2  501    0  0.77775592121E+02 -0.32523016460E+03  0.21148274951E+03  0.39566230049E+03  0.00000000000E+00 0. -1.
          1    1    1    2  502    0 -0.10292865869E+01 -0.53267184228E+02  0.62425767498E+03  0.62652701228E+03  0.00000000000E+00 0. -1.
         22    1    3    3    0    0 -0.18181752583E+02  0.30012828010E+03  0.62075854062E+03  0.68974540695E+03  0.00000000000E+00 0. -1.
         22    1    3    3    0    0 -0.58564552950E+02  0.78369068723E+02  0.11887696406E+03  0.15395859957E+03  0.00000000000E+00 0. -1.
</event>
<event>
 7    1  0.4402832E-005  0.6088306E+03  0.7818608E-02  0.1180275E+00
          2   -1    0    0  502    0  0.00000000000E+00  0.00000000000E+00  0.61992874777E+03  0.61992874777E+03  0.00000000000E+00 0. -1.
          1   -1    0    0  501    0 -0.00000000000E+00 -0.00000000000E+00 -0.11982490977E+04  0.11982490977E+04  0.00000000000E+00 0. -1.
         25    2    1    2    0    0  0.61102337276E+03 -0.80452068636E+02 -0.59338560226E+03  0.86461029692E+03  0.12498958020E+03 0.  0.
          2    1    1    2  501    0 -0.16510236231E+02 -0.43136784130E+02 -0.27624712895E+03  0.28008185643E+03  0.00000000000E+00 0. -1.
          1    1    1    2  502    0 -0.59451313653E+03  0.12358885277E+03  0.29131238127E+03  0.67348569214E+03  0.00000000000E+00 0. -1.
         22    1    3    3    0    0  0.23968066435E+03  0.29667987756E+02 -0.22585654488E+03  0.33066325654E+03  0.00000000000E+00 0.  1.
         22    1    3    3    0    0  0.37134270841E+03 -0.11012005639E+03 -0.36752905738E+03  0.53394704038E+03  0.00000000000E+00 0.  1.
</event>
<event>
 7    1  0.4402832E-005  0.3242546E+03  0.7818608E-02  0.1169683E+00
          2   -1    0    0  502    0  0.00000000000E+00  0.00000000000E+00  0.81531942185E+03  0.81531942185E+03  0.00000000000E+00 0. -1.
          1   -1    0    0  501    0 -0.00000000000E+00 -0.00000000000E+00 -0.70418270781E+03  0.70418270781E+03  0.00000000000E+00 0. -1.
         25    2    1    2    0    0 -0.37850696636E+03  0.11917603076E+03  0.19289263415E+03  0.45858778071E+03  0.12499893766E+03 0.  0.
          2    1    1    2  501    0  0.93968820858E+02 -0.27074679628E+02 -0.52068038081E+03  0.52978414144E+03  0.00000000000E+00 0. -1.
          1    1    1    2  502    0  0.28453814550E+03 -0.92101351133E+02  0.43892446069E+03  0.53113020750E+03  0.00000000000E+00 0. -1.
         22    1    3    3    0    0 -0.18087432262E+03  0.11802058068E+03  0.12543456964E+03  0.24975629984E+03  0.00000000000E+00 0.  1.
         22    1    3    3    0    0 -0.19763264374E+03  0.11554500773E+01  0.67458064516E+02  0.20883148088E+03  0.00000000000E+00 0.  1.
</event>
<event>
 7    1  0.4402832E-005  0.4219819E+03  0.7818608E-02  0.1239219E+00
          2   -1    0    0  502    0  0.00000000000E+00  0.00000000000E+00  0.26296694336E+04  0.26296694336E+04  0.00000000000E+00 0. -1.
          1   -1    0    0  501    0 -0.00000000000E+00 -0.00000000000E+00 -0.99087901036E+03  0.99087901036E+03  0.00000000000E+00 0. -1.
         25    2    1    2    0    0 -0.23885132934E+03 -0.30858185886E+03 -0.22212344292E+03  0.46608643176E+03  0.12500006731E+03 0.  0.
          2    1    1    2  501    0 -0.10499406749E+02 -0.33904313197E+02 -0.62837747571E+03  0.62937905270E+03  0.00000000000E+00 0. -1.
          1    1    1    2  502    0  0.24935073609E+03  0.34248617206E+03  0.24892913419E+04  0.25250829595E+04  0.00000000000E+00 0. -1.
         22    1    3    3    0    0 -0.44713642595E+02 -0.15758109857E+03 -0.89625143287E+02  0.18671844785E+03  0.00000000000E+00 0. -1.
         22    1    3    3    0    0 -0.19413768675E+03 -0.15100076030E+03 -0.13249829964E+03  0.27936798391E+03  0.00000000000E+00 0. -1.
</event>
<event>
 7    1  0.4402832E-005  0.2403849E+03  0.7818608E-02  0.1202913E+00
          2   -1    0    0  502    0  0.00000000000E+00  0.00000000000E+00  0.83092323542E+03  0.83092323542E+03  0.00000000000E+00 0. -1.
          1   -1    0    0  501    0 -0.00000000000E+00 -0.00000000000E+00 -0.15103727097E+03  0.15103727097E+03  0.00000000000E+00 0. -1.
         25    2    1    2    0    0 -0.10151545609E+03  0.26165267061E+03  0.20794120655E+03  0.37098677345E+03  0.12499653128E+03 0.  0.
          2    1    1    2  501    0  0.85299286687E+02 -0.32155251704E+02  0.60393967640E+01  0.91358649480E+02  0.00000000000E+00 0. -1.
          1    1    1    2  502    0  0.16216169400E+02 -0.22949741890E+03  0.46590536113E+03  0.51961508346E+03  0.00000000000E+00 0. -1.
         22    1    3    3    0    0 -0.11455973718E+03  0.13208349999E+03  0.97212581580E+02  0.20005066951E+03  0.00000000000E+00 0. -1.
         22    1    3    3    0    0  0.13044281091E+02  0.12956917062E+03  0.11072862497E+03  0.17093610394E+03  0.00000000000E+00 0. -1.
</event>
<event>
 7    1  0.4402832E-005  0.2914941E+03  0.7818608E-02  0.1182494E+00
          2   -1    0    0  502    0  0.00000000000E+00  0.00000000000E+00  0.15058395057E+04  0.15058395057E+04  0.00000000000E+00 0. -1.
          1   -1    0    0  501    0 -0.00000000000E+00 -0.00000000000E+00 -0.10862667754E+04  0.10862667754E+04  0.00000000000E+00 0. -1.
         25    2    1    2    0    0 -0.29155712439E+03 -0.11370036146E+02 -0.79729422837E+02  0.32728849784E+03  0.12500458171E+03 0.  0.
          2    1    1    2  501    0  0.27492853489E+03  0.10399058077E+03 -0.85661311805E+03  0.90564108465E+03  0.00000000000E+00 0. -1.
          1    1    1    2  502    0  0.16628589497E+02 -0.92620544622E+02  0.13559152712E+04  0.13591766986E+04  0.00000000000E+00 0. -1.
         22    1    3    3    0    0 -0.21042018141E+03  0.16901982824E+02 -0.10762722245E+03  0.23695136375E+03  0.00000000000E+00 0.  1.
         22    1    3    3    0    0 -0.81136942980E+02 -0.28272018970E+02  0.27897799616E+02  0.90337134093E+02  0.00000000000E+00 0.  1.
</event>
<event>
 7    1  0.4402832E-005  0.3561321E+03  0.7818608E-02  0.1191916E+00
          2   -1    0    0  502    0  0.00000000000E+00  0.00000000000E+00  0.17920729635E+04  0.17920729635E+04  0.00000000000E+00 0. -1.
          1   -1    0    0  501    0 -0.00000000000E+00 -0.00000000000E+00 -0.38737396126E+03  0.38737396126E+03  0.00000000000E+00 0. -1.
         25    2    1    2    0    0 -0.78754942036E+01 -0.31956294303E+03  0.89280989258E+03  0.95651309728E+03  0.12500121206E+03 0.  0.
          2    1    1    2  501    0 -0.50819744427E+02  0.35654329335E+03 -0.26236399618E+03  0.44557898621E+03  0.00000000000E+00 0. -1.
          1    1    1    2  502    0  0.58695238630E+02 -0.36980350317E+02  0.77425310589E+03  0.77735484132E+03  0.00000000000E+00 0. -1.
         22    1    3    3    0    0 -0.16679952667E+02 -0.53386703668E+02  0.59417085128E+02  0.81601170056E+02  0.00000000000E+00 0.  1.
         22    1    3    3    0    0  0.88044584634E+01 -0.26617623936E+03  0.83339280745E+03  0.87491192723E+03  0.00000000000E+00 0.  1.
</event>
<event>
 7    1  0.4402832E-005  0.4646304E+03  0.7818608E-02  0.1168062E+00
          2   -1    0    0  502    0  0.00000000000E+00  0.00000000000E+00  0.26878005767E+03  0.26878005767E+03  0.00000000000E+00 0. -1.
          1   -1    0    0  501    0 -0.00000000000E+00 -0.00000000000E+00 -0.16746783006E+04  0.16746783006E+04  0.00000000000E+00 0. -1.
         25    2    1    2    0    0  0.48874295643E+03 -0.88770212248E+02 -0.50204923044E+03  0.71723596860E+03  0.12499670725E+03 0.  0.
          2    1    1    2  501    0 -0.45008023508E+03  0.30985451011E+02 -0.10060733799E+04  0.11025951033E+04  0.00000000000E+00 0. -1.
          1    1    1    2  502    0 -0.38662721351E+02  0.57784761237E+02  0.10222436736E+03  0.12362728637E+03  0.00000000000E+00 0. -1.
         22    1    3    3    0    0  0.27485563420E+03 -0.79186800967E+02 -0.20876519671E+03  0.35411732018E+03  0.00000000000E+00 0.  1.
         22    1    3    3    0    0  0.21388732223E+03 -0.95834112809E+01 -0.29328403373E+03  0.36311864841E+03  0.00000000000E+00 0.  1.
</event>
<event>
 7    1  0.4402832E-005  0.5706921E+03  0.7818608E-02  0.1094885E+00
          2   -1    0    0  502    0  0.00000000000E+00  0.00000000000E+00  0.23586692230E+04  0.23586692230E+04  0.00000000000E+00 0. -1.
          1   -1    0    0  501    0 -0.00000000000E+00 -0.00000000000E+00 -0.13113810550E+04  0.13113810550E+04  0.00000000000E+00 0. -1.
         25    2    1    2    0    0  0.33855798160E+02  0.55237152695E+03 -0.54229608280E+03  0.78483936046E+03  0.12500904548E+03 0.  0.
          2    1    1    2  501    0  0.99742475214E+02 -0.59012717851E+03 -0.50679194655E+03  0.78424277189E+03  0.00000000000E+00 0. -1.
          1    1    1    2  502    0 -0.13359827337E+03  0.37755651560E+02  0.20963761974E+04  0.21009681456E+04  0.00000000000E+00 0. -1.
         22    1    3    3    0    0  0.45482096483E+02  0.15562755433E+03 -0.22146785536E+03  0.27447507670E+03  0.00000000000E+00 0.  1.
         22    1    3    3    0    0 -0.11626298323E+02  0.39674397262E+03 -0.32082822743E+03  0.51036428376E+03  0.00000000000E+00 0.  1.
</event>
<event>
 7    1  0.4402832E-005  0.2455080E+03  0.7818608E-02  0.1265108E+00
          2   -1    0    0  502    0  0.00000000000E+00  0.00000000000E+00  0.78229234861E+02  0.78229234861E+02  0.00000000000E+00 0. -1.
          1   -1    0    0  501    0 -0.00000000000E+00 -0.00000000000E+00 -0.20519238520E+04  0.20519238520E+04  0.00000000000E+00 0. -1.
         25    2    1    2    0    0 -0.85048074037E+02  0.26881832200E+03 -0.31594607905E+03  0.44152450730E+03  0.12500200213E+03 0.  0.
          2    1    1    2  501    0  0.58762693356E+02 -0.22968031212E+03 -0.94365423533E+03  0.97297965845E+03  0.00000000000E+00 0. -1.
          1    1    1    2  502    0  0.26285380680E+02 -0.39138009878E+02 -0.71409430275E+03  0.71564892110E+03  0.00000000000E+00 0. -1.
         22    1    3    3    0    0 -0.11601636490E+03  0.17926057805E+03 -0.22468920395E+03  0.30996675651E+03  0.00000000000E+00 0. -1.
         22    1    3    3    0    0  0.30968290860E+02  0.89557743949E+02 -0.91256875102E+02  0.13155775079E+03  0.00000000000E+00 0. -1.
</event>
<event>
 7    1  0.4402832E-005  0.1409633E+03  0.7818608E-02  0.1273801E+00
          2   -1    0    0  502    0  0.00000000000E+00  0.00000000000E+00  0.88627448772E+03  0.88627448772E+03  0.00000000000E+00 0. -1.
          1   -1    0    0  501    0 -0.00000000000E+00 -0.00000000000E+00 -0.11003639211E+03  0.11003639211E+03  0.00000000000E+00 0. -1.
         25    2    1    2    0    0 -0.35532548076E+02 -0.69389196739E+02  0.47117319127E+03  0.49366707309E+03  0.12500232111E+03 0.  0.
          2    1    1    2  501    0  0.97505733757E+02  0.11248563556E+03 -0.36140911074E+02  0.15318796224E+03  0.00000000000E+00 0. -1.
          1    1    1    2  502    0 -0.61973185681E+02 -0.43096438820E+02  0.34120581541E+03  0.34945584450E+03  0.00000000000E+00 0. -1.
         22    1    3    3    0    0 -0.12334727276E+01 -0.41948257593E+02  0.33237937151E+02  0.53534458399E+02  0.00000000000E+00 0.  1.
         22    1    3    3    0    0 -0.34299075348E+02 -0.27440939145E+02  0.43793525412E+03  0.44013261469E+03  0.00000000000E+00 0.  1.
</event>
<event>
 7    1  0.4402832E-005  0.1331979E+03  0.7818608E-02  0.1275361E+00
          2   -1    0    0  502    0  0.00000000000E+00  0.00000000000E+00  0.38802672529E+04  0.38802672529E+04  0.00000000000E+00 0. -1.
          1   -1    0    0  501    0 -0.00000000000E+00 -0.00000000000E+00 -0.65410513333E+02  0.65410513333E+02  0.00000000000E+00 0. -1.
         25    2    1    2    0    0  0.52394742475E+02  0.12913543386E+03  0.12185682690E+04  0.12328646059E+04  0.12500136410E+03 0.  0.
          2    1    1    2  501    0 -0.11052729704E+03 -0.76087358463E+02  0.20404600664E+02  0.13572736363E+03  0.00000000000E+00 0. -1.
          1    1    1    2  502    0  0.58132554564E+02 -0.53048075393E+02  0.25758838699E+04  0.25770857967E+04  0.00000000000E+00 0. -1.
         22    1    3    3    0    0  0.93913662429E+01  0.13704560706E+03  0.10394102843E+04  0.10484481080E+04  0.00000000000E+00 0.  1.
         22    1    3    3    0    0  0.43003376233E+02 -0.79101732029E+01  0.17915798474E+03  0.18441649792E+03  0.00000000000E+00 0.  1.
</event>
<event>
 7    1  0.4402832E-005  0.3636378E+03  0.7818608E-02  0.1139401E+00
          2   -1    0    0  502    0  0.00000000000E+00  0.00000000000E+00  0.28378714895E+04  0.28378714895E+04  0.00000000000E+00 0. -1.
          1   -1    0    0  501    0 -0.00000000000E+00 -0.00000000000E+00 -0.23209358468E+03  0.23209358468E+03  0.00000000000E+00 0. -1.
         25    2    1    2    0    0 -0.18117837627E+03  0.33995424962E+03 -0.58003666631E+01  0.40503547981E+03  0.12500239913E+03 0.  0.
          2    1    1    2  501    0  0.77775039927E+02 -0.27064949031E+03  0.78264743953E+03  0.83176746633E+03  0.00000000000E+00 0. -1.
          1    1    1    2  502    0  0.10340333634E+03 -0.69304759318E+02  0.18289308320E+04  0.18331621281E+04  0.00000000000E+00 0. -1.
         22    1    3    3    0    0 -0.24031365251E+02  0.17689683257E+03 -0.82855028055E+00  0.17852361856E+03  0.00000000000E+00 0. -1.
         22    1    3    3    0    0 -0.15714701102E+03  0.16305741706E+03 -0.49718163826E+01  0.22651186125E+03  0.00000000000E+00 0. -1.
</event>
<event>
 7    1  0.4402832E-005  0.5940273E+02  0.7818608E-02  0.1489616E+00
          2   -1    0    0  502    0  0.00000000000E+00  0.00000000000E+00  0.18796468197E+04  0.18796468197E+04  0.00000000000E+00 0. -1.
          1   -1    0    0  501    0 -0.00000000000E+00 -0.00000000000E+00 -0.36901488288E+03  0.36901488288E+03  0.00000000000E+00 0. -1.
         25    2    1    2    0    0 -0.76983947380E+02  0.42619817904E+02  0.29579624158E+02  0.15570166359E+03  0.12500030739E+03 0.  0.
          2    1    1    2  501    0  0.47568356087E+02 -0.34146031790E+02 -0.30301970982E+03  0.30862541134E+03  0.00000000000E+00 0. -1.
          1    1    1    2  502    0  0.29415591293E+02 -0.84737861139E+01  0.17840720225E+04  0.17843346277E+04  0.00000000000E+00 0. -1.
         22    1    3    3    0    0  0.32340861771E+02 -0.65126270012E+01  0.53987400723E+01  0.33428910316E+02  0.00000000000E+00 0. -1.
         22    1    3    3    0    0 -0.10932480915E+03  0.49132444905E+02  0.24180884086E+02  0.12227275327E+03  0.00000000000E+00 0. -1.
</event>
<event>
 7    1  0.4402832E-005  0.1168250E+04  0.7818608E-02  0.1119963E+00
          2   -1    0    0  502    0  0.00000000000E+00  0.00000000000E+00  0.33282522398E+04  0.33282522398E+04  0.00000000000E+00 0. -1.
          1   -1    0    0  501    0 -0.00000000000E+00 -0.00000000000E+00 -0.65242160101E+03  0.65242160101E+03  0.00000000000E+00 0. -1.
         25    2    1    2    0    0 -0.95951677099E+03 -0.71460838406E+03  0.83334477566E+03  0.14633586925E+04  0.12497028218E+03 0.  0.
          2    1    1    2  501    0  0.48989731908E+02  0.45392876179E+01 -0.18099661250E+03  0.18756431617E+03  0.00000000000E+00 0. -1.
          1    1    1    2  502    0  0.91052703908E+03  0.71006909644E+03  0.20234824756E+04  0.23297508321E+04  0.00000000000E+00 0. -1.
         22    1    3    3    0    0 -0.11033155755E+03 -0.13121844069E+03  0.96748396790E+02  0.19685422030E+03  0.00000000000E+00 0.  1.
         22    1    3    3    0    0 -0.84918521344E+03 -0.58338994337E+03  0.73659637887E+03  0.12665044722E+04  0.00000000000E+00 0.  1.
</event>
<event>
 7    1  0.4402832E-005  0.4842353E+03  0.7818608E-02  0.1164870E+00
          2   -1    0    0  502    0  0.00000000000E+00  0.00000000000E+00  0.81281080691E+03  0.81281080691E+03  0.00000000000E+00 0. -1.
          1   -1    0    0  501    0 -0.00000000000E+00 -0.00000000000E+00 -0.16093745581E+04  0.16093745581E+04  0.00000000000E+00 0. -1.
         25    2    1    2    0    0 -0.48310963237E+03 -0.82549616502E+02 -0.10057362253E+04  0.11257618121E+04  0.12499978657E+03 0.  0.
          2    1    1    2  501    0  0.45426529501E+03  0.14545891744E+03 -0.43679155186E+03  0.64676279631E+03  0.00000000000E+00 0. -1.
          1    1    1    2  502    0  0.28844337353E+02 -0.62909300936E+02  0.64596402591E+03  0.64966075664E+03  0.00000000000E+00 0. -1.
         22    1    3    3    0    0 -0.13170137445E+03 -0.55071903598E+02 -0.19455596702E+03  0.24130932618E+03  0.00000000000E+00 0.  1.
         22    1    3    3    0    0 -0.35140825792E+03 -0.27477712905E+02 -0.81118025825E+03  0.88445248590E+03  0.00000000000E+00 0.  1.
</event>
<event>
 7    1  0.4402832E-005  0.5289785E+03  0.7818608E-02  0.1009612E+00
          2   -1    0    0  502    0  0.00000000000E+00  0.00000000000E+00  0.51931151206E+03  0.51931151206E+03  0.00000000000E+00 0. -1.
          1   -1    0    0  501    0 -0.00000000000E+00 -0.00000000000E+00 -0.25974650531E+04  0.25974650531E+04  0.00000000000E+00 0. -1.
         25    2    1    2    0    0  0.22334283283E+03 -0.71708782057E+03 -0.62796856220E+03  0.98694796183E+03  0.12499920339E+03 0.  0.
          2    1    1    2  501    0 -0.43952474155E+03  0.26190916305E+03 -0.15357254361E+04  0.16187127674E+04  0.00000000000E+00 0. -1.
          1    1    1    2  502    0  0.21618190871E+03  0.45517865752E+03  0.85540457289E+02  0.51111583594E+03  0.00000000000E+00 0. -1.
         22    1    3    3    0    0  0.17958181510E+03 -0.53995910024E+03 -0.53966933470E+03  0.78425024646E+03  0.00000000000E+00 0.  1.
         22    1    3    3    0    0  0.43761017740E+02 -0.17712872033E+03 -0.88299227497E+02  0.20269771537E+03  0.00000000000E+00 0.  1.
</event>
<event>
 7    1  0.4402832E-005  0.3533573E+03  0.7818608E-02  0.1244675E+00
          2   -1    0    0  502    0  0.00000000000E+00  0.00000000000E+00  0.18713082417E+04  0.18713082417E+04  0.00000000000E+00 0. -1.
          1   -1    0    0  501    0 -0.00000000000E+00 -0.00000000000E+00 -0.80798599887E+03  0.80798599887E+03  0.00000000000E+00 0. -1.
         25    2    1    2    0    0 -0.36357091030E+03 -0.60865442553E+02  0.32507229868E+03  0.50713422316E+03  0.12499884808E+03 0.  0.
          2    1    1    2  501    0  0.35121503430E+03  0.22707642104E+02 -0.67346078464E+03  0.75987963901E+03  0.00000000000E+00 0. -1.
          1    1    1    2  502    0  0.12355876002E+02  0.38157800449E+02  0.14117107288E+04  0.14122803784E+04  0.00000000000E+00 0. -1.
         22    1    3    3    0    0 -0.26138342677E+03  0.14852356409E+02  0.21003463526E+03  0.33564331707E+03  0.00000000000E+00 0.  1.
         22    1    3    3    0    0 -0.10218748353E+03 -0.75717798962E+02  0.11503766342E+03  0.17149090609E+03  0.00000000000E+00 0.  1.
</event>
<event>
 7    1  0.4402832E-005  0.9728038E+03  0.7818608E-02  0.1150182E+00
          2   -1    0    0  502    0  0.00000000000E+00  0.00000000000E+00  0.40739955155E+04  0.40739955155E+04  0.00000000000E+00 0. -1.
          1   -1    0    0  501    0 -0.00000000000E+00 -0.00000000000E+00 -0.13189866927E+04  0.13189866927E+04  0.00000000000E+00 0. -1.
         25    2    1    2    0    0  0.48606736222E+03 -0.82682770148E+03  0.23815646600E+04  0.25704840241E+04  0.12502943547E+03 0.  0.
          2    1    1    2  501    0  0.16730228837E+01 -0.40868833028E+02 -0.10690908029E+04  0.10698729856E+04  0.00000000000E+00 0. -1.
          1    1    1    2  502    0 -0.48774038510E+03  0.86769653451E+03  0.14425349657E+04  0.17526251985E+04  0.00000000000E+00 0. -1.
         22    1    3    3    0    0  0.40647948268E+03 -0.59920086331E+03  0.18561770263E+04  0.19924006619E+04  0.00000000000E+00 0.  1.
         22    1    3    3    0    0  0.79587879540E+02 -0.22762683817E+03  0.52538763370E+03  0.57808336221E+03  0.00000000000E+00 0.  1.
</event>
<event>
 7    1  0.4402832E-005  0.7661734E+03  0.7818608E-02  0.1118708E+00
          2   -1    0    0  502    0  0.00000000000E+00  0.00000000000E+00  0.65901528412E+03  0.65901528412E+03  0.00000000000E+00 0. -1.
          1   -1    0    0  501    0 -0.00000000000E+00 -0.00000000000E+00 -0.18589007951E+04  0.18589007951E+04  0.00000000000E+00 0. -1.
         25    2    1    2    0    0  0.81993118656E+03  0.11321526876E+03 -0.14012614954E+04  0.16322568497E+04  0.12499518820E+03 0.  0.
          2    1    1    2  501    0 -0.75241262720E+02  0.12092682255E+02 -0.48384299605E+02  0.90269158787E+02  0.00000000000E+00 0. -1.
          1    1    1    2  502    0 -0.74468992384E+03 -0.12530795102E+03  0.24976028399E+03  0.79539007079E+03  0.00000000000E+00 0. -1.
         22    1    3    3    0    0  0.46446360060E+03  0.10474496376E+03 -0.89246174133E+03  0.10115265214E+04  0.00000000000E+00 0. -1.
         22    1    3    3    0    0  0.35546758595E+03  0.84703049969E+01 -0.50879975407E+03  0.62073032830E+03  0.00000000000E+00 0. -1.
</event>
<event>
 7    1  0.4402832E-005  0.1513967E+04  0.7818608E-02  0.1135795E+00
          2   -1    0    0  502    0  0.00000000000E+00  0.00000000000E+00  0.22501827909E+04  0.22501827909E+04  0.00000000000E+00 0. -1.
          1   -1    0    0  501    0 -0.00000000000E+00 -0.00000000000E+00 -0.18599847644E+04  0.18599847644E+04  0.00000000000E+00 0. -1.
         25    2    1    2    0    0 -0.51146956966E+03  0.14446914484E+04  0.11161103005E+03  0.15416926948E+04  0.12499936553E+03 0.  0.
          2    1    1    2  501    0  0.20719236657E+02 -0.23372109148E+02 -0.74745348056E+03  0.74810577317E+03  0.00000000000E+00 0. -1.
          1    1    1    2  502    0  0.49075033301E+03 -0.14213193393E+04  0.10260404769E+04  0.18203690873E+04  0.00000000000E+00 0. -1.
         22    1    3    3    0    0 -0.37510377221E+03  0.88111515823E+03  0.80684600173E+02  0.96102901449E+03  0.00000000000E+00 0.  1.
         22    1    3    3    0    0 -0.13636579745E+03  0.56357629022E+03  0.30926429872E+02  0.58066368035E+03  0.00000000000E+00 0.  1.
</event>
<event>
 7    1  0.4402832E-005  0.8080571E+02  0.7818608E-02  0.1397576E+00
          2   -1    0    0  502    0  0.00000000000E+00  0.00000000000E+00  0.60462662546E+02  0.60462662546E+02  0.00000000000E+00 0. -1.
          1   -1    0    0  501    0 -0.00000000000E+00 -0.00000000000E+00 -0.17194657351E+04  0.17194657351E+04  0.00000000000E+00 0. -1.
         25    2    1    2    0    0 -0.41212387986E+02  0.12270593220E+02 -0.78006970298E+03  0.79119501071E+03  0.12502709741E+03 0.  0.
          2    1    1    2  501    0 -0.41028597286E+02 -0.17593957430E+02 -0.90203867285E+03  0.90314265787E+03  0.00000000000E+00 0. -1.
          1    1    1    2  502    0  0.82240985272E+02  0.53233642104E+01  0.23105303270E+02  0.85590729079E+02  0.00000000000E+00 0. -1.
         22    1    3    3    0    0 -0.77100329562E+01 -0.12375957097E+02 -0.70674738995E+03  0.70689778761E+03  0.00000000000E+00 0. -1.
         22    1    3    3    0    0 -0.33502355030E+02  0.24646550316E+02 -0.73322313025E+02  0.84297223100E+02  0.00000000000E+00 0. -1.
</event>
<event>
 7    1  0.4402832E-005  0.3909431E+03  0.7818608E-02  0.1152515E+00
          2   -1    0    0  502    0  0.00000000000E+00  0.00000000000E+00  0.36652555158E+03  0.36652555158E+03  0.00000000000E+00 0. -1.
          1   -1    0    0  501    0 -0.00000000000E+00 -0.00000000000E+00 -0.64064559671E+03  0.64064559671E+03  0.00000000000E+00 0. -1.
         25    2    1    2    0    0 -0.21316860297E+03 -0.32953133372E+03  0.23572662771E+02  0.41256849782E+03  0.12500136708E+03 0.  0.
          2    1    1    2  501    0 -0.78032642682E+02  0.60946713907E+02 -0.13245367180E+03  0.16537100844E+03  0.00000000000E+00 0. -1.
          1    1    1    2  502    0  0.29120124565E+03  0.26858461981E+03 -0.16523903610E+03  0.42923164203E+03  0.00000000000E+00 0. -1.
         22    1    3    3    0    0 -0.82119033666E+02 -0.14830852963E+03  0.71268525080E+02  0.18389714059E+03  0.00000000000E+00 0. -1.
         22    1    3    3    0    0 -0.13104956930E+03 -0.18122280409E+03 -0.47695862309E+02  0.22867135723E+03  0.00000000000E+00 0. -1.
</event>
<event>
 7    1  0.4402832E-005  0.5384121E+03  0.7818608E-02  0.1168518E+00
          2   -1    0    0  502    0  0.00000000000E+00  0.00000000000E+00  0.25004859140E+04  0.25004859140E+04  0.00000000000E+00 0. -1.
          1   -1    0    0  501    0 -0.00000000000E+00 -0.00000000000E+00 -0.14356434154E+04  0.14356434154E+04  0.00000000000E+00 0. -1.
         25    2    1    2    0    0 -0.52459663985E+03 -0.17452876350E+03 -0.89565003675E+03  0.10599414772E+04  0.12500009192E+03 0.  0.
          2    1    1    2  501    0  0.47230893243E+03  0.20330973058E+03 -0.31295543925E+03  0.60195654424E+03  0.00000000000E+00 0. -1.
          1    1    1    2  502    0  0.52287707421E+02 -0.28780967075E+02  0.22734479746E+04  0.22742313079E+04  0.00000000000E+00 0. -1.
         22    1    3    3    0    0 -0.15997723105E+03 -0.24192005977E+01 -0.31098307267E+03  0.34972709142E+03  0.00000000000E+00 0.  1.
         22    1    3    3    0    0 -0.36461940880E+03 -0.17210956290E+03 -0.58466696408E+03  0.71021438580E+03  0.00000000000E+00 0.  1.
</event>
<event>
 7    1  0.4402832E-005  0.1267267E+03  0.7818608E-02  0.1328039E+00
          2   -1    0    0  502    0  0.00000000000E+00  0.00000000000E+00  0.16890127242E+03  0.16890127242E+03  0.00000000000E+00 0. -1.
          1   -1    0    0  501    0 -0.00000000000E+00 -0.00000000000E+00 -0.61475939965E+03  0.61475939965E+03  0.00000000000E+00 0. -1.
         25    2    1    2    0    0  0.13660730381E+03 -0.26329887035E+02 -0.15774452977E+03  0.24467133343E+03  0.12500362523E+03 0.  0.
          2    1    1    2  501    0 -0.12667938063E+02  0.49355226845E+02 -0.37974288330E+03  0.38314628080E+03  0.00000000000E+00 0. -1.
          1    1    1    2  502    0 -0.12393936575E+03 -0.23025339810E+02  0.91629285841E+02  0.15584305785E+03  0.00000000000E+00 0. -1.
         22    1    3    3    0    0  0.93939806064E+01  0.23145714455E+02  0.11285635655E+02  0.27410518809E+02  0.00000000000E+00 0.  1.
         22    1    3    3    0    0  0.12721332321E+03 -0.49475601490E+02 -0.16903016543E+03  0.21726081462E+03  0.00000000000E+00 0.  1.
</event>
<event>
 7    1  0.4402832E-005  0.2699206E+03  0.7818608E-02  0.1108705E+00
          2   -1    0    0  502    0  0.00000000000E+00  0.00000000000E+00  0.11606613892E+04  0.11606613892E+04  0.00000000000E+00 0. -1.
          1   -1    0    0  501    0 -0.00000000000E+00 -0.00000000000E+00 -0.35198805634E+03  0.35198805634E+03  0.00000000000E+00 0. -1.
         25    2    1    2    0    0 -0.28222450756E+02 -0.35339202942E+03  0.47312049929E+03  0.60427660002E+03  0.12499907720E+03 0.  0.
          2    1    1    2  501    0  0.19273774015E+03  0.15204896179E+03 -0.19763885494E+03  0.31516319620E+03  0.00000000000E+00 0. -1.
          1    1    1    2  502    0 -0.16451528940E+03  0.20134306763E+03  0.53319168848E+03  0.59320964927E+03  0.00000000000E+00 0. -1.
         22    1    3    3    0    0 -0.52028754002E+01  0.29566436564E+00 -0.62290790104E+01  0.81214995638E+01  0.00000000000E+00 0.  1.
         22    1    3    3    0    0 -0.23019575356E+02 -0.35368769378E+03  0.47934957830E+03  0.59615510046E+03  0.00000000000E+00 0.  1.
</event>
<event>
 7    1  0.4402832E-005  0.6945665E+03  0.7818608E-02  0.1186225E+00
          2   -1    0    0  502    0  0.00000000000E+00  0.00000000000E+00  0.11160323419E+04  0.11160323419E+04  0.00000000000E+00 0. -1.
          1   -1    0    0  501    0 -0.00000000000E+00 -0.00000000000E+00 -0.15917801111E+04  0.15917801111E+04  0.00000000000E+00 0. -1.
         25    2    1    2    0    0 -0.55433302505E+03  0.41566056878E+03  0.80744826288E+03  0.10712874879E+04  0.12500149390E+03 0.  0.
          2    1    1    2  501    0  0.13291619827E+02  0.35474061018E+02 -0.75524673735E+03  0.75619621160E+03  0.00000000000E+00 0. -1.
          1    1    1    2  502    0  0.54104140522E+03 -0.45113462980E+03 -0.52794929471E+03  0.88032875345E+03  0.00000000000E+00 0. -1.
         22    1    3    3    0    0 -0.35253087534E+03  0.19854219322E+03  0.51457289851E+03  0.65458558527E+03  0.00000000000E+00 0. -1.
         22    1    3    3    0    0 -0.20180214971E+03  0.21711837556E+03  0.29287536437E+03  0.41670190267E+03  0.00000000000E+00 0. -1.
</event>
<event>
 7    1  0.4402832E-005  0.9153217E+02  0.7818608E-02  0.1319722E+00
          2   -1    0    0  502    0  0.00000000000E+00  0.00000000000E+00  0.11208943353E+04  0.11208943353E+04  0.00000000000E+00 0. -1.
          1   -1    0    0  501    0 -0.00000000000E+00 -0.00000000000E+00 -0.30549301121E+02  0.30549301121E+02  0.00000000000E+00 0. -1.
         25    2    1    2    0    0 -0.30413728189E+02  0.50493534467E+02  0.23649431594E+03  0.27391409712E+03  0.12499911699E+03 0.  0.
          2    1    1    2  501    0  0.59843384542E+02  0.46775962674E+02  0.17036379861E+03  0.18652893940E+03  0.00000000000E+00 0. -1.
          1    1    1    2  502    0 -0.29429656353E+02 -0.97269497141E+02  0.68348691962E+03  0.69100059988E+03  0.00000000000E+00 0. -1.
         22    1    3    3    0    0 -0.63875627912E+01  0.90678722400E+02  0.14505902439E+03  0.17118864510E+03  0.00000000000E+00 0.  1.
         22    1    3    3    0    0 -0.24026165397E+02 -0.40185187933E+02  0.91435291548E+02  0.10272545202E+03  0.00000000000E+00 0.  1.
</event>
<event>
 7    1  0.4402832E-005  0.7217816E+03  0.7818608E-02  0.1164559E+00
          2   -1    0    0  502    0  0.00000000000E+00  0.00000000000E+00  0.15617760543E+04  0.15617760543E+04  0.00000000000E+00 0. -1.
          1   -1    0    0  501    0 -0.00000000000E+00 -0.00000000000E+00 -0.55460713798E+03  0.55460713798E+03  0.00000000000E+00 0. -1.
         25    2    1    2    0    0 -0.33384001153E+03  0.64392316736E+03  0.68811068720E+03  0.10075748998E+04  0.12499864813E+03 0.  0.
          2    1    1    2  501    0  0.44507434604E+02  0.13797866135E+02 -0.21088751587E+03  0.21597415863E+03  0.00000000000E+00 0. -1.
          1    1    1    2  502    0  0.28933257693E+03 -0.65772103350E+03  0.52994574495E+03  0.89283413385E+03  0.00000000000E+00 0. -1.
         22    1    3    3    0    0 -0.22568084847E+03  0.39645358203E+03  0.50897345941E+03  0.68349196810E+03  0.00000000000E+00 0. -1.
         22    1    3    3    0    0 -0.10815916306E+03  0.24746958533E+03  0.17913722779E+03  0.32408293167E+03  0.00000000000E+00 0. -1.
</event>
<event>
 7    1  0.4402832E-005  0.3756053E+03  0.7818608E-02  0.1168576E+00
          2   -1    0    0  502    0  0.00000000000E+00  0.00000000000E+00  0.61476005291E+03  0.61476005291E+03  0.00000000000E+00 0. -1.
          1   -1    0    0  501    0 -0.00000000000E+00 -0.00000000000E+00 -0.57775659112E+03  0.57775659112E+03  0.00000000000E+00 0. -1.
         25    2    1    2    0    0  0.92877927552E+02 -0.34319534359E+03 -0.28309902389E+03  0.47136277774E+03  0.12501382973E+03 0.  0.
          2    1    1    2  501    0 -0.15924877594E+03  0.39709362973E+03  0.41635721940E+02  0.42985701896E+03  0.00000000000E+00 0. -1.
          1    1    1    2  502    0  0.66370848386E+02 -0.53898286138E+02  0.27846676373E+03  0.29129684734E+03  0.00000000000E+00 0. -1.
         22    1    3    3    0    0  0.10036589821E+03 -0.27338686476E+03 -0.16707412043E+03  0.33574909243E+03  0.00000000000E+00 0. -1.
         22    1    3    3    0    0 -0.74879706628E+01 -0.69808478824E+02 -0.11602490346E+03  0.13561368531E+03  0.00000000000E+00 0. -1.
</event>
<event>
 7    1  0.4402832E-005  0.2226506E+03  0.7818608E-02  0.1139445E+00
          2   -1    0    0  502    0  0.00000000000E+00  0.00000000000E+00  0.20967182037E+04  0.20967182037E+04  0.00000000000E+00 0. -1.
          1   -1    0    0  501    0 -0.00000000000E+00 -0.00000000000E+00 -0.13818734297E+03  0.13818734297E+03  0.00000000000E+00 0. -1.
         25    2    1    2    0    0 -0.23959757126E+03  0.48135508393E+02  0.69200902364E+02  0.28308578181E+03  0.12499908662E+03 0.  0.
          2    1    1    2  501    0  0.17202423653E+03  0.14349452477E+03  0.50235562028E+03  0.55004016746E+03  0.00000000000E+00 0. -1.
          1    1    1    2  502    0  0.67573334729E+02 -0.19163003316E+03  0.13869743381E+04  0.14017795974E+04  0.00000000000E+00 0. -1.
         22    1    3    3    0    0 -0.23347894782E+03  0.76172793470E+02  0.58529020420E+02  0.25246853224E+03  0.00000000000E+00 0. -1.
         22    1    3    3    0    0 -0.61186234437E+01 -0.28037285078E+02  0.10671881944E+02  0.30617249576E+02  0.00000000000E+00 0. -1.
</event>
<event>
 7    1  0.4402832E-005  0.2423426E+03  0.7818608E-02  0.1175198E+00
          2   -1    0    0  502    0  0.00000000000E+00  0.00000000000E+00  0.10868998475E+04  0.10868998475E+04  0.00000000000E+00 0. -1.
          1   -1    0    0  501    0 -0.00000000000E+00 -0.00000000000E+00 -0.82127719881E+03  0.82127719881E+03  0.00000000000E+00 0. -1.
         25    2    1    2    0    0 -0.29724787224E+03  0.25627074928E+02  0.21574171084E+03  0.38882304432E+03  0.12500331786E+03 0.  0.
          2    1    1    2  501    0  0.73975418968E+02 -0.98117102915E+02 -0.71179556897E+03  0.72232420734E+03  0.00000000000E+00 0. -1.
          1    1    1    2  502    0  0.22327245327E+03  0.72490027987E+02  0.76167650686E+03  0.79702979471E+03  0.00000000000E+00 0. -1.
         22    1    3    3    0    0 -0.99718963891E+01  0.19477066423E+01 -0.16010217489E+02  0.18962050069E+02  0.00000000000E+00 0.  1.
         22    1    3    3    0    0 -0.28727597585E+03  0.23679368286E+02  0.23175192833E+03  0.36986099425E+03  0.00000000000E+00 0.  1.
</event>
<event>
 7    1  0.4402832E-005  0.8897276E+02  0.7818608E-02  0.1396187E+00
          2   -1    0    0  502    0  0.00000000000E+00  0.00000000000E+00  0.24660416944E+04  0.24660416944E+04  0.00000000000E+00 0. -1.
          1   -1    0    0  501    0 -0.00000000000E+00 -0.00000000000E+00 -0.14856090447E+02  0.14856090447E+02  0.00000000000E+00 0. -1.
         25    2    1    2    0    0 -0.16960141078E+01 -0.79401283338E+02  0.87890017808E+03  0.89129027377E+03  0.12500155532E+03 0.  0.
          2    1    1    2  501    0 -0.38878951925E+02  0.85251806984E+02  0.25476003335E+03  0.27144450278E+03  0.00000000000E+00 0. -1.
          1    1    1    2  502    0  0.40574966032E+02 -0.58505236464E+01  0.13175253925E+04  0.13181630083E+04  0.00000000000E+00 0. -1.
         22    1    3    3    0    0 -0.56603763828E+02 -0.47708110271E+02  0.63439444533E+03  0.63869896049E+03  0.00000000000E+00 0. -1.
         22    1    3    3    0    0  0.54907749720E+02 -0.31693173066E+02  0.24450573275E+03  0.25259131328E+03  0.00000000000E+00 0. -1.
</event>
<event>
 7    1  0.4402832E-005  0.2190522E+03  0.7818608E-02  0.1228260E+00
          2   -1    0    0  502    0  0.00000000000E+00  0.00000000000E+00  0.46343595749E+03  0.46343595749E+03  0.00000000000E+00 0. -1.
          1   -1    0    0  501    0 -0.00000000000E+00 -0.00000000000E+00 -0.37622945712E+03  0.37622945712E+03  0.00000000000E+00 0. -1.
         25    2    1    2    0    0  0.11511644978E+03 -0.24949779467E+03  0.28370818989E+03  0.41426449498E+03  0.12499515283E+03 0.  0.
          2    1    1    2  501    0 -0.12405729635E+03  0.17351135670E+03 -0.25253916854E+03  0.33056381430E+03  0.00000000000E+00 0. -1.
          1    1    1    2  502    0  0.89408465690E+01  0.75986437973E+02  0.56037479018E+02  0.94837105332E+02  0.00000000000E+00 0. -1.
         22    1    3    3    0    0  0.10966410345E+03 -0.99921527992E+02  0.10833754611E+03  0.18370506590E+03  0.00000000000E+00 0.  1.
         22    1    3    3    0    0  0.54523463340E+01 -0.14957626668E+03  0.17537064379E+03  0.23055942908E+03  0.00000000000E+00 0.  1.
</event>
<event>
 7    1  0.4402832E-005  0.1020128E+03  0.7818608E-02  0.1308354E+00
          2   -1    0    0  502    0  0.00000000000E+00  0.00000000000E+00  0.24608170935E+04  0.24608170935E+04  0.00000000000E+00 0. -1.
          1   -1    0    0  501    0 -0.00000000000E+00 -0.00000000000E+00 -0.84861170836E+02  0.84861170836E+02  0.00000000000E+00 0. -1.
         25    2    1    2    0    0 -0.27559935801E+02 -0.73261659119E+02  0.70174533961E+02  0.16333260833E+03  0.12500501978E+03 0.  0.
          2    1    1    2  501    0  0.72970309711E+02 -0.19412829207E+02  0.12644213119E+01  0.75519022758E+02  0.00000000000E+00 0. -1.
          1    1    1    2  502    0 -0.45410373910E+02  0.92674488326E+02  0.23045169674E+04  0.23068266333E+04  0.00000000000E+00 0. -1.
         22    1    3    3    0    0 -0.66844651740E+01 -0.66748225020E+02  0.10358051513E+03  0.12340555390E+03  0.00000000000E+00 0.  1.
         22    1    3    3    0    0 -0.20875470627E+02 -0.65134340991E+01 -0.33405981173E+02  0.39927054434E+02  0.00000000000E+00 0.  1.
</event>
<event>
 7    1  0.4402832E-005  0.3873950E+03  0.7818608E-02  0.1088989E+00
          2   -1    0    0  502    0  0.00000000000E+00  0.00000000000E+00  0.13095811140E+04  0.13095811140E+04  0.00000000000E+00 0. -1.
          1   -1    0    0  501    0 -0.00000000000E+00 -0.00000000000E+00 -0.46403273847E+03  0.46403273847E+03  0.00000000000E+00 0. -1.
         25    2    1    2    0    0  0.21978533493E+03  0.50140553095E+03  0.10129150100E+04  0.11581600685E+04  0.12499930761E+03 0.  0.
          2    1    1    2  501    0 -0.43905649128E+02 -0.36753450621E+03 -0.12269329323E+03  0.38995251439E+03  0.00000000000E+00 0. -1.
          1    1    1    2  502    0 -0.17587968580E+03 -0.13387102475E+03 -0.44673341266E+02  0.22550126954E+03  0.00000000000E+00 0. -1.
         22    1    3    3    0    0  0.95659441178E+02  0.32078661237E+03  0.51609507710E+03  0.61514950050E+03  0.00000000000E+00 0. -1.
         22    1    3    3    0    0  0.12412589375E+03  0.18061891859E+03  0.49681993288E+03  0.54301056799E+03  0.00000000000E+00 0. -1.
</event>
<event>
 7    1  0.4402832E-005  0.3565835E+03  0.7818608E-02  0.1164944E+00
          2   -1    0    0  502    0  0.00000000000E+00  0.00000000000E+00  0.68025934817E+03  0.68025934817E+03  0.00000000000E+00 0. -1.
          1   -1    0    0  501    0 -0.00000000000E+00 -0.00000000000E+00 -0.17485175336E+04  0.17485175336E+04  0.00000000000E+00 0. -1.
         25    2    1    2    0    0 -0.21692389282E+02  0.36564151892E+03 -0.37914990756E+02  0.38887866022E+03  0.12499914296E+03 0.  0.
          2    1    1    2  501    0  0.11167587230E+03 -0.33879715848E+03 -0.15097804492E+04  0.15513516751E+04  0.00000000000E+00 0. -1.
          1    1    1    2  502    0 -0.89983483013E+02 -0.26844360434E+02  0.47943725458E+03  0.48854654639E+03  0.00000000000E+00 0. -1.
         22    1    3    3    0    0  0.47827781557E+02  0.22542555329E+03 -0.26416672078E+02  0.23195261872E+03  0.00000000000E+00 0. -1.
         22    1    3    3    0    0 -0.69520170839E+02  0.14021596563E+03 -0.11498318677E+02  0.15692604150E+03  0.00000000000E+00 0. -1.
</event>
<event>
 7    1  0.4402832E-005  0.3143037E+03  0.7818608E-02  0.1233767E+00
          2   -1    0    0  502    0  0.00000000000E+00  0.00000000000E+00  0.46922523861E+03  0.46922523861E+03  0.00000000000E+00 0. -1.
          1   -1    0    0  501    0 -0.00000000000E+00 -0.00000000000E+00 -0.13966845589E+04  0.13966845589E+04  0.00000000000E+00 0. -1.
         25    2    1    2    0    0 -0.25233131657E+03  0.13820917329E+03 -0.40823924065E+03  0.51483485003E+03  0.12499110486E+03 0.  0.
          2    1    1    2  501    0  0.27290177396E+03 -0.18419937119E+03 -0.90447579837E+03  0.96253896358E+03  0.00000000000E+00 0. -1.
          1    1    1    2  502    0 -0.20570457389E+02  0.45990197898E+02  0.38525571870E+03  0.38853598393E+03  0.00000000000E+00 0. -1.
         22    1    3    3    0    0 -0.20335962061E+03  0.16126708934E+03 -0.33623009483E+03  0.42475038089E+03  0.00000000000E+00 0. -1.
         22    1    3    3    0    0 -0.48971695963E+02 -0.23057916049E+02 -0.72009145822E+02  0.90084469139E+02  0.00000000000E+00 0. -1.
</event>
<event>
 7    1  0.4402832E-005  0.6620391E+03  0.7818608E-02  0.1225572E+00
          2   -1    0    0  502    0  0.00000000000E+00  0.00000000000E+00  0.32090348125E+04  0.32090348125E+04  0.00000000000E+00 0. -1.
          1   -1    0    0  501    0 -0.00000000000E+00 -0.00000000000E+00 -0.90803609128E+03  0.90803609128E+03  0.00000000000E+00 0. -1.
         25    2    1    2    0    0 -0.61610665301E+03 -0.23288603663E+03  0.25502129431E+04  0.26368607609E+04  0.12500121167E+03 0.  0.
          2    1    1    2  501    0 -0.23417265948E+02  0.11369755305E+02 -0.67833430386E+03  0.67883360809E+03  0.00000000000E+00 0. -1.
          1    1    1    2  502    0  0.63952391896E+03  0.22151628132E+03  0.42912008190E+03  0.80137653478E+03  0.00000000000E+00 0. -1.
         22    1    3    3    0    0 -0.44524188383E+03 -0.18548894006E+03  0.20554217595E+04  0.21112567564E+04  0.00000000000E+00 0. -1.
         22    1    3    3    0    0 -0.17086476918E+03 -0.47397096563E+02  0.49479118359E+03  0.52560400443E+03  0.00000000000E+00 0. -1.
</event>
<event>
 7    1  0.4402832E-005  0.6848131E+03  0.7818608E-02  0.1234053E+00
          2   -1    0    0  502    0  0.00000000000E+00  0.00000000000E+00  0.11471438573E+04  0.11471438573E+04  0.00000000000E+00 0. -1.
          1   -1    0    0  501    0 -0.00000000000E+00 -0.00000000000E+00 -0.13693121169E+04  0.13693121169E+04  0.00000000000E+00 0. -1.
         25    2    1    2    0    0 -0.32944815080E+03 -0.60274769890E+03  0.71356953698E+03  0.99832220593E+03  0.12499948062E+03 0.  0.
          2    1    1    2  501    0  0.22812370163E+02 -0.33385451266E+01 -0.83046497568E+03  0.83078494567E+03  0.00000000000E+00 0. -1.
          1    1    1    2  502    0  0.30663578063E+03  0.60608624402E+03 -0.10527282083E+03  0.68734882262E+03  0.00000000000E+00 0. -1.
         22    1    3    3    0    0 -0.11261941107E+03 -0.31593552989E+03  0.39243554670E+03  0.51624030171E+03  0.00000000000E+00 0.  1.
         22    1    3    3    0    0 -0.21682873972E+03 -0.28681216901E+03  0.32113399028E+03  0.48208190422E+03  0.00000000000E+00 0.  1.
</event>
<event>
 7    1  0.4402832E-005  0.2336514E+03  0.7818608E-02  0.1154171E+00
          2   -1    0    0  502    0  0.00000000000E+00  0.00000000000E+00  0.23074553818E+04  0.23074553818E+04  0.00000000000E+00 0. -1.
          1   -1    0    0  501    0 -0.00000000000E+00 -0.00000000000E+00 -0.29363573445E+03  0.29363573445E+03  0.00000000000E+00 0. -1.
         25    2    1    2    0    0 -0.32974755263E+03  0.26757236982E+02  0.12841189165E+04  0.13319297684E+04  0.12500447258E+03 0.  0.
          2    1    1    2  501    0  0.15123202104E+03  0.59367333674E+02 -0.23423210103E+03  0.28506189091E+03  0.00000000000E+00 0. -1.
          1    1    1    2  502    0  0.17851553159E+03 -0.86124570656E+02  0.96393283196E+03  0.98409945698E+03  0.00000000000E+00 0. -1.
         22    1    3    3    0    0 -0.17731136621E+03  0.52762677393E+02  0.50997667366E+03  0.54249371277E+03  0.00000000000E+00 0. -1.
         22    1    3    3    0    0 -0.15243618642E+03 -0.26005440411E+02  0.77414224280E+03  0.78943605564E+03  0.00000000000E+00 0. -1.
</event>
<event>
 7    1  0.4402832E-005  0.3758324E+03  0.7818608E-02  0.1149623E+00
          2   -1    0    0  502    0  0.00000000000E+00  0.00000000000E+00  0.36477415799E+03  0.36477415799E+03  0.00000000000E+00 0. -1.
          1   -1    0    0  501    0 -0.00000000000E+00 -0.00000000000E+00 -0.28268474061E+04  0.28268474061E+04  0.00000000000E+00 0. -1.
         25    2    1    2    0    0 -0.12548195915E+03 -0.41475841278E+03 -0.51589129486E+01  0.45102321465E+03  0.12500025090E+03 0.  0.
          2    1    1    2  501    0  0.43211493074E+02  0.97423316920E+02 -0.24065703229E+04  0.24089290680E+04  0.00000000000E+00 0. -1.
          1    1    1    2  502    0  0.82270466079E+02  0.31733509586E+03 -0.50344012271E+02  0.33166928140E+03  0.00000000000E+00 0. -1.
         22    1    3    3    0    0 -0.12023246538E+03 -0.32095879132E+03  0.43044691806E+02  0.34543195705E+03  0.00000000000E+00 0. -1.
         22    1    3    3    0    0 -0.52494937770E+01 -0.93799621453E+02 -0.48203604755E+02  0.10559125760E+03  0.00000000000E+00 0. -1.
</event>
<event>
 7    1  0.4402832E-005  0.8299102E+03  0.7818608E-02  0.1058046E+00
          2   -1    0    0  502    0  0.00000000000E+00  0.00000000000E+00  0.23413955895E+04  0.23413955895E+04  0.00000000000E+00 0. -1.
          1   -1    0    0  501    0 -0.00000000000E+00 -0.00000000000E+00 -0.99797205123E+03  0.99797205123E+03  0.00000000000E+00 0. -1.
         25    2    1    2    0    0 -0.84664905148E+03 -0.26588703042E+03 -0.43993493244E+03  0.99833817938E+03  0.12500338522E+03 0.  0.
          2    1    1    2  501    0  0.69652812965E+03  0.21876112903E+03  0.20979575767E+03  0.75961972519E+03  0.00000000000E+00 0. -1.
          1    1    1    2  502    0  0.15012092183E+03  0.47125901392E+02  0.15735627130E+04  0.15814097361E+04  0.00000000000E+00 0. -1.
         22    1    3    3    0    0 -0.88830926521E+02 -0.57256681371E+02 -0.21360492111E+02  0.10782175890E+03  0.00000000000E+00 0.  1.
         22    1    3    3    0    0 -0.75781812496E+03 -0.20863034905E+03 -0.41857444033E+03  0.89051642049E+03  0.00000000000E+00 0.  1.
</event>
<event>
 7    1  0.4402832E-005  0.1510810E+03  0.7818608E-02  0.1236017E+00
          2   -1    0    0  502    0  0.00000000000E+00  0.00000000000E+00  0.14852059735E+04  0.14852059735E+04  0.00000000000E+00 0. -1.
          1   -1    0    0  501    0 -0.00000000000E+00 -0.00000000000E+00 -0.11095988868E+04  0.11095988868E+04  0.00000000000E+00 0. -1.
         25    2    1    2    0    0  0.55081445502E+02  0.18372386275E+03  0.31349378109E+03  0.38819028290E+03  0.12499968631E+03 0.  0.
          2    1    1    2  501    0  0.39948309777E+02 -0.14551482455E+03 -0.10646071899E+04  0.10752482971E+04  0.00000000000E+00 0. -1.
          1    1    1    2  502    0 -0.95029755279E+02 -0.38209038200E+02  0.11267204956E+04  0.11313662803E+04  0.00000000000E+00 0. -1.
         22    1    3    3    0    0  0.33807143014E+02  0.16214893316E+03  0.15507415163E+03  0.22689907878E+03  0.00000000000E+00 0. -1.
         22    1    3    3    0    0  0.21274302488E+02  0.21574929589E+02  0.15841962945E+03  0.16129120413E+03  0.00000000000E+00 0. -1.
</event>
<event>
 7    1  0.4402832E-005  0.5218208E+03  0.7818608E-02  0.1153543E+00
          2   -1    0    0  502    0  0.00000000000E+00  0.00000000000E+00  0.20806887774E+04  0.20806887774E+04  0.00000000000E+00 0. -1.
          1   -1    0    0  501    0 -0.00000000000E+00 -0.00000000000E+00 -0.11099543933E+04  0.11099543933E+04  0.00000000000E+00 0. -1.
         25    2    1    2    0    0 -0.52877123818E+03 -0.69125828275E+02  0.63867343938E+03  0.84137202138E+03  0.12500285493E+03 0.  0.
          2    1    1    2  501    0  0.10991549791E+02  0.72457464512E+02 -0.95715694004E+03  0.95995849191E+03  0.00000000000E+00 0. -1.
          1    1    1    2  502    0  0.51777968838E+03 -0.33316362372E+01  0.12892178848E+04  0.13893126573E+04  0.00000000000E+00 0. -1.
         22    1    3    3    0    0 -0.50449948366E+03 -0.88561509524E+02  0.62306189213E+03  0.80657857113E+03  0.00000000000E+00 0. -1.
         22    1    3    3    0    0 -0.24271754518E+02  0.19435681249E+02  0.15611547247E+02  0.34793450252E+02  0.00000000000E+00 0. -1.
</event>
<event>
 7    1  0.4402832E-005  0.5979271E+02  0.7818608E-02  0.1489804E+00
          2   -1    0    0  502    0  0.00000000000E+00  0.00000000000E+00  0.29805296794E+04  0.29805296794E+04  0.00000000000E+00 0. -1.
          1   -1    0    0  501    0 -0.00000000000E+00 -0.00000000000E+00 -0.13871000177E+03  0.13871000177E+03  0.00000000000E+00 0. -1.
         25    2    1    2    0    0 -0.12722943609E+02 -0.29507233869E+02  0.19485902303E+04  0.19528608073E+04  0.12501558656E+03 0.  0.
          2    1    1    2  501    0  0.74718127125E+01  0.59422320495E+02 -0.12977276302E+03  0.14292589052E+03  0.00000000000E+00 0. -1.
          1    1    1    2  502    0  0.52511308963E+01 -0.29915086627E+02  0.10230022103E+04  0.10234529834E+04  0.00000000000E+00 0. -1.
         22    1    3    3    0    0 -0.14117385826E+02  0.46451472760E+02  0.52329608083E+03  0.52554336464E+03  0.00000000000E+00 0.  1.
         22    1    3    3    0    0  0.13944422170E+01 -0.75958706629E+02  0.14252941495E+04  0.14273174427E+04  0.00000000000E+00 0.  1.
</event>
<event>
 7    1  0.4402832E-005  0.1931568E+03  0.7818608E-02  0.1314156E+00
          2   -1    0    0  502    0  0.00000000000E+00  0.00000000000E+00  0.36162669727E+03  0.36162669727E+03  0.00000000000E+00 0. -1.
          1   -1    0    0  501    0 -0.00000000000E+00 -0.00000000000E+00 -0.14995759406E+03  0.14995759406E+03  0.00000000000E+00 0. -1.
         25    2    1    2    0    0 -0.21115198775E+03 -0.10930365830E+02  0.13555047776E+03  0.28054216701E+03  0.12500136248E+03 0.  0.
          2    1    1    2  501    0  0.34587269492E+02 -0.15342697589E+02  0.24094743784E+01  0.37914154969E+02  0.00000000000E+00 0. -1.
          1    1    1    2  502    0  0.17656471825E+03  0.26273063420E+02  0.73709151074E+02  0.19312796935E+03  0.00000000000E+00 0. -1.
         22    1    3    3    0    0 -0.32090760073E+02 -0.36679221019E-01 -0.24308342485E+02  0.40258089148E+02  0.00000000000E+00 0.  1.
         22    1    3    3    0    0 -0.17906122767E+03 -0.10893686609E+02  0.15985882024E+03  0.24028407786E+03  0.00000000000E+00 0.  1.
</event>
<event>
 7    1  0.4402832E-005  0.2904128E+03  0.7818608E-02  0.1205237E+00
          2   -1    0    0  502    0  0.00000000000E+00  0.00000000000E+00  0.40526945877E+03  0.40526945877E+03  0.00000000000E+00 0. -1.
          1   -1    0    0  501    0 -0.00000000000E+00 -0.00000000000E+00 -0.62292187873E+03  0.62292187873E+03  0.00000000000E+00 0. -1.
         25    2    1    2    0    0 -0.11618585753E+03  0.22678418082E+03  0.14343907340E+03  0.31800916532E+03  0.12499937316E+03 0.  0.
          2    1    1    2  501    0  0.18971818098E+03 -0.22964289709E+03 -0.48318692426E+03  0.56762527442E+03  0.00000000000E+00 0. -1.
          1    1    1    2  502    0 -0.73532323456E+02  0.28587162700E+01  0.12209543091E+03  0.14255689776E+03  0.00000000000E+00 0. -1.
         22    1    3    3    0    0 -0.32086699739E+02  0.11172498760E+03  0.13071578504E+03  0.17492468555E+03  0.00000000000E+00 0. -1.
         22    1    3    3    0    0 -0.84099157789E+02  0.11505919322E+03  0.12723288360E+02  0.14308447977E+03  0.00000000000E+00 0. -1.
</event>
<event>
 7    1  0.4402832E-005  0.2934358E+03  0.7818608E-02  0.1157781E+00
          2   -1    0    0  502    0  0.00000000000E+00  0.00000000000E+00  0.36963100556E+03  0.36963100556E+03  0.00000000000E+00 0. -1.
          1   -1    0    0  501    0 -0.00000000000E+00 -0.00000000000E+00 -0.18204204484E+04  0.18204204484E+04  0.00000000000E+00 0. -1.
         25    2    1    2    0    0  0.37452590109E+03 -0.39921989437E+02 -0.98185286915E+02  0.40881356334E+03  0.12499905269E+03 0.  0.
          2    1    1    2  501    0 -0.11849743445E+03 -0.36550574088E+02 -0.14800217392E+04  0.14852077076E+04  0.00000000000E+00 0. -1.
          1    1    1    2  502    0 -0.25602846664E+03  0.76472563524E+02  0.12741758325E+03  0.29603018296E+03  0.00000000000E+00 0. -1.
         22    1    3    3    0    0  0.34306403411E+03 -0.71392684138E+02 -0.99590798201E+02  0.36429133113E+03  0.00000000000E+00 0. -1.
         22    1    3    3    0    0  0.31461866980E+02  0.31470694702E+02  0.14055112852E+01  0.44522232209E+02  0.00000000000E+00 0. -1.
</event>
<event>
 7    1  0.4402832E-005  0.2817181E+02  0.7818608E-02  0.1632049E+00
          2   -1    0    0  502    0  0.00000000000E+00  0.00000000000E+00  0.15474431115E+03  0.15474431115E+03  0.00000000000E+00 0. -1.
          1   -1    0    0  501    0 -0.00000000000E+00 -0.00000000000E+00 -0.38442520867E+03  0.38442520867E+03  0.00000000000E+00 0. -1.
         25    2    1    2    0    0 -0.92281258398E+01  0.16849875450E+02 -0.39784057646E+02  0.13257859593E+03  0.12500094499E+03 0.  0.
          2    1    1    2  501    0 -0.16058309822E+02 -0.23493293235E+02 -0.29597424477E+03  0.29733912912E+03  0.00000000000E+00 0. -1.
          1    1    1    2  502    0  0.25286435662E+02  0.66434177847E+01  0.10607740490E+03  0.10925179476E+03  0.00000000000E+00 0. -1.
         22    1    3    3    0    0 -0.37477901426E+02 -0.21290794578E+02 -0.65641951321E+02  0.78528700501E+02  0.00000000000E+00 0.  1.
         22    1    3    3    0    0  0.28249775586E+02  0.38140670028E+02  0.25857893676E+02  0.54049895432E+02  0.00000000000E+00 0.  1.
</event>
<event>
 7    1  0.4402832E-005  0.5760026E+03  0.7818608E-02  0.1104882E+00
          2   -1    0    0  502    0  0.00000000000E+00  0.00000000000E+00  0.16443929159E+04  0.16443929159E+04  0.00000000000E+00 0. -1.
          1   -1    0    0  501    0 -0.00000000000E+00 -0.00000000000E+00 -0.24309926941E+04  0.24309926941E+04  0.00000000000E+00 0. -1.
         25    2    1    2    0    0 -0.48721597895E+02  0.54410158607E+03  0.50813388808E+03  0.75646879928E+03  0.12499866399E+03 0.  0.
          2    1    1    2  501    0  0.10776346115E+03  0.54620836858E+02 -0.22156263126E+04  0.22189178346E+04  0.00000000000E+00 0. -1.
          1    1    1    2  502    0 -0.59041863257E+02 -0.59872242293E+03  0.92089264632E+03  0.10999989761E+04  0.00000000000E+00 0. -1.
         22    1    3    3    0    0 -0.81231146149E+02  0.48509771090E+03  0.46211477195E+03  0.67488395349E+03  0.00000000000E+00 0. -1.
         22    1    3    3    0    0  0.32509548254E+02  0.59003875173E+02  0.46019116135E+02  0.81584845792E+02  0.00000000000E+00 0. -1.
</event>
<event>
 7    1  0.4402832E-005  0.4545181E+02  0.7818608E-02  0.1564633E+00
          2   -1    0    0  502    0  0.00000000000E+00  0.00000000000E+00  0.31672302485E+03  0.31672302485E+03  0.00000000000E+00 0. -1.
          1   -1    0    0  501    0 -0.00000000000E+00 -0.00000000000E+00 -0.23833646870E+03  0.23833646870E+03  0.00000000000E+00 0. -1.
         25    2    1    2    0    0  0.61378751442E+02 -0.82730828821E+01  0.20298756087E+02  0.14096899879E+03  0.12499769635E+03 0.  0.
          2    1    1    2  501    0 -0.40179925614E+02  0.20225439584E+02 -0.17451439542E+03  0.18021867006E+03  0.00000000000E+00 0. -1.
          1    1    1    2  502    0 -0.21198825828E+02 -0.11952356702E+02  0.23260219549E+03  0.23387182471E+03  0.00000000000E+00 0. -1.
         22    1    3    3    0    0 -0.13244475854E+02 -0.50896797627E+02  0.15795760716E+02  0.54912714428E+02  0.00000000000E+00 0. -1.
         22    1    3    3    0    0  0.74623227296E+02  0.42623714744E+02  0.45029953712E+01  0.86056284361E+02  0.00000000000E+00 0. -1.
</event>
<event>
 7    1  0.4402832E-005  0.9867601E+02  0.7818608E-02  0.1318811E+00
          2   -1    0    0  502    0  0.00000000000E+00  0.00000000000E+00  0.25635984238E+03  0.25635984238E+03  0.00000000000E+00 0. -1.
          1   -1    0    0  501    0 -0.00000000000E+00 -0.00000000000E+00 -0.14021171098E+03  0.14021171098E+03  0.00000000000E+00 0. -1.
         25    2    1    2    0    0 -0.13462990700E+03 -0.69295101923E+02  0.11898308606E+03  0.22958339519E+03  0.12499815026E+03 0.  0.
          2    1    1    2  501    0  0.70866605576E+02  0.37992083445E+02  0.33612037993E+02  0.87150692989E+02  0.00000000000E+00 0. -1.
          1    1    1    2  502    0  0.63763301421E+02  0.31303018478E+02 -0.36446992656E+02  0.79837465188E+02  0.00000000000E+00 0. -1.
         22    1    3    3    0    0 -0.28616409584E+01 -0.58491795228E+02  0.12636408782E+02  0.59909581244E+02  0.00000000000E+00 0. -1.
         22    1    3    3    0    0 -0.13176826604E+03 -0.10803306695E+02  0.10634667728E+03  0.16967381394E+03  0.00000000000E+00 0. -1.
</event>
<event>
 7    1  0.4402832E-005  0.2695673E+03  0.7818608E-02  0.1128607E+00
          2   -1    0    0  502    0  0.00000000000E+00  0.00000000000E+00  0.57841295864E+03  0.57841295864E+03  0.00000000000E+00 0. -1.
          1   -1    0    0  501    0 -0.00000000000E+00 -0.00000000000E+00 -0.55367430526E+03  0.55367430526E+03  0.00000000000E+00 0. -1.
         25    2    1    2    0    0 -0.36104122524E+03 -0.27095800681E+02  0.31942507919E+03  0.49874097325E+03  0.12500091376E+03 0.  0.
          2    1    1    2  501    0  0.16706154188E+03  0.93685069882E+02 -0.36855812385E+03  0.41535712555E+03  0.00000000000E+00 0. -1.
          1    1    1    2  502    0  0.19397968336E+03 -0.66589269201E+02  0.73871698043E+02  0.21798916510E+03  0.00000000000E+00 0. -1.
         22    1    3    3    0    0 -0.28770684497E+03 -0.61963721625E+02  0.28768987984E+03  0.41155825639E+03  0.00000000000E+00 0.  1.
         22    1    3    3    0    0 -0.73334380269E+02  0.34867920943E+02  0.31735199348E+02  0.87182716854E+02  0.00000000000E+00 0.  1.
</event>
<event>
 7    1  0.4402832E-005  0.2778311E+03  0.7818608E-02  0.1237943E+00
          2   -1    0    0  502    0  0.00000000000E+00  0.00000000000E+00  0.20581809260E+03  0.20581809260E+03  0.00000000000E+00 0. -1.
          1   -1    0    0  501    0 -0.00000000000E+00 -0.00000000000E+00 -0.13827400080E+04  0.13827400080E+04  0.00000000000E+00 0. -1.
         25    2    1    2    0    0  0.46362871397E+02 -0.26079421076E+03  0.14133606076E+01  0.29289944964E+03  0.12499981520E+03 0.  0.
          2    1    1    2  501    0  0.27135183708E+02 -0.47394333616E+02 -0.80137983717E+03  0.80323856013E+03  0.00000000000E+00 0. -1.
          1    1    1    2  502    0 -0.73498055105E+02  0.30818854438E+03 -0.37695543885E+03  0.49242009084E+03  0.00000000000E+00 0. -1.
         22    1    3    3    0    0  0.34105414651E+01  0.96798163965E+01  0.15595150101E+02  0.18669208479E+02  0.00000000000E+00 0. -1.
         22    1    3    3    0    0  0.42952329932E+02 -0.27047402716E+03 -0.14181789493E+02  0.27423024116E+03  0.00000000000E+00 0. -1.
</event>
<event>
 7    1  0.4402832E-005  0.3059320E+03  0.7818608E-02  0.1184496E+00
          2   -1    0    0  502    0  0.00000000000E+00  0.00000000000E+00  0.70876784346E+03  0.70876784346E+03  0.00000000000E+00 0. -1.
          1   -1    0    0  501    0 -0.00000000000E+00 -0.00000000000E+00 -0.91825276568E+03  0.91825276568E+03  0.00000000000E+00 0. -1.
         25    2    1    2    0    0  0.30526933708E+03 -0.30852969826E+02  0.18136871480E+03  0.37770500156E+03  0.12500073436E+03 0.  0.
          2    1    1    2  501    0 -0.30172391189E+03 -0.56752682954E+02 -0.78638049468E+03  0.84418746048E+03  0.00000000000E+00 0. -1.
          1    1    1    2  502    0 -0.35454251973E+01  0.87605652780E+02  0.39552685766E+03  0.40512814710E+03  0.00000000000E+00 0. -1.
         22    1    3    3    0    0  0.99490836764E+02 -0.12951074947E+02  0.13116177418E+03  0.16513499917E+03  0.00000000000E+00 0.  1.
         22    1    3    3    0    0  0.20577850032E+03 -0.17901894879E+02  0.50206940610E+02  0.21257000240E+03  0.00000000000E+00 0.  1.
</event>
<event>
 7    1  0.4402832E-005  0.1543314E+03  0.7818608E-02  0.1245201E+00
          2   -1    0    0  502    0  0.00000000000E+00  0.00000000000E+00  0.85061636046E+03  0.85061636046E+03  0.00000000000E+00 0. -1.
          1   -1    0    0  501    0 -0.00000000000E+00 -0.00000000000E+00 -0.68282658578E+02  0.68282658578E+02  0.00000000000E+00 0. -1.
         25    2    1    2    0    0 -0.22074629387E+02 -0.15540931748E+03  0.36377348175E+03  0.41544584541E+03  0.12499903688E+03 0.  0.
          2    1    1    2  501    0  0.10682946801E+03  0.12133754933E+03  0.15286145166E+03  0.22249035825E+03  0.00000000000E+00 0. -1.
          1    1    1    2  502    0 -0.84754838622E+02  0.34071768153E+02  0.26569876847E+03  0.28096281537E+03  0.00000000000E+00 0. -1.
         22    1    3    3    0    0 -0.69691584041E+02 -0.53441711582E+02  0.14828678578E+03  0.17234240412E+03  0.00000000000E+00 0. -1.
         22    1    3    3    0    0  0.47616954654E+02 -0.10196760590E+03  0.21548669598E+03  0.24310344129E+03  0.00000000000E+00 0. -1.
</event>
<event>
 7    1  0.4402832E-005  0.1017120E+04  0.7818608E-02  0.1004334E+00
          2   -1    0    0  502    0  0.00000000000E+00  0.00000000000E+00  0.17929388339E+04  0.17929388339E+04  0.00000000000E+00 0. -1.
          1   -1    0    0  501    0 -0.00000000000E+00 -0.00000000000E+00 -0.26809546915E+04  0.26809546915E+04  0.00000000000E+00 0. -1.
         25    2    1    2    0    0 -0.32194394490E+03 -0.73846930400E+03  0.26723077644E+03  0.85791736985E+03  0.12500043601E+03 0.  0.
          2    1    1    2  501    0  0.29462453421E+03  0.10216226015E+04 -0.22480181228E+04  0.24867854424E+04  0.00000000000E+00 0. -1.
          1    1    1    2  502    0  0.27319410693E+02 -0.28315329750E+03  0.10927714888E+04  0.11291907132E+04  0.00000000000E+00 0. -1.
         22    1    3    3    0    0  0.36950509452E+01 -0.22981165569E+01 -0.63694712040E+01  0.77139422227E+01  0.00000000000E+00 0.  1.
         22    1    3    3    0    0 -0.32563899584E+03 -0.73617118744E+03  0.27360024765E+03  0.85020342763E+03  0.00000000000E+00 0.  1.
</event>
<event>
 7    1  0.4402832E-005  0.1522154E+03  0.7818608E-02  0.1350927E+00
          2   -1    0    0  502    0  0.00000000000E+00  0.00000000000E+00  0.14286602915E+04  0.14286602915E+04  0.00000000000E+00 0. -1.
          1   -1    0    0  501    0 -0.00000000000E+00 -0.00000000000E+00 -0.33303100824E+02  0.33303100824E+02  0.00000000000E+00 0. -1.
         25    2    1    2    0    0 -0.62266657874E+02  0.14248397760E+03  0.72450000073E+03  0.75146787213E+03  0.12499956491E+03 0.  0.
          2    1    1    2  501    0  0.90487617678E+02 -0.12214382388E+03  0.28439784873E+03  0.32247365633E+03  0.00000000000E+00 0. -1.
          1    1    1    2  502    0 -0.28220959804E+02 -0.20340153723E+02  0.38645934118E+03  0.38802186383E+03  0.00000000000E+00 0. -1.
         22    1    3    3    0    0 -0.53755488257E+02  0.16278706208E+03  0.56440547793E+03  0.58986678463E+03  0.00000000000E+00 0.  1.
         22    1    3    3    0    0 -0.85111696170E+01 -0.20303084484E+02  0.16009452280E+03  0.16160108750E+03  0.00000000000E+00 0.  1.
</event>
<event>
 7    1  0.4402832E-005  0.1684066E+03  0.7818608E-02  0.1219070E+00
          2   -1    0    0  502    0  0.00000000000E+00  0.00000000000E+00  0.81301191592E+02  0.81301191592E+02  0.00000000000E+00 0. -1.
          1   -1    0    0  501    0 -0.00000000000E+00 -0.00000000000E+00 -0.98572196993E+03  0.98572196993E+03  0.00000000000E+00 0. -1.
         25    2    1    2    0    0  0.10389551365E+03 -0.63144859699E+02 -0.20534793305E+03  0.26939647565E+03  0.12500054570E+03 0.  0.
          2    1    1    2  501    0  0.83906804687E+02 -0.70409549404E+02 -0.42820355272E+03  0.44199110747E+03  0.00000000000E+00 0. -1.
          1    1    1    2  502    0 -0.18780231834E+03  0.13355440910E+03 -0.27086929257E+03  0.35563557840E+03  0.00000000000E+00 0. -1.
         22    1    3    3    0    0  0.27576025078E+02 -0.76136967524E+02 -0.48258592935E+02  0.94266466863E+02  0.00000000000E+00 0. -1.
         22    1    3    3    0    0  0.76319488576E+02  0.12992107824E+02 -0.15708934011E+03  0.17513000879E+03  0.00000000000E+00 0. -1.
</event>
<event>
 7    1  0.5097259E-005  0.1967045E+03  0.7818608E-02  0.1277574E+00
          2   -1    0    0  502    0  0.00000000000E+00  0.00000000000E+00  0.16354871756E+04  0.16354871756E+04  0.00000000000E+00 0. -1.
          1   -1    0    0  501    0 -0.00000000000E+00 -0.00000000000E+00 -0.84862007176E+03  0.84862007176E+03  0.00000000000E+00 0. -1.
         25    2    1    2    0    0  0.24217761056E+02 -0.18205466052E+03 -0.41393157843E+03  0.46978619858E+03  0.12501728435E+03 0.  0.
          2    1    1    2  501    0 -0.73612134507E+02  0.19885667521E+03 -0.37866655031E+03  0.43399433169E+03  0.00000000000E+00 0. -1.
          1    1    1    2  502    0  0.49394373451E+02 -0.16802014696E+02  0.15794652326E+04  0.15803267171E+04  0.00000000000E+00 0. -1.
         22    1    3    3    0    0 -0.16598156882E+02 -0.18056615558E+03 -0.33784133086E+03  0.38342717716E+03  0.00000000000E+00 0.  1.
         22    1    3    3    0    0  0.40815917938E+02 -0.14885049396E+01 -0.76090247572E+02  0.86359021415E+02  0.00000000000E+00 0.  1.
</event>
<event>
 7    1  0.4402832E-005  0.1461219E+03  0.7818608E-02  0.1243140E+00
          2   -1    0    0  502    0  0.00000000000E+00  0.00000000000E+00  0.79228620161E+02  0.79228620161E+02  0.00000000000E+00 0. -1.
          1   -1    0    0  501    0 -0.00000000000E+00 -0.00000000000E+00 -0.10787281711E+04  0.10787281711E+04  0.00000000000E+00 0. -1.
         25    2    1    2    0    0 -0.90805423344E+02  0.13778489349E+03 -0.27940224673E+03  0.34772965012E+03  0.12497996764E+03 0.  0.
          2    1    1    2  501    0 -0.72182318515E+01 -0.14751525887E+03 -0.69229455117E+03  0.70787329379E+03  0.00000000000E+00 0. -1.
          1    1    1    2  502    0  0.98023655195E+02  0.97303653792E+01 -0.27802753007E+02  0.10235384733E+03  0.00000000000E+00 0. -1.
         22    1    3    3    0    0  0.27615772653E+02  0.35818969248E+02 -0.10036360364E+03  0.11008397882E+03  0.00000000000E+00 0.  1.
         22    1    3    3    0    0 -0.11842119600E+03  0.10196592424E+03 -0.17903864309E+03  0.23764567130E+03  0.00000000000E+00 0.  1.
</event>
<event>
 7    1  0.4402832E-005  0.1013828E+04  0.7818608E-02  0.1053792E+00
          2   -1    0    0  502    0  0.00000000000E+00  0.00000000000E+00  0.26922872975E+04  0.26922872975E+04  0.00000000000E+00 0. -1.
          1   -1    0    0  501    0 -0.00000000000E+00 -0.00000000000E+00 -0.18626678019E+04  0.18626678019E+04  0.00000000000E+00 0. -1.
         25    2    1    2    0    0  0.93878774587E+03  0.68567810608E+02  0.38437463168E+03  0.10243987740E+04  0.12500005678E+03 0.  0.
          2    1    1    2  501    0 -0.10166785070E+04 -0.18098491619E+03 -0.13669725587E+04  0.17131855424E+04  0.00000000000E+00 0. -1.
          1    1    1    2  502    0  0.77890761176E+02  0.11241710558E+03  0.18122174226E+04  0.18173707830E+04  0.00000000000E+00 0. -1.
         22    1    3    3    0    0  0.45905831591E+03  0.49380037093E+02  0.12327146986E+03  0.47787946258E+03  0.00000000000E+00 0. -1.
         22    1    3    3    0    0  0.47972942996E+03  0.19187773515E+02  0.26110316181E+03  0.54651931140E+03  0.00000000000E+00 0. -1.
</event>
<event>
 7    1  0.4402832E-005  0.2281853E+03  0.7818608E-02  0.1128290E+00
          2   -1    0    0  502    0  0.00000000000E+00  0.00000000000E+00  0.20231886011E+04  0.20231886011E+04  0.00000000000E+00 0. -1.
          1   -1    0    0  501    0 -0.00000000000E+00 -0.00000000000E+00 -0.88346714055E+03  0.88346714055E+03  0.00000000000E+00 0. -1.
         25    2    1    2    0    0 -0.43106391330E+02 -0.17061434629E+03 -0.15729491380E+03  0.26708378734E+03  0.12499857368E+03 0.  0.
          2    1    1    2  501    0 -0.17704605096E+03  0.22658643117E+03 -0.63351560068E+03  0.69572173407E+03  0.00000000000E+00 0. -1.
          1    1    1    2  502    0  0.22015244229E+03 -0.55972084884E+02  0.19305319750E+04  0.19438502203E+04  0.00000000000E+00 0. -1.
         22    1    3    3    0    0  0.38703757664E+02 -0.26012412897E+02 -0.17009710388E+02  0.49638258728E+02  0.00000000000E+00 0.  1.
         22    1    3    3    0    0 -0.81810148994E+02 -0.14460193339E+03 -0.14028520341E+03  0.21744552861E+03  0.00000000000E+00 0.  1.
</event>
<event>
 7    1  0.4402832E-005  0.3394552E+03  0.7818608E-02  0.1136869E+00
          2   -1    0    0  502    0  0.00000000000E+00  0.00000000000E+00  0.10778787599E+04  0.10778787599E+04  0.00000000000E+00 0. -1.
          1   -1    0    0  501    0 -0.00000000000E+00 -0.00000000000E+00 -0.15541371306E+04  0.15541371306E+04  0.00000000000E+00 0. -1.
         25    2    1    2    0    0  0.22901924202E+03  0.11952496329E+02  0.97812174945E+03  0.10123950976E+04  0.12501600486E+03 0.  0.
          2    1    1    2  501    0 -0.32280765752E+03 -0.11249596434E+03 -0.14415484746E+04  0.14815269590E+04  0.00000000000E+00 0. -1.
          1    1    1    2  502    0  0.93788415496E+02  0.10054346801E+03 -0.12831645591E+02  0.13809383393E+03  0.00000000000E+00 0. -1.
         22    1    3    3    0    0  0.20118373212E+03  0.56163471072E+02  0.79182128431E+03  0.81890791658E+03  0.00000000000E+00 0. -1.
         22    1    3    3    0    0  0.27835509898E+02 -0.44210974744E+02  0.18630046514E+03  0.19348718100E+03  0.00000000000E+00 0. -1.
</event>
<event>
 7    1  0.4402832E-005  0.4482251E+03  0.7818608E-02  0.1190153E+00
          2   -1    0    0  502    0  0.00000000000E+00  0.00000000000E+00  0.11261988498E+04  0.11261988498E+04  0.00000000000E+00 0. -1.
          1   -1    0    0  501    0 -0.00000000000E+00 -0.00000000000E+00 -0.35428166697E+03  0.35428166697E+03  0.00000000000E+00 0. -1.
         25    2    1    2    0    0  0.27177143428E+03 -0.35515931159E+03  0.15819697747E+03  0.49056026089E+03  0.12500094712E+03 0.  0.
          2    1    1    2  501    0 -0.45324008889E+02 -0.33231998640E+02 -0.11823806251E+03  0.13091551070E+03  0.00000000000E+00 0. -1.
          1    1    1    2  502    0 -0.22644742540E+03  0.38839131023E+03  0.73195826786E+03  0.85900474517E+03  0.00000000000E+00 0. -1.
         22    1    3    3    0    0  0.11113670751E+03 -0.24591560749E+03  0.99548498443E+02  0.28763824034E+03  0.00000000000E+00 0. -1.
         22    1    3    3    0    0  0.16063472678E+03 -0.10924370409E+03  0.58648479031E+02  0.20292202055E+03  0.00000000000E+00 0. -1.
</event>
<event>
 7    1  0.4402832E-005  0.6505357E+03  0.7818608E-02  0.1067245E+00
          2   -1    0    0  502    0  0.00000000000E+00  0.00000000000E+00  0.46324130055E+03  0.46324130055E+03  0.00000000000E+00 0. -1.
          1   -1    0    0  501    0 -0.00000000000E+00 -0.00000000000E+00 -0.13865854674E+04  0.13865854674E+04  0.00000000000E+00 0. -1.
         25    2    1    2    0    0  0.73155903259E+03  0.20533036142E+03 -0.42050966098E+03  0.87737953332E+03  0.12500917977E+03 0.  0.
          2    1    1    2  501    0 -0.55525126772E+03 -0.19513472254E+03 -0.53212229801E+03  0.79343283918E+03  0.00000000000E+00 0. -1.
          1    1    1    2  502    0 -0.17630776487E+03 -0.10195638873E+02  0.29287792151E+02  0.17901439544E+03  0.00000000000E+00 0. -1.
         22    1    3    3    0    0  0.52878892954E+03  0.19592376044E+03 -0.27346140268E+03  0.62672561035E+03  0.00000000000E+00 0.  1.
         22    1    3    3    0    0  0.20277010304E+03  0.94066009786E+01 -0.14704825830E+03  0.25065392297E+03  0.00000000000E+00 0.  1.
</event>
<event>
 7    1  0.4402832E-005  0.5993115E+03  0.7818608E-02  0.1130536E+00
          2   -1    0    0  502    0  0.00000000000E+00  0.00000000000E+00  0.10002109143E+04  0.10002109143E+04  0.00000000000E+00 0. -1.
          1   -1    0    0  501    0 -0.00000000000E+00 -0.00000000000E+00 -0.98524548047E+03  0.98524548047E+03  0.00000000000E+00 0. -1.
         25    2    1    2    0    0 -0.44080615508E+03  0.44993396346E+03  0.84695952896E+02  0.64772643062E+03  0.12500194661E+03 0.  0.
          2    1    1    2  501    0 -0.15728955505E+02 -0.82651134947E+02 -0.56456497924E+03  0.57079963729E+03  0.00000000000E+00 0. -1.
          1    1    1    2  502    0  0.45653511058E+03 -0.36728282851E+03  0.49483446019E+03  0.76693032689E+03  0.00000000000E+00 0. -1.
         22    1    3    3    0    0 -0.14394378352E+03  0.19939232497E+03 -0.15968550638E+02  0.24643884978E+03  0.00000000000E+00 0. -1.
         22    1    3    3    0    0 -0.29686237156E+03  0.25054163849E+03  0.10066450353E+03  0.40128758084E+03  0.00000000000E+00 0. -1.
</event>
<event>
 7    1  0.4402832E-005  0.5431383E+03  0.7818608E-02  0.1169137E+00
          2   -1    0    0  502    0  0.00000000000E+00  0.00000000000E+00  0.10453902475E+04  0.10453902475E+04  0.00000000000E+00 0. -1.
          1   -1    0    0  501    0 -0.00000000000E+00 -0.00000000000E+00 -0.29359028067E+04  0.29359028067E+04  0.00000000000E+00 0. -1.
         25    2    1    2    0    0  0.48807727223E+03 -0.53372129255E+02 -0.45056118197E+02  0.50864905439E+03  0.12500319553E+03 0.  0.
          2    1    1    2  501    0 -0.54681210419E+03  0.54599878845E+02 -0.26295474607E+04  0.26863552393E+04  0.00000000000E+00 0. -1.
          1    1    1    2  502    0  0.58734831955E+02 -0.12277495907E+01  0.78409101966E+03  0.78628876055E+03  0.00000000000E+00 0. -1.
         22    1    3    3    0    0  0.32339034838E+03 -0.28588109666E+02  0.29883222077E+02  0.32602393225E+03  0.00000000000E+00 0.  1.
         22    1    3    3    0    0  0.16468692386E+03 -0.24784019589E+02 -0.74939340274E+02  0.18262512214E+03  0.00000000000E+00 0.  1.
</event>
<event>
 7    1  0.4402832E-005  0.5206794E+03  0.7818608E-02  0.1058907E+00
          2   -1    0    0  502    0  0.00000000000E+00  0.00000000000E+00  0.16581016343E+04  0.16581016343E+04  0.00000000000E+00 0. -1.
          1   -1    0    0  501    0 -0.00000000000E+00 -0.00000000000E+00 -0.31048535934E+03  0.31048535934E+03  0.00000000000E+00 0. -1.
         25    2    1    2    0    0  0.35344321754E+03 -0.59161292804E+03  0.72227852523E+03  0.10060997233E+04  0.12498968217E+03 0.  0.
          2    1    1    2  501    0 -0.19100215016E+03  0.40450943881E+03  0.24918091930E+03  0.51205550285E+03  0.00000000000E+00 0. -1.
          1    1    1    2  502    0 -0.16244106738E+03  0.18710348923E+03  0.37615683040E+03  0.45043176743E+03  0.00000000000E+00 0. -1.
         22    1    3    3    0    0  0.17796778977E+03 -0.18343895962E+03  0.28250004707E+03  0.38095756023E+03  0.00000000000E+00 0.  1.
         22    1    3    3    0    0  0.17547542777E+03 -0.40817396842E+03  0.43977847816E+03  0.62514216311E+03  0.00000000000E+00 0.  1.
</event>
<event>
 7    1  0.4402832E-005  0.8791030E+02  0.7818608E-02  0.1394240E+00
          2   -1    0    0  502    0  0.00000000000E+00  0.00000000000E+00  0.40712519502E+03  0.40712519502E+03  0.00000000000E+00 0. -1.
          1   -1    0    0  501    0 -0.00000000000E+00 -0.00000000000E+00 -0.13284087614E+03  0.13284087614E+03  0.00000000000E+00 0. -1.
         25    2    1    2    0    0  0.53166692932E+02 -0.60357959473E+02 -0.54200265671E+02  0.15823304082E+03  0.12502098183E+03 0.  0.
          2    1    1    2  501    0  0.30125191907E+02  0.29464994065E+02  0.72271964318E+00  0.42145407654E+02  0.00000000000E+00 0. -1.
          1    1    1    2  502    0 -0.83291884838E+02  0.30892965408E+02  0.32776186491E+03  0.33958762268E+03  0.00000000000E+00 0. -1.
         22    1    3    3    0    0  0.19578944769E+02 -0.73727571223E+02 -0.82470507879E+02  0.11234088528E+03  0.00000000000E+00 0.  1.
         22    1    3    3    0    0  0.33587748163E+02  0.13369611750E+02  0.28270242208E+02  0.45892155534E+02  0.00000000000E+00 0.  1.
</event>
<event>
 7    1  0.4402832E-005  0.7296748E+03  0.7818608E-02  0.1095459E+00
          2   -1    0    0  502    0  0.00000000000E+00  0.00000000000E+00  0.19895879875E+04  0.19895879875E+04  0.00000000000E+00 0. -1.
          1   -1    0    0  501    0 -0.00000000000E+00 -0.00000000000E+00 -0.12974886429E+04  0.12974886429E+04  0.00000000000E+00 0. -1.
         25    2    1    2    0    0  0.62991981775E+03 -0.32143652068E+03  0.55387365067E+03  0.90692908297E+03  0.12499570793E+03 0.  0.
          2    1    1    2  501    0 -0.69551489072E+03  0.23592981251E+03 -0.99783714914E+03  0.12389845906E+04  0.00000000000E+00 0. -1.
          1    1    1    2  502    0  0.65595072973E+02  0.85506708173E+02  0.11360628431E+04  0.11411629569E+04  0.00000000000E+00 0. -1.
         22    1    3    3    0    0  0.29408970285E+03 -0.14524681182E+03  0.33601553377E+03  0.46956557434E+03  0.00000000000E+00 0. -1.
         22    1    3    3    0    0  0.33583011490E+03 -0.17618970886E+03  0.21785811690E+03  0.43736350863E+03  0.00000000000E+00 0. -1.
</event>
<event>
 7    1  0.4402832E-005  0.5035146E+03  0.7818608E-02  0.1113085E+00
          2   -1    0    0  502    0  0.00000000000E+00  0.00000000000E+00  0.15088271382E+04  0.15088271382E+04  0.00000000000E+00 0. -1.
          1   -1    0    0  501    0 -0.00000000000E+00 -0.00000000000E+00 -0.56164686040E+03  0.56164686040E+03  0.00000000000E+00 0. -1.
         25    2    1    2    0    0 -0.45900395815E+03  0.38789425411E+03  0.37009573576E+03  0.71675696589E+03  0.12499243397E+03 0.  0.
          2    1    1    2  501    0  0.37045725430E+03 -0.30041142889E+03 -0.23530964347E+03  0.53184230010E+03  0.00000000000E+00 0. -1.
          1    1    1    2  502    0  0.88546703852E+02 -0.87482825218E+02  0.81239418549E+03  0.82187473260E+03  0.00000000000E+00 0. -1.
         22    1    3    3    0    0 -0.45316903332E+03  0.34327281325E+03  0.34872607303E+03  0.66693948083E+03  0.00000000000E+00 0.  1.
         22    1    3    3    0    0 -0.58349248263E+01  0.44621440858E+02  0.21369662727E+02  0.49817485053E+02  0.00000000000E+00 0.  1.
</event>
<event>
 7    1  0.4402832E-005  0.5660906E+03  0.7818608E-02  0.1228668E+00
          2   -1    0    0  502    0  0.00000000000E+00  0.00000000000E+00  0.76412529617E+03  0.76412529617E+03  0.00000000000E+00 0. -1.
          1   -1    0    0  501    0 -0.00000000000E+00 -0.00000000000E+00 -0.55311893535E+03  0.55311893535E+03  0.00000000000E+00 0. -1.
         25    2    1    2    0    0  0.23648334347E+03 -0.51233932357E+03  0.11848890025E+03  0.58998094530E+03  0.12498776784E+03 0.  0.
          2    1    1    2  501    0 -0.26425800874E+03  0.50245442100E+03 -0.60967452849E+02  0.57097265318E+03  0.00000000000E+00 0. -1.
          1    1    1    2  502    0  0.27774665266E+02  0.98849025698E+01  0.15348491342E+03  0.15629063304E+03  0.00000000000E+00 0. -1.
         22    1    3    3    0    0  0.11230418451E+03 -0.33193808427E+03  0.12168619628E+03  0.37094831447E+03  0.00000000000E+00 0.  1.
         22    1    3    3    0    0  0.12417915897E+03 -0.18040123931E+03 -0.31972960231E+01  0.21903263083E+03  0.00000000000E+00 0.  1.
</event>
<event>
 7    1  0.4402832E-005  0.1354830E+03  0.7818608E-02  0.1329520E+00
          2   -1    0    0  502    0  0.00000000000E+00  0.00000000000E+00  0.44188830473E+03  0.44188830473E+03  0.00000000000E+00 0. -1.
          1   -1    0    0  501    0 -0.00000000000E+00 -0.00000000000E+00 -0.92819479626E+02  0.92819479626E+02  0.00000000000E+00 0. -1.
         25    2    1    2    0    0 -0.79306553378E+02  0.13463446120E+03  0.85049840276E+02  0.21742423215E+03  0.12499541530E+03 0.  0.
          2    1    1    2  501    0  0.76249068469E+02 -0.87690035811E+02  0.12570293179E+03  0.17118612643E+03  0.00000000000E+00 0. -1.
          1    1    1    2  502    0  0.30574849088E+01 -0.46944425385E+02  0.13831605304E+03  0.14609742578E+03  0.00000000000E+00 0. -1.
         22    1    3    3    0    0  0.30314500051E+02  0.21506822615E+02  0.37685122169E+02  0.52930905578E+02  0.00000000000E+00 0. -1.
         22    1    3    3    0    0 -0.10962105343E+03  0.11312763858E+03  0.47364718107E+02  0.16449332657E+03  0.00000000000E+00 0. -1.
</event>
<event>
 7    1  0.4402832E-005  0.1028564E+03  0.7818608E-02  0.1294367E+00
          2   -1    0    0  502    0  0.00000000000E+00  0.00000000000E+00  0.71688310019E+03  0.71688310019E+03  0.00000000000E+00 0. -1.
          1   -1    0    0  501    0 -0.00000000000E+00 -0.00000000000E+00 -0.22256508909E+03  0.22256508909E+03  0.00000000000E+00 0. -1.
         25    2    1    2    0    0  0.13371037090E+03  0.58917942130E+02  0.24924600909E+03  0.31480065582E+03  0.12500437058E+03 0.  0.
          2    1    1    2  501    0 -0.81425789191E+02  0.24982273654E+02 -0.17418480421E+03  0.19389331902E+03  0.00000000000E+00 0. -1.
          1    1    1    2  502    0 -0.52284581712E+02 -0.83900215784E+02  0.41925680623E+03  0.43075421445E+03  0.00000000000E+00 0. -1.
         22    1    3    3    0    0  0.64521379045E+02  0.29640778027E+02  0.22487471564E+03  0.23581819652E+03  0.00000000000E+00 0.  1.
         22    1    3    3    0    0  0.69188991859E+02  0.29277164103E+02  0.24371293451E+02  0.78982459298E+02  0.00000000000E+00 0.  1.
</event>
<event>
 7    1  0.4402832E-005  0.3497427E+03  0.7818608E-02  0.1103687E+00
          2   -1    0    0  502    0  0.00000000000E+00  0.00000000000E+00  0.40730904895E+04  0.40730904895E+04  0.00000000000E+00 0. -1.
          1   -1    0    0  501    0 -0.00000000000E+00 -0.00000000000E+00 -0.49643676066E+03  0.49643676066E+03  0.00000000000E+00 0. -1.
         25    2    1    2    0    0 -0.13326270471E+03  0.47624352117E+03  0.29059905293E+04  0.29504190768E+04  0.12499973129E+03 0.  0.
          2    1    1    2  501    0  0.19827440742E+03 -0.28493055572E+03 -0.39995667716E+03  0.52958805295E+03  0.00000000000E+00 0. -1.
          1    1    1    2  502    0 -0.65011702712E+02 -0.19131296545E+03  0.10706198768E+04  0.10895201204E+04  0.00000000000E+00 0. -1.
         22    1    3    3    0    0  0.15143404204E+02  0.98629021115E+02  0.74706058395E+03  0.75369524517E+03  0.00000000000E+00 0. -1.
         22    1    3    3    0    0 -0.14840610891E+03  0.37761450005E+03  0.21589299453E+04  0.21967238317E+04  0.00000000000E+00 0. -1.
</event>
<event>
 7    1  0.4402832E-005  0.3531447E+03  0.7818608E-02  0.1161992E+00
          2   -1    0    0  502    0  0.00000000000E+00  0.00000000000E+00  0.34622565546E+04  0.34622565546E+04  0.00000000000E+00 0. -1.
          1   -1    0    0  501    0 -0.00000000000E+00 -0.00000000000E+00 -0.12375719241E+04  0.12375719241E+04  0.00000000000E+00 0. -1.
         25    2    1    2    0    0  0.30958402119E+02 -0.38541809208E+03  0.26494784633E+04  0.26804599649E+04  0.12499586841E+03 0.  0.
          2    1    1    2  501    0  0.23078943746E+02  0.95357449464E+02 -0.11927005008E+04  0.11967289440E+04  0.00000000000E+00 0. -1.
          1    1    1    2  502    0 -0.54037345865E+02  0.29006064261E+03  0.76790666795E+03  0.82263956981E+03  0.00000000000E+00 0. -1.
         22    1    3    3    0    0  0.27611538481E+01 -0.15628872160E+03  0.69310997923E+03  0.71051758021E+03  0.00000000000E+00 0. -1.
         22    1    3    3    0    0  0.28197248271E+02 -0.22912937048E+03  0.19563684841E+04  0.19699423847E+04  0.00000000000E+00 0. -1.
</event>
<event>
 7    1  0.4402832E-005  0.4259072E+03  0.7818608E-02  0.1049654E+00
          2   -1    0    0  502    0  0.00000000000E+00  0.00000000000E+00  0.32560660625E+03  0.32560660625E+03  0.00000000000E+00 0. -1.
          1   -1    0    0  501    0 -0.00000000000E+00 -0.00000000000E+00 -0.16655677674E+04  0.16655677674E+04  0.00000000000E+00 0. -1.
         25    2    1    2    0    0  0.13986531285E+03  0.22278295040E+03 -0.84423138038E+03  0.89305438604E+03  0.12499985636E+03 0.  0.
          2    1    1    2  501    0 -0.23070629570E+03  0.25689433350E+03 -0.50271016100E+03  0.60986687025E+03  0.00000000000E+00 0. -1.
          1    1    1    2  502    0  0.90840982851E+02 -0.47967728389E+03  0.69803802709E+01  0.48825311731E+03  0.00000000000E+00 0. -1.
         22    1    3    3    0    0  0.99331036875E+02  0.77337540584E+02 -0.24955305923E+03  0.27950756599E+03  0.00000000000E+00 0. -1.
         22    1    3    3    0    0  0.40534275978E+02  0.14544540981E+03 -0.59467832114E+03  0.61354682006E+03  0.00000000000E+00 0. -1.
</event>
<event>
 7    1  0.4402832E-005  0.2619632E+03  0.7818608E-02  0.1330559E+00
          2   -1    0    0  502    0  0.00000000000E+00  0.00000000000E+00  0.63900328490E+02  0.63900328490E+02  0.00000000000E+00 0. -1.
          1   -1    0    0  501    0 -0.00000000000E+00 -0.00000000000E+00 -0.16094376292E+04  0.16094376292E+04  0.00000000000E+00 0. -1.
         25    2    1    2    0    0  0.17025368248E+03  0.19901815307E+03 -0.76979580844E+03  0.82268174983E+03  0.12500053268E+03 0.  0.
          2    1    1    2  501    0 -0.18823892900E+03 -0.18296281617E+03 -0.78271278143E+03  0.82555955854E+03  0.00000000000E+00 0. -1.
          1    1    1    2  502    0  0.17985246517E+02 -0.16055336903E+02  0.69712891398E+01  0.25096649331E+02  0.00000000000E+00 0. -1.
         22    1    3    3    0    0  0.10376597293E+03  0.18929921878E+03 -0.65510705198E+03  0.68975852363E+03  0.00000000000E+00 0.  1.
         22    1    3    3    0    0  0.66487709557E+02  0.97189342862E+01 -0.11468875646E+03  0.13292322620E+03  0.00000000000E+00 0.  1.
</event>
<event>
 7    1  0.4402832E-005  0.1608582E+03  0.7818608E-02  0.1246720E+00
          2   -1    0    0  502    0  0.00000000000E+00  0.00000000000E+00  0.12362795246E+03  0.12362795246E+03  0.00000000000E+00 0. -1.
          1   -1    0    0  501    0 -0.00000000000E+00 -0.00000000000E+00 -0.78177492381E+03  0.78177492381E+03  0.00000000000E+00 0. -1.
         25    2    1    2    0    0 -0.14156797180E+02  0.10709025134E+03 -0.19295248027E+03  0.25401749377E+03  0.12500196263E+03 0.  0.
          2    1    1    2  501    0 -0.62251298340E+01 -0.19096064572E+03 -0.51668676551E+03  0.55088105260E+03  0.00000000000E+00 0. -1.
          1    1    1    2  502    0  0.20381927014E+02  0.83870394379E+02  0.51492274437E+02  0.10050432990E+03  0.00000000000E+00 0. -1.
         22    1    3    3    0    0 -0.39456102747E+01  0.13370468289E+03 -0.17523643185E+03  0.22045479608E+03  0.00000000000E+00 0. -1.
         22    1    3    3    0    0 -0.10211186905E+02 -0.26614431548E+02 -0.17716048419E+02  0.33562697690E+02  0.00000000000E+00 0. -1.
</event>
<event>
 7    1  0.4402832E-005  0.7519618E+03  0.7818608E-02  0.1201739E+00
          2   -1    0    0  502    0  0.00000000000E+00  0.00000000000E+00  0.93401753515E+03  0.93401753515E+03  0.00000000000E+00 0. -1.
          1   -1    0    0  501    0 -0.00000000000E+00 -0.00000000000E+00 -0.13182306607E+04  0.13182306607E+04  0.00000000000E+00 0. -1.
         25    2    1    2    0    0  0.22934750576E+03 -0.72006730642E+03 -0.43898101095E+03  0.88285159203E+03  0.12500160556E+03 0.  0.
          2    1    1    2  501    0 -0.25420019271E+03  0.70414832239E+03 -0.44357985946E+03  0.87017566595E+03  0.00000000000E+00 0. -1.
          1    1    1    2  502    0  0.24852686947E+02  0.15918984037E+02  0.49834774481E+03  0.49922093792E+03  0.00000000000E+00 0. -1.
         22    1    3    3    0    0  0.23971563650E+03 -0.61278224334E+03 -0.38399162787E+03  0.76184987656E+03  0.00000000000E+00 0.  1.
         22    1    3    3    0    0 -0.10368130735E+02 -0.10728506308E+03 -0.54989383074E+02  0.12100171547E+03  0.00000000000E+00 0.  1.
</event>
<event>
 7    1  0.4402832E-005  0.1992750E+03  0.7818608E-02  0.1290434E+00
          2   -1    0    0  502    0  0.00000000000E+00  0.00000000000E+00  0.86635860771E+03  0.86635860771E+03  0.00000000000E+00 0. -1.
          1   -1    0    0  501    0 -0.00000000000E+00 -0.00000000000E+00 -0.20164123639E+04  0.20164123639E+04  0.00000000000E+00 0. -1.
         25    2    1    2    0    0  0.95325090689E+02  0.18705359593E+03  0.53181995070E+03  0.58526317721E+03  0.12499842390E+03 0.  0.
          2    1    1    2  501    0  0.23501460094E+02 -0.39082573265E+02 -0.19601498362E+04  0.19606802764E+04  0.00000000000E+00 0. -1.
          1    1    1    2  502    0 -0.11882655078E+03 -0.14797102266E+03  0.27827612929E+03  0.33682751795E+03  0.00000000000E+00 0. -1.
         22    1    3    3    0    0  0.22275161871E+02  0.13349823155E+03  0.42051991739E+03  0.44176346792E+03  0.00000000000E+00 0.  1.
         22    1    3    3    0    0  0.73049928818E+02  0.53555364382E+02  0.11130003331E+03  0.14349970930E+03  0.00000000000E+00 0.  1.
</event>
<event>
 7    1  0.4402832E-005  0.5361714E+03  0.7818608E-02  0.1166384E+00
          2   -1    0    0  502    0  0.00000000000E+00  0.00000000000E+00  0.30249526204E+04  0.30249526204E+04  0.00000000000E+00 0. -1.
          1   -1    0    0  501    0 -0.00000000000E+00 -0.00000000000E+00 -0.51276449566E+03  0.51276449566E+03  0.00000000000E+00 0. -1.
         25    2    1    2    0    0  0.44210605465E+03 -0.29236102373E+03  0.83185066647E+01  0.54463353981E+03  0.12499505342E+03 0.  0.
          2    1    1    2  501    0 -0.48480640201E+03  0.24820980529E+03  0.59443428065E+02  0.54788582388E+03  0.00000000000E+00 0. -1.
          1    1    1    2  502    0  0.42700347357E+02  0.44151218439E+02  0.24444261900E+04  0.24451977524E+04  0.00000000000E+00 0. -1.
         22    1    3    3    0    0  0.32826352573E+03 -0.26084702638E+03  0.43108121859E+02  0.42149308851E+03  0.00000000000E+00 0. -1.
         22    1    3    3    0    0  0.11384252893E+03 -0.31513997354E+02 -0.34789615195E+02  0.12314045130E+03  0.00000000000E+00 0. -1.
</event>
<event>
 7    1  0.4402832E-005  0.2004552E+03  0.7818608E-02  0.1291420E+00
          2   -1    0    0  502    0  0.00000000000E+00  0.00000000000E+00  0.19097714726E+04  0.19097714726E+04  0.00000000000E+00 0. -1.
          1   -1    0    0  501    0 -0.00000000000E+00 -0.00000000000E+00 -0.24786055432E+03  0.24786055432E+03  0.00000000000E+00 0. -1.
         25    2    1    2    0    0  0.17049505393E+03  0.43971801923E+02  0.75617358881E+03  0.78639968758E+03  0.12499555762E+03 0.  0.
          2    1    1    2  501    0  0.44131709489E+02 -0.83793523628E+01 -0.22006431215E+03  0.22460214338E+03  0.00000000000E+00 0. -1.
          1    1    1    2  502    0 -0.21462676342E+03 -0.35592449560E+02  0.11258016417E+04  0.11466301960E+04  0.00000000000E+00 0. -1.
         22    1    3    3    0    0 -0.10599133606E+01 -0.28962318760E+02  0.12202170367E+03  0.12541624891E+03  0.00000000000E+00 0. -1.
         22    1    3    3    0    0  0.17155496729E+03  0.72934120683E+02  0.63415188514E+03  0.66098343867E+03  0.00000000000E+00 0. -1.
</event>
<event>
 7    1  0.4402832E-005  0.4527478E+02  0.7818608E-02  0.1491051E+00
          2   -1    0    0  502    0  0.00000000000E+00  0.00000000000E+00  0.33659707955E+04  0.33659707955E+04  0.00000000000E+00 0. -1.
          1   -1    0    0  501    0 -0.00000000000E+00 -0.00000000000E+00 -0.14830618423E+02  0.14830618423E+02  0.00000000000E+00 0. -1.
         25    2    1    2    0    0  0.51406330594E+02  0.19723605307E+02  0.13681532482E+04  0.13749545896E+04  0.12500072497E+03 0.  0.
          2    1    1    2  501    0 -0.33046512412E+02  0.22117585291E+02  0.24247810311E+02  0.46574841563E+02  0.00000000000E+00 0. -1.
          1    1    1    2  502    0 -0.18359818182E+02 -0.41841190599E+02  0.19587391185E+04  0.19592719828E+04  0.00000000000E+00 0. -1.
         22    1    3    3    0    0  0.34194271426E+02 -0.31842040196E+02  0.19414418269E+03  0.19968757446E+03  0.00000000000E+00 0. -1.
         22    1    3    3    0    0  0.17212059168E+02  0.51565645504E+02  0.11740090655E+04  0.11752670151E+04  0.00000000000E+00 0. -1.
</event>
<event>
 7    1  0.4402832E-005  0.6471145E+03  0.7818608E-02  0.1097930E+00
          2   -1    0    0  502    0  0.00000000000E+00  0.00000000000E+00  0.16037419717E+04  0.16037419717E+04  0.00000000000E+00 0. -1.
          1   -1    0    0  501    0 -0.00000000000E+00 -0.00000000000E+00 -0.11998653818E+04  0.11998653818E+04  0.00000000000E+00 0. -1.
         25    2    1    2    0    0 -0.63262323467E+03 -0.38714430643E+03  0.81013240671E+02  0.75649257523E+03  0.12500000068E+03 0.  0.
          2    1    1    2  501    0  0.99908507080E+02  0.62148925292E+02 -0.77522350215E+03  0.78410182820E+03  0.00000000000E+00 0. -1.
          1    1    1    2  502    0  0.53271472759E+03  0.32499538113E+03  0.10980868514E+04  0.12630129500E+04  0.00000000000E+00 0. -1.
         22    1    3    3    0    0 -0.19687717619E+03 -0.17166444420E+03  0.69274875010E+02  0.27023751074E+03  0.00000000000E+00 0.  1.
         22    1    3    3    0    0 -0.43574605848E+03 -0.21547986223E+03  0.11738365661E+02  0.48625506448E+03  0.00000000000E+00 0.  1.
</event>
<event>
 7    1  0.4402832E-005  0.9297625E+03  0.7818608E-02  0.1126044E+00
          2   -1    0    0  502    0  0.00000000000E+00  0.00000000000E+00  0.19698995047E+04  0.19698995047E+04  0.00000000000E+00 0. -1.
          1   -1    0    0  501    0 -0.00000000000E+00 -0.00000000000E+00 -0.84105712652E+03  0.84105712652E+03  0.00000000000E+00 0. -1.
         25    2    1    2    0    0  0.92772101593E+03 -0.28528273277E+03  0.19928119691E+03  0.99869421336E+03  0.12499846134E+03 0.  0.
          2    1    1    2  501    0 -0.51088934113E+02  0.25984165312E+02 -0.28578594260E+03  0.29147703344E+03  0.00000000000E+00 0. -1.
          1    1    1    2  502    0 -0.87663208181E+03  0.25929856746E+03  0.12153471238E+04  0.15207853844E+04  0.00000000000E+00 0. -1.
         22    1    3    3    0    0  0.75686314303E+03 -0.26437096244E+03  0.12573040125E+03  0.81150598079E+03  0.00000000000E+00 0. -1.
         22    1    3    3    0    0  0.17085787290E+03 -0.20911770334E+02  0.73550795659E+02  0.18718823257E+03  0.00000000000E+00 0. -1.
</event>
<event>
 7    1  0.4402832E-005  0.2946227E+03  0.7818608E-02  0.1217877E+00
          2   -1    0    0  502    0  0.00000000000E+00  0.00000000000E+00  0.15501468953E+03  0.15501468953E+03  0.00000000000E+00 0. -1.
          1   -1    0    0  501    0 -0.00000000000E+00 -0.00000000000E+00 -0.84966656476E+03  0.84966656476E+03  0.00000000000E+00 0. -1.
         25    2    1    2    0    0 -0.14161621890E+03  0.28586506659E+03 -0.22081813764E+03  0.40762725818E+03  0.12500136776E+03 0.  0.
          2    1    1    2  501    0  0.79353489241E+02 -0.27390285650E+03 -0.44225967070E+03  0.52622558602E+03  0.00000000000E+00 0. -1.
          1    1    1    2  502    0  0.62262729662E+02 -0.11962210095E+02 -0.31574066886E+02  0.70828410084E+02  0.00000000000E+00 0. -1.
         22    1    3    3    0    0 -0.10869843795E+03  0.28811003302E+03 -0.21069329940E+03  0.37311447031E+03  0.00000000000E+00 0. -1.
         22    1    3    3    0    0 -0.32917780951E+02 -0.22449664292E+01 -0.10124838241E+02  0.34512787868E+02  0.00000000000E+00 0. -1.
</event>
<event>
 7    1  0.4402832E-005  0.3465089E+03  0.7818608E-02  0.1210540E+00
          2   -1    0    0  502    0  0.00000000000E+00  0.00000000000E+00  0.11250998427E+04  0.11250998427E+04  0.00000000000E+00 0. -1.
          1   -1    0    0  501    0 -0.00000000000E+00 -0.00000000000E+00 -0.46505935581E+03  0.46505935581E+03  0.00000000000E+00 0. -1.
         25    2    1    2    0    0  0.24543984817E+03  0.25072932202E+03  0.40067580994E+03  0.54705800036E+03  0.12500175638E+03 0.  0.
          2    1    1    2  501    0 -0.19789155579E+03 -0.28440896647E+03 -0.31351258751E+03  0.46726830685E+03  0.00000000000E+00 0. -1.
          1    1    1    2  502    0 -0.47548292383E+02  0.33679644448E+02  0.57287726451E+03  0.57583289134E+03  0.00000000000E+00 0. -1.
         22    1    3    3    0    0  0.58666836403E+02  0.24310972870E+02  0.20434227212E+02  0.66711159016E+02  0.00000000000E+00 0.  1.
         22    1    3    3    0    0  0.18677301177E+03  0.22641834915E+03  0.38024158273E+03  0.48034684135E+03  0.00000000000E+00 0.  1.
</event>
<event>
 7    1  0.4402832E-005  0.3633608E+02  0.7818608E-02  0.1550525E+00
          2   -1    0    0  502    0  0.00000000000E+00  0.00000000000E+00  0.24466868574E+03  0.24466868574E+03  0.00000000000E+00 0. -1.
          1   -1    0    0  501    0 -0.00000000000E+00 -0.00000000000E+00 -0.15082949172E+04  0.15082949172E+04  0.00000000000E+00 0. -1.
         25    2    1    2    0    0 -0.61675203412E+01 -0.21634851921E+01 -0.25676500481E+03  0.28565043361E+03  0.12500073419E+03 0.  0.
          2    1    1    2  501    0 -0.23120865130E+02  0.23963001107E+02 -0.12354139269E+04  0.12358626019E+04  0.00000000000E+00 0. -1.
          1    1    1    2  502    0  0.29288385471E+02 -0.21799515915E+02  0.22855270024E+03  0.23145056752E+03  0.00000000000E+00 0. -1.
         22    1    3    3    0    0 -0.29475195377E+02 -0.56185871899E+02 -0.16348436296E+03  0.17536469507E+03  0.00000000000E+00 0.  1.
         22    1    3    3    0    0  0.23307675036E+02  0.54022386706E+02 -0.93280641850E+02  0.11028573854E+03  0.00000000000E+00 0.  1.
</event>
<event>
 7    1  0.4402832E-005  0.5735746E+03  0.7818608E-02  0.1152448E+00
          2   -1    0    0  502    0  0.00000000000E+00  0.00000000000E+00  0.26326130412E+04  0.26326130412E+04  0.00000000000E+00 0. -1.
          1   -1    0    0  501    0 -0.00000000000E+00 -0.00000000000E+00 -0.82840056983E+03  0.82840056983E+03  0.00000000000E+00 0. -1.
         25    2    1    2    0    0  0.33491906177E+03  0.49506583470E+03 -0.33162701379E+03  0.69488259138E+03  0.12499752360E+03 0.  0.
          2    1    1    2  501    0 -0.27216530573E+03 -0.47009400449E+03 -0.80180374212E+02  0.54908216061E+03  0.00000000000E+00 0. -1.
          1    1    1    2  502    0 -0.62753756048E+02 -0.24971830215E+02  0.22160198594E+04  0.22170488590E+04  0.00000000000E+00 0. -1.
         22    1    3    3    0    0  0.48818899649E+01  0.80897673946E+02 -0.45615856318E+02  0.93000391651E+02  0.00000000000E+00 0.  1.
         22    1    3    3    0    0  0.33003717181E+03  0.41416816075E+03 -0.28601115747E+03  0.60188219973E+03  0.00000000000E+00 0.  1.
</event>
<event>
 7    1  0.4402832E-005  0.1163172E+04  0.7818608E-02  0.1104419E+00
          2   -1    0    0  502    0  0.00000000000E+00  0.00000000000E+00  0.26131460163E+04  0.26131460163E+04  0.00000000000E+00 0. -1.
          1   -1    0    0  501    0 -0.00000000000E+00 -0.00000000000E+00 -0.16746735152E+04  0.16746735152E+04  0.00000000000E+00 0. -1.
         25    2    1    2    0    0  0.96101523661E+03  0.66506760192E+03  0.64828835559E+03  0.13422995793E+04  0.12500067353E+03 0.  0.
          2    1    1    2  501    0 -0.41847548333E+02  0.43255156649E+02 -0.11186718524E+04  0.11202896675E+04  0.00000000000E+00 0. -1.
          1    1    1    2  502    0 -0.91916768828E+03 -0.70832275857E+03  0.14088559978E+04  0.18252302847E+04  0.00000000000E+00 0. -1.
         22    1    3    3    0    0  0.64585758407E+03  0.44360503662E+03  0.36629867477E+03  0.86492321425E+03  0.00000000000E+00 0.  1.
         22    1    3    3    0    0  0.31515765254E+03  0.22146256530E+03  0.28198968082E+03  0.47737636502E+03  0.00000000000E+00 0.  1.
</event>
<event>
 7    1  0.4402832E-005  0.1671795E+03  0.7818608E-02  0.1229867E+00
          2   -1    0    0  502    0  0.00000000000E+00  0.00000000000E+00  0.37562104992E+04  0.37562104992E+04  0.00000000000E+00 0. -1.
          1   -1    0    0  501    0 -0.00000000000E+00 -0.00000000000E+00 -0.58679003173E+03  0.58679003173E+03  0.00000000000E+00 0. -1.
         25    2    1    2    0    0 -0.13700183842E+03  0.11965697879E+02 -0.46536398552E+03  0.50110811895E+03  0.12503210067E+03 0.  0.
          2    1    1    2  501    0 -0.63593636709E+01 -0.98392566701E+02 -0.77762835833E+02  0.12557307564E+03  0.00000000000E+00 0. -1.
          1    1    1    2  502    0  0.14336120209E+03  0.86426868822E+02  0.37125472888E+04  0.37163193364E+04  0.00000000000E+00 0. -1.
         22    1    3    3    0    0 -0.28413758233E+02  0.45691432217E+02 -0.62326974506E+02  0.82338936027E+02  0.00000000000E+00 0. -1.
         22    1    3    3    0    0 -0.10858808018E+03 -0.33725734338E+02 -0.40303701102E+03  0.41876918292E+03  0.00000000000E+00 0. -1.
</event>
<event>
 7    1  0.4402832E-005  0.2664579E+03  0.7818608E-02  0.1270069E+00
          2   -1    0    0  502    0  0.00000000000E+00  0.00000000000E+00  0.28229826100E+04  0.28229826100E+04  0.00000000000E+00 0. -1.
          1   -1    0    0  501    0 -0.00000000000E+00 -0.00000000000E+00 -0.54268655710E+02  0.54268655710E+02  0.00000000000E+00 0. -1.
         25    2    1    2    0    0 -0.26210592586E+03  0.29672982337E+02  0.50747634524E+03  0.58543903854E+03  0.12500649834E+03 0.  0.
          2    1    1    2  501    0  0.27459383468E+03  0.97950531001E+01  0.12551460867E+04  0.12848694159E+04  0.00000000000E+00 0. -1.
          1    1    1    2  502    0 -0.12487908823E+02 -0.39468035437E+02  0.10060915224E+04  0.10069428113E+04  0.00000000000E+00 0. -1.
         22    1    3    3    0    0 -0.11512187206E+03  0.23553999989E+02  0.10747847584E+03  0.15924653563E+03  0.00000000000E+00 0. -1.
         22    1    3    3    0    0 -0.14698405379E+03  0.61189823473E+01  0.39999786940E+03  0.42619250291E+03  0.00000000000E+00 0. -1.
</event>
<event>
 7    1  0.4402832E-005  0.2429952E+03  0.7818608E-02  0.1152032E+00
          2   -1    0    0  502    0  0.00000000000E+00  0.00000000000E+00  0.84017637103E+02  0.84017637103E+02  0.00000000000E+00 0. -1.
          1   -1    0    0  501    0 -0.00000000000E+00 -0.00000000000E+00 -0.25154236127E+04  0.25154236127E+04  0.00000000000E+00 0. -1.
         25    2    1    2    0    0 -0.24233157796E+03 -0.24575880031E+02 -0.72092305511E+03  0.77115682826E+03  0.12499693927E+03 0.  0.
          2    1    1    2  501    0  0.22344326058E+02  0.15864190047E+03 -0.14606802605E+04  0.14694398064E+04  0.00000000000E+00 0. -1.
          1    1    1    2  502    0  0.21998725190E+03 -0.13406602044E+03 -0.24980266008E+03  0.35884461514E+03  0.00000000000E+00 0. -1.
         22    1    3    3    0    0 -0.73814483586E+02  0.40513017260E+02 -0.14623303309E+03  0.16874235545E+03  0.00000000000E+00 0. -1.
         22    1    3    3    0    0 -0.16851709437E+03 -0.65088897291E+02 -0.57469002202E+03  0.60241447281E+03  0.00000000000E+00 0. -1.
</event>
<event>
 7    1  0.4402832E-005  0.6170231E+03  0.7818608E-02  0.1188977E+00
          2   -1    0    0  502    0  0.00000000000E+00  0.00000000000E+00  0.25265364770E+04  0.25265364770E+04  0.00000000000E+00 0. -1.
          1   -1    0    0  501    0 -0.00000000000E+00 -0.00000000000E+00 -0.79252898621E+03  0.79252898621E+03  0.00000000000E+00 0. -1.
         25    2    1    2    0    0  0.36053156053E+03 -0.46493679889E+03  0.14631556812E+04  0.15819606116E+04  0.12500238398E+03 0.  0.
          2    1    1    2  501    0 -0.40128200206E+03  0.47201629819E+03 -0.60166220633E+03  0.86361104756E+03  0.00000000000E+00 0. -1.
          1    1    1    2  502    0  0.40750441532E+02 -0.70794993072E+01  0.87251401584E+03  0.87349380400E+03  0.00000000000E+00 0. -1.
         22    1    3    3    0    0  0.11306827336E+03 -0.22646849390E+03  0.71974894363E+03  0.76296196172E+03  0.00000000000E+00 0. -1.
         22    1    3    3    0    0  0.24746328717E+03 -0.23846830499E+03  0.74340673762E+03  0.81899864989E+03  0.00000000000E+00 0. -1.
</event>
<event>
 7    1  0.4402832E-005  0.1285892E+03  0.7818608E-02  0.1391246E+00
          2   -1    0    0  502    0  0.00000000000E+00  0.00000000000E+00  0.11554777203E+04  0.11554777203E+04  0.00000000000E+00 0. -1.
          1   -1    0    0  501    0 -0.00000000000E+00 -0.00000000000E+00 -0.23096633901E+03  0.23096633901E+03  0.00000000000E+00 0. -1.
         25    2    1    2    0    0 -0.10100957909E+03 -0.55001065459E+01  0.26157147593E+03  0.30704869089E+03  0.12500430119E+03 0.  0.
          2    1    1    2  501    0  0.13019739884E+03  0.98285506532E+01 -0.18747874384E+03  0.22846496988E+03  0.00000000000E+00 0. -1.
          1    1    1    2  502    0 -0.29187819745E+02 -0.43284441073E+01  0.85041864920E+03  0.85093039853E+03  0.00000000000E+00 0. -1.
         22    1    3    3    0    0 -0.60506442543E+02  0.99833637839E+01  0.24488884363E+02  0.66033344600E+02  0.00000000000E+00 0.  1.
         22    1    3    3    0    0 -0.40503136552E+02 -0.15483470330E+02  0.23708259157E+03  0.24101534629E+03  0.00000000000E+00 0.  1.
</event>
<event>
 7    1  0.4402832E-005  0.4762395E+03  0.7818608E-02  0.1229628E+00
          2   -1    0    0  502    0  0.00000000000E+00  0.00000000000E+00  0.13415436771E+04  0.13415436771E+04  0.00000000000E+00 0. -1.
          1   -1    0    0  501    0 -0.00000000000E+00 -0.00000000000E+00 -0.24000175018E+03  0.24000175018E+03  0.00000000000E+00 0. -1.
         25    2    1    2    0    0  0.37847095921E+03 -0.31711415332E+03  0.40510840698E+03  0.65079880298E+03  0.12499842941E+03 0.  0.
          2    1    1    2  501    0 -0.34670609941E+02  0.13637374218E+01 -0.43643015550E+02  0.55755033672E+02  0.00000000000E+00 0. -1.
          1    1    1    2  502    0 -0.34380034927E+03  0.31575041590E+03  0.74007653551E+03  0.87499159065E+03  0.00000000000E+00 0. -1.
         22    1    3    3    0    0  0.71386470331E+02 -0.74221590416E+02  0.26916013151E+02  0.10643939306E+03  0.00000000000E+00 0. -1.
         22    1    3    3    0    0  0.30708448888E+03 -0.24289256290E+03  0.37819239383E+03  0.54435940993E+03  0.00000000000E+00 0. -1.
</event>
<event>
 7    1  0.4402832E-005  0.2774997E+03  0.7818608E-02  0.1112629E+00
          2   -1    0    0  502    0  0.00000000000E+00  0.00000000000E+00  0.17044463952E+04  0.17044463952E+04  0.00000000000E+00 0. -1.
          1   -1    0    0  501    0 -0.00000000000E+00 -0.00000000000E+00 -0.84484909719E+03  0.84484909719E+03  0.00000000000E+00 0. -1.
         25    2    1    2    0    0 -0.68450411649E+02 -0.20128879990E+03 -0.44884080822E+02  0.25068461105E+03  0.12500221472E+03 0.  0.
          2    1    1    2  501    0  0.28721975288E+03  0.14011538338E+03 -0.65175267595E+03  0.72588501686E+03  0.00000000000E+00 0. -1.
          1    1    1    2  502    0 -0.21876934123E+03  0.61173416523E+02  0.15562340547E+04  0.15727258644E+04  0.00000000000E+00 0. -1.
         22    1    3    3    0    0  0.25991715764E+02 -0.10261337179E+03 -0.42525554343E+02  0.11407671161E+03  0.00000000000E+00 0.  1.
         22    1    3    3    0    0 -0.94442127413E+02 -0.98675428113E+02 -0.23585264788E+01  0.13660789944E+03  0.00000000000E+00 0.  1.
</event>
<event>
 7    1  0.4402832E-005  0.5743767E+03  0.7818608E-02  0.1242059E+00
          2   -1    0    0  502    0  0.00000000000E+00  0.00000000000E+00  0.17166274609E+04  0.17166274609E+04  0.00000000000E+00 0. -1.
          1   -1    0    0  501    0 -0.00000000000E+00 -0.00000000000E+00 -0.65781294142E+03  0.65781294142E+03  0.00000000000E+00 0. -1.
         25    2    1    2    0    0 -0.11334645905E+03 -0.55813815889E+03  0.91405317831E+03  0.10841978062E+04  0.12500418359E+03 0.  0.
          2    1    1    2  501    0  0.19925559989E+02 -0.15647677913E+02 -0.45457501663E+03  0.45528048883E+03  0.00000000000E+00 0. -1.
          1    1    1    2  502    0  0.93420899059E+02  0.57378583680E+03  0.59933635778E+03  0.83496210731E+03  0.00000000000E+00 0. -1.
         22    1    3    3    0    0 -0.11408766621E+03 -0.44121821844E+03  0.80093094742E+03  0.92150957369E+03  0.00000000000E+00 0.  1.
         22    1    3    3    0    0  0.74120716174E+00 -0.11691994045E+03  0.11312223089E+03  0.16268823247E+03  0.00000000000E+00 0.  1.
</event>
<event>
 7    1  0.4402832E-005  0.1856113E+03  0.7818608E-02  0.1174207E+00
          2   -1    0    0  502    0  0.00000000000E+00  0.00000000000E+00  0.40164513828E+03  0.40164513828E+03  0.00000000000E+00 0. -1.
          1   -1    0    0  501    0 -0.00000000000E+00 -0.00000000000E+00 -0.50108286245E+03  0.50108286245E+03  0.00000000000E+00 0. -1.
         25    2    1    2    0    0 -0.24877198267E+02 -0.16938828631E+03  0.12085563105E+03  0.24401350498E+03  0.12500096208E+03 0.  0.
          2    1    1    2  501    0 -0.15960329039E+03  0.29194533805E+02 -0.35526635306E+03  0.39056332742E+03  0.00000000000E+00 0. -1.
          1    1    1    2  502    0  0.18448048866E+03  0.14019375251E+03  0.13497299783E+03  0.26815116834E+03  0.00000000000E+00 0. -1.
         22    1    3    3    0    0 -0.57649080126E+02 -0.15819324852E+03  0.69675088762E+02  0.18221728324E+03  0.00000000000E+00 0.  1.
         22    1    3    3    0    0  0.32771881860E+02 -0.11195037790E+02  0.51180542290E+02  0.61796221736E+02  0.00000000000E+00 0.  1.
</event>
<event>
 7    1  0.4402832E-005  0.5998007E+03  0.7818608E-02  0.1188385E+00
          2   -1    0    0  502    0  0.00000000000E+00  0.00000000000E+00  0.51038253424E+03  0.51038253424E+03  0.00000000000E+00 0. -1.
          1   -1    0    0  501    0 -0.00000000000E+00 -0.00000000000E+00 -0.19336450792E+04  0.19336450792E+04  0.00000000000E+00 0. -1.
         25    2    1    2    0    0 -0.60464575554E+03  0.63888459133E+02  0.17497400714E+03  0.64491525317E+03  0.12498622203E+03 0.  0.
          2    1    1    2  501    0  0.38949965067E+02  0.17809210419E+02 -0.88076471197E+03  0.88180538987E+03  0.00000000000E+00 0. -1.
          1    1    1    2  502    0  0.56569579047E+03 -0.81697669552E+02 -0.71747184015E+03  0.91730697041E+03  0.00000000000E+00 0. -1.
         22    1    3    3    0    0 -0.29150935774E+03 -0.23172569108E+02  0.49846733428E+02  0.29664687836E+03  0.00000000000E+00 0.  1.
         22    1    3    3    0    0 -0.31313639780E+03  0.87061028242E+02  0.12512727371E+03  0.34826837481E+03  0.00000000000E+00 0.  1.
</event>
<event>
 7    1  0.4402832E-005  0.8991441E+02  0.7818608E-02  0.1440737E+00
          2   -1    0    0  502    0  0.00000000000E+00  0.00000000000E+00  0.26753618307E+03  0.26753618307E+03  0.00000000000E+00 0. -1.
          1   -1    0    0  501    0 -0.00000000000E+00 -0.00000000000E+00 -0.18410237592E+03  0.18410237592E+03  0.00000000000E+00 0. -1.
         25    2    1    2    0    0  0.14816499487E+02  0.10932985547E+03  0.21672250022E+01  0.16673894648E+03  0.12499853381E+03 0.  0.
          2    1    1    2  501    0 -0.18627351081E+02 -0.21930083354E+02 -0.88966278940E+02  0.93503505563E+02  0.00000000000E+00 0. -1.
          1    1    1    2  502    0  0.38108515941E+01 -0.87399772117E+02  0.17023286109E+03  0.19139610694E+03  0.00000000000E+00 0. -1.
         22    1    3    3    0    0 -0.54043627218E+02  0.60687657640E+02 -0.87265090769E+01  0.81730394550E+02  0.00000000000E+00 0.  1.
         22    1    3    3    0    0  0.68860126705E+02  0.48642197832E+02  0.10893734079E+02  0.85008551934E+02  0.00000000000E+00 0.  1.
</event>
<event>
 7    1  0.4402832E-005  0.3314160E+03  0.7818608E-02  0.1324034E+00
          2   -1    0    0  502    0  0.00000000000E+00  0.00000000000E+00  0.42851304856E+03  0.42851304856E+03  0.00000000000E+00 0. -1.
          1   -1    0    0  501    0 -0.00000000000E+00 -0.00000000000E+00 -0.13208094835E+04  0.13208094835E+04  0.00000000000E+00 0. -1.
         25    2    1    2    0    0 -0.34668895989E+03  0.34040631077E+02 -0.11903110024E+04  0.12465220346E+04  0.12499960246E+03 0.  0.
          2    1    1    2  501    0  0.18818142533E+02  0.73078021121E+01 -0.30663623022E+02  0.36712181043E+02  0.00000000000E+00 0. -1.
          1    1    1    2  502    0  0.32787081736E+03 -0.41348433189E+02  0.32867819053E+03  0.46608831646E+03  0.00000000000E+00 0. -1.
         22    1    3    3    0    0 -0.24956535401E+03 -0.25615440931E+02 -0.71502532072E+03  0.75776000555E+03  0.00000000000E+00 0.  1.
         22    1    3    3    0    0 -0.97123605880E+02  0.59656072008E+02 -0.47528568173E+03  0.48876202901E+03  0.00000000000E+00 0.  1.
</event>
<event>
 7    1  0.4402832E-005  0.5622844E+03  0.7818608E-02  0.1164044E+00
          2   -1    0    0  502    0  0.00000000000E+00  0.00000000000E+00  0.14178773812E+04  0.14178773812E+04  0.00000000000E+00 0. -1.
          1   -1    0    0  501    0 -0.00000000000E+00 -0.00000000000E+00 -0.25642171538E+04  0.25642171538E+04  0.00000000000E+00 0. -1.
         25    2    1    2    0    0  0.99682369621E+02 -0.56222100556E+03 -0.38363130277E+03  0.69916071154E+03  0.12499476065E+03 0.  0.
          2    1    1    2  501    0  0.55780865633E+02  0.22564180239E+02 -0.19597630108E+04  0.19606865393E+04  0.00000000000E+00 0. -1.
          1    1    1    2  502    0 -0.15546323525E+03  0.53965682532E+03  0.11970545409E+04  0.13222472841E+04  0.00000000000E+00 0. -1.
         22    1    3    3    0    0  0.29551746250E+02 -0.95422784092E+02 -0.16693485677E+02  0.10127924711E+03  0.00000000000E+00 0. -1.
         22    1    3    3    0    0  0.70130623371E+02 -0.46679822147E+03 -0.36693781710E+03  0.59788146443E+03  0.00000000000E+00 0. -1.
</event>
<event>
 7    1  0.4402832E-005  0.1421099E+03  0.7818608E-02  0.1280053E+00
          2   -1    0    0  502    0  0.00000000000E+00  0.00000000000E+00  0.99589704182E+03  0.99589704182E+03  0.00000000000E+00 0. -1.
          1   -1    0    0  501    0 -0.00000000000E+00 -0.00000000000E+00 -0.38084545461E+03  0.38084545461E+03  0.00000000000E+00 0. -1.
         25    2    1    2    0    0  0.11741662108E+02 -0.92264722261E+02  0.25988155095E+03  0.30300665950E+03  0.12499587823E+03 0.  0.
          2    1    1    2  501    0  0.70574966183E+01 -0.70177097899E+02 -0.34632450334E+03  0.35343357925E+03  0.00000000000E+00 0. -1.
          1    1    1    2  502    0 -0.18799158726E+02  0.16244182016E+03  0.70149453960E+03  0.72030225767E+03  0.00000000000E+00 0. -1.
         22    1    3    3    0    0 -0.78405980733E+01 -0.66872107245E+02  0.26234361460E+03  0.27084594483E+03  0.00000000000E+00 0.  1.
         22    1    3    3    0    0  0.19582260181E+02 -0.25392615016E+02 -0.24620636499E+01  0.32160714678E+02  0.00000000000E+00 0.  1.
</event>
<event>
 7    1  0.4402832E-005  0.2936817E+03  0.7818608E-02  0.1283078E+00
          2   -1    0    0  502    0  0.00000000000E+00  0.00000000000E+00  0.53679734919E+03  0.53679734919E+03  0.00000000000E+00 0. -1.
          1   -1    0    0  501    0 -0.00000000000E+00 -0.00000000000E+00 -0.22739040978E+03  0.22739040978E+03  0.00000000000E+00 0. -1.
         25    2    1    2    0    0 -0.29589139510E+03 -0.63462635175E+02  0.24722478473E+03  0.41028338718E+03  0.12503255515E+03 0.  0.
          2    1    1    2  501    0  0.25398432306E+02 -0.21324325802E+02 -0.40557758643E+02  0.52390256925E+02  0.00000000000E+00 0. -1.
          1    1    1    2  502    0  0.27049296280E+03  0.84786960977E+02  0.10273991333E+03  0.30151411487E+03  0.00000000000E+00 0. -1.
         22    1    3    3    0    0 -0.18875847316E+03 -0.89992686906E+02  0.11714526009E+03  0.23969033533E+03  0.00000000000E+00 0.  1.
         22    1    3    3    0    0 -0.10713292195E+03  0.26530051732E+02  0.13007952464E+03  0.17059305185E+03  0.00000000000E+00 0.  1.
</event>
<event>
 7    1  0.4402832E-005  0.7558451E+03  0.7818608E-02  0.1087307E+00
          2   -1    0    0  502    0  0.00000000000E+00  0.00000000000E+00  0.48227597164E+04  0.48227597164E+04  0.00000000000E+00 0. -1.
          1   -1    0    0  501    0 -0.00000000000E+00 -0.00000000000E+00 -0.44054558591E+03  0.44054558591E+03  0.00000000000E+00 0. -1.
         25    2    1    2    0    0 -0.76261978093E+03  0.32926466458E+03  0.20597514736E+04  0.22244559900E+04  0.12499667530E+03 0.  0.
          2    1    1    2  501    0  0.70721219726E+03 -0.22753377132E+03  0.30059916647E+02  0.74352155828E+03  0.00000000000E+00 0. -1.
          1    1    1    2  502    0  0.55407583674E+02 -0.10173089326E+03  0.22924027402E+04  0.22953277540E+04  0.00000000000E+00 0. -1.
         22    1    3    3    0    0 -0.68019514350E+03  0.28200134498E+03  0.17051110285E+04  0.18573082165E+04  0.00000000000E+00 0. -1.
         22    1    3    3    0    0 -0.82424637438E+02  0.47263319599E+02  0.35464044514E+03  0.36714777347E+03  0.00000000000E+00 0. -1.
</event>
<event>
 7    1  0.4402832E-005  0.1866771E+04  0.7818608E-02  0.1074851E+00
          2   -1    0    0  502    0  0.00000000000E+00  0.00000000000E+00  0.17304295180E+04  0.17304295180E+04  0.00000000000E+00 0. -1.
          1   -1    0    0  501    0 -0.00000000000E+00 -0.00000000000E+00 -0.31679391932E+04  0.31679391932E+04  0.00000000000E+00 0. -1.
         25    2    1    2    0    0 -0.26256459306E+03  0.18757393404E+04 -0.81777085492E+03  0.20668124046E+04  0.12500442434E+03 0.  0.
          2    1    1    2  501    0 -0.29843968315E+02 -0.46736966381E+02 -0.94871923782E+03  0.95033846533E+03  0.00000000000E+00 0. -1.
          1    1    1    2  502    0  0.29240856138E+03 -0.18290023740E+04  0.32898041751E+03  0.18812178412E+04  0.00000000000E+00 0. -1.
         22    1    3    3    0    0 -0.23271753807E+03  0.16840674953E+04 -0.77390867620E+03  0.18679334625E+04  0.00000000000E+00 0.  1.
         22    1    3    3    0    0 -0.29847054990E+02  0.19167184515E+03 -0.43862178723E+02  0.19887894217E+03  0.00000000000E+00 0.  1.
</event>
<event>
 7    1  0.4402832E-005  0.8806457E+03  0.7818608E-02  0.1062440E+00
          2   -1    0    0  502    0  0.00000000000E+00  0.00000000000E+00  0.24906463062E+04  0.24906463062E+04  0.00000000000E+00 0. -1.
          1   -1    0    0  501    0 -0.00000000000E+00 -0.00000000000E+00 -0.95351959823E+03  0.95351959823E+03  0.00000000000E+00 0. -1.
         25    2    1    2    0    0 -0.68094663416E+03 -0.34574822559E+03 -0.18188484396E+03  0.79494456141E+03  0.12499842073E+03 0.  0.
          2    1    1    2  501    0 -0.12418657450E+03 -0.63415815732E+02 -0.35808363096E+03  0.38427562729E+03  0.00000000000E+00 0. -1.
          1    1    1    2  502    0  0.80513320866E+03  0.40916404132E+03  0.20770951828E+04  0.22649457157E+04  0.00000000000E+00 0. -1.
         22    1    3    3    0    0 -0.49073677511E+03 -0.18416232230E+03 -0.12982888579E+03  0.53999433607E+03  0.00000000000E+00 0. -1.
         22    1    3    3    0    0 -0.19020985905E+03 -0.16158590329E+03 -0.52055958171E+02  0.25495022534E+03  0.00000000000E+00 0. -1.
</event>
<event>
 7    1  0.4402832E-005  0.1088731E+04  0.7818608E-02  0.1125308E+00
          2   -1    0    0  502    0  0.00000000000E+00  0.00000000000E+00  0.57524839791E+03  0.57524839791E+03  0.00000000000E+00 0. -1.
          1   -1    0    0  501    0 -0.00000000000E+00 -0.00000000000E+00 -0.41883657038E+04  0.41883657038E+04  0.00000000000E+00 0. -1.
         25    2    1    2    0    0  0.77453557423E+02 -0.10725064251E+04 -0.43162499998E+03  0.11654160125E+04  0.12500102465E+03 0.  0.
          2    1    1    2  501    0 -0.28266145807E+02 -0.40508843664E+02 -0.18978962372E+04  0.18985389300E+04  0.00000000000E+00 0. -1.
          1    1    1    2  502    0 -0.49187411616E+02  0.11130152688E+04 -0.12835960687E+04  0.16996591592E+04  0.00000000000E+00 0. -1.
         22    1    3    3    0    0 -0.19851541708E+02 -0.33879801276E+03 -0.95677850285E+02  0.35260803762E+03  0.00000000000E+00 0.  1.
         22    1    3    3    0    0  0.97305099131E+02 -0.73370841234E+03 -0.33594714969E+03  0.81280797489E+03  0.00000000000E+00 0.  1.
</event>
<event>
 7    1  0.4402832E-005  0.1822699E+03  0.7818608E-02  0.1183614E+00
          2   -1    0    0  502    0  0.00000000000E+00  0.00000000000E+00  0.77306011690E+02  0.77306011690E+02  0.00000000000E+00 0. -1.
          1   -1    0    0  501    0 -0.00000000000E+00 -0.00000000000E+00 -0.22054898102E+04  0.22054898102E+04  0.00000000000E+00 0. -1.
         25    2    1    2    0    0  0.20090935281E+03 -0.36075941599E+02 -0.10592144111E+04  0.10859226574E+04  0.12500723008E+03 0.  0.
          2    1    1    2  501    0 -0.15848879401E+03 -0.10635944966E+03 -0.10239478217E+04  0.10415854126E+04  0.00000000000E+00 0. -1.
          1    1    1    2  502    0 -0.42420558802E+02  0.14243539126E+03 -0.45021565763E+02  0.15528775185E+03  0.00000000000E+00 0. -1.
         22    1    3    3    0    0 -0.13263876191E+02 -0.70618102903E+01 -0.23467893346E+02  0.27866495909E+02  0.00000000000E+00 0.  1.
         22    1    3    3    0    0  0.21417322900E+03 -0.29014131308E+02 -0.10357465177E+04  0.10580561615E+04  0.00000000000E+00 0.  1.
</event>
<event>
 7    1  0.4402832E-005  0.1381886E+03  0.7818608E-02  0.1334999E+00
          2   -1    0    0  502    0  0.00000000000E+00  0.00000000000E+00  0.47675505162E+03  0.47675505162E+03  0.00000000000E+00 0. -1.
          1   -1    0    0  501    0 -0.00000000000E+00 -0.00000000000E+00 -0.44487305225E+04  0.44487305225E+04  0.00000000000E+00 0. -1.
         25    2    1    2    0    0 -0.14017167896E+03  0.44133425656E+02 -0.16975575866E+04  0.17084854935E+04  0.12500025132E+03 0.  0.
          2    1    1    2  501    0  0.26794776927E+02  0.34849640228E+02 -0.27354007399E+04  0.27357539482E+04  0.00000000000E+00 0. -1.
          1    1    1    2  502    0  0.11337690203E+03 -0.78983065884E+02  0.46098285569E+03  0.48124613230E+03  0.00000000000E+00 0. -1.
         22    1    3    3    0    0 -0.88372398758E+02  0.80237042992E+02 -0.81780084388E+03  0.82646590020E+03  0.00000000000E+00 0.  1.
         22    1    3    3    0    0 -0.51799280197E+02 -0.36103617336E+02 -0.87975674276E+03  0.88201959335E+03  0.00000000000E+00 0.  1.
</event>
<event>
 7    1  0.4402832E-005  0.2347222E+03  0.7818608E-02  0.1136132E+00
          2   -1    0    0  502    0  0.00000000000E+00  0.00000000000E+00  0.37754875548E+04  0.37754875548E+04  0.00000000000E+00 0. -1.
          1   -1    0    0  501    0 -0.00000000000E+00 -0.00000000000E+00 -0.19495246891E+04  0.19495246891E+04  0.00000000000E+00 0. -1.
         25    2    1    2    0    0 -0.38525935683E+03  0.58778547823E+02 -0.50155874202E+03  0.64735658036E+03  0.12501872149E+03 0.  0.
          2    1    1    2  501    0  0.21389007117E+03  0.45561872225E+02 -0.13636303658E+04  0.13810548944E+04  0.00000000000E+00 0. -1.
          1    1    1    2  502    0  0.17136928566E+03 -0.10434042005E+03  0.36911519735E+04  0.36966007692E+04  0.00000000000E+00 0. -1.
         22    1    3    3    0    0 -0.49190147396E+02  0.30841017535E+02 -0.14692984375E+03  0.15798486620E+03  0.00000000000E+00 0. -1.
         22    1    3    3    0    0 -0.33606920944E+03  0.27937530288E+02 -0.35462889827E+03  0.48937171416E+03  0.00000000000E+00 0. -1.
</event>
<event>
 7    1  0.4402832E-005  0.8780226E+03  0.7818608E-02  0.1117486E+00
          2   -1    0    0  502    0  0.00000000000E+00  0.00000000000E+00  0.27794662857E+04  0.27794662857E+04  0.00000000000E+00 0. -1.
          1   -1    0    0  501    0 -0.00000000000E+00 -0.00000000000E+00 -0.12897861714E+04  0.12897861714E+04  0.00000000000E+00 0. -1.
         25    2    1    2    0    0  0.33255782904E+03  0.76933139278E+03  0.25151831483E+03  0.88394138133E+03  0.12500160540E+03 0.  0.
          2    1    1    2  501    0  0.61326079720E+02  0.28265299819E+02 -0.88278917220E+03  0.88536802393E+03  0.00000000000E+00 0. -1.
          1    1    1    2  502    0 -0.39388390876E+03 -0.79759669260E+03  0.21209509717E+04  0.22999430519E+04  0.00000000000E+00 0. -1.
         22    1    3    3    0    0  0.49335447784E+02  0.15558197533E+03  0.14558460855E+01  0.16322333456E+03  0.00000000000E+00 0. -1.
         22    1    3    3    0    0  0.28322238126E+03  0.61374941745E+03  0.25006246875E+03  0.72071804677E+03  0.00000000000E+00 0. -1.
</event>
<event>
 7    1  0.4402832E-005  0.1498720E+03  0.7818608E-02  0.1254056E+00
          2   -1    0    0  502    0  0.00000000000E+00  0.00000000000E+00  0.48077238591E+03  0.48077238591E+03  0.00000000000E+00 0. -1.
          1   -1    0    0  501    0 -0.00000000000E+00 -0.00000000000E+00 -0.37868922826E+03  0.37868922826E+03  0.00000000000E+00 0. -1.
         25    2    1    2    0    0 -0.16847315530E+03 -0.77592450472E+02 -0.22393464139E+03  0.31650474482E+03  0.12499894981E+03 0.  0.
          2    1    1    2  501    0  0.83989066397E+02  0.94181307078E+02 -0.65434823698E+02  0.14214780346E+03  0.00000000000E+00 0. -1.
          1    1    1    2  502    0  0.84484088907E+02 -0.16588856605E+02  0.39145262274E+03  0.40080906589E+03  0.00000000000E+00 0. -1.
         22    1    3    3    0    0 -0.62642710693E+02 -0.20494046799E+02 -0.17442165673E+03  0.18645918989E+03  0.00000000000E+00 0.  1.
         22    1    3    3    0    0 -0.10583044461E+03 -0.57098403673E+02 -0.49512984661E+02  0.13004555494E+03  0.00000000000E+00 0.  1.
</event>
<event>
 7    1  0.4402832E-005  0.5339742E+02  0.7818608E-02  0.1529687E+00
          2   -1    0    0  502    0  0.00000000000E+00  0.00000000000E+00  0.16637825137E+03  0.16637825137E+03  0.00000000000E+00 0. -1.
          1   -1    0    0  501    0 -0.00000000000E+00 -0.00000000000E+00 -0.22657258416E+03  0.22657258416E+03  0.00000000000E+00 0. -1.
         25    2    1    2    0    0  0.20740029340E+02 -0.28886285963E+02  0.57151076899E+02  0.14197141456E+03  0.12500028251E+03 0.  0.
          2    1    1    2  501    0  0.23923126939E+02 -0.10055414250E+02 -0.16984263091E+03  0.17181369745E+03  0.00000000000E+00 0. -1.
          1    1    1    2  502    0 -0.44663156279E+02  0.38941700213E+02  0.52497221225E+02  0.79165723521E+02  0.00000000000E+00 0. -1.
         22    1    3    3    0    0 -0.22756603032E+02  0.24519806388E+02  0.64543788817E+02  0.72697899293E+02  0.00000000000E+00 0. -1.
         22    1    3    3    0    0  0.43496632372E+02 -0.53406092352E+02 -0.73927119172E+01  0.69273515267E+02  0.00000000000E+00 0. -1.
</event>
<event>
 7    1  0.4402832E-005  0.2824786E+03  0.7818608E-02  0.1156270E+00
          2   -1    0    0  502    0  0.00000000000E+00  0.00000000000E+00  0.20969874517E+04  0.20969874517E+04  0.00000000000E+00 0. -1.
          1   -1    0    0  501    0 -0.00000000000E+00 -0.00000000000E+00 -0.12013668743E+04  0.12013668743E+04  0.00000000000E+00 0. -1.
         25    2    1    2    0    0 -0.30428536819E+03 -0.10682019726E+03  0.65255347138E+03  0.73854689581E+03  0.12500137787E+03 0.  0.
          2    1    1    2  501    0  0.20563925778E+03  0.19319060769E+03 -0.11380376702E+04  0.11724930081E+04  0.00000000000E+00 0. -1.
          1    1    1    2  502    0  0.98646110419E+02 -0.86370410434E+02  0.13811047762E+04  0.13873144221E+04  0.00000000000E+00 0. -1.
         22    1    3    3    0    0 -0.28920697283E+03 -0.12718986782E+03  0.56427434961E+03  0.64670200033E+03  0.00000000000E+00 0.  1.
         22    1    3    3    0    0 -0.15078395362E+02  0.20369670558E+02  0.88279121771E+02  0.91844895482E+02  0.00000000000E+00 0.  1.
</event>
<event>
 7    1  0.4402832E-005  0.5661134E+03  0.7818608E-02  0.1075440E+00
          2   -1    0    0  502    0  0.00000000000E+00  0.00000000000E+00  0.12018609621E+04  0.12018609621E+04  0.00000000000E+00 0. -1.
          1   -1    0    0  501    0 -0.00000000000E+00 -0.00000000000E+00 -0.11252906541E+04  0.11252906541E+04  0.00000000000E+00 0. -1.
         25    2    1    2    0    0 -0.36193747600E+03  0.56111807251E+03  0.27142046784E+03  0.73153694281E+03  0.12500000204E+03 0.  0.
          2    1    1    2  501    0  0.39633174735E+03 -0.38301219605E+03 -0.79572024046E+03  0.96796068998E+03  0.00000000000E+00 0. -1.
          1    1    1    2  502    0 -0.34394271358E+02 -0.17810587646E+03  0.60087008057E+03  0.62765398338E+03  0.00000000000E+00 0. -1.
         22    1    3    3    0    0 -0.32316285271E+03  0.46730491597E+03  0.18296973246E+03  0.59689700691E+03  0.00000000000E+00 0.  1.
         22    1    3    3    0    0 -0.38774623286E+02  0.93813156537E+02  0.88450735380E+02  0.13463993590E+03  0.00000000000E+00 0.  1.
</event>
<event>
 7    1  0.4402832E-005  0.1102248E+03  0.7818608E-02  0.1364639E+00
          2   -1    0    0  502    0  0.00000000000E+00  0.00000000000E+00  0.65558154754E+02  0.65558154754E+02  0.00000000000E+00 0. -1.
          1   -1    0    0  501    0 -0.00000000000E+00 -0.00000000000E+00 -0.54021955288E+03  0.54021955288E+03  0.00000000000E+00 0. -1.
         25    2    1    2    0    0 -0.11789207028E+03 -0.10940054581E+02 -0.10161818719E+03  0.19992395136E+03  0.12500042133E+03 0.  0.
          2    1    1    2  501    0  0.24663198260E+02 -0.34972557545E+02 -0.19553216594E+03  0.20016038831E+03  0.00000000000E+00 0. -1.
          1    1    1    2  502    0  0.93228872016E+02  0.45912612127E+02 -0.17751104499E+03  0.20569336796E+03  0.00000000000E+00 0. -1.
         22    1    3    3    0    0 -0.34159652056E+02  0.18285196750E+02  0.24428599647E+02  0.45803785100E+02  0.00000000000E+00 0. -1.
         22    1    3    3    0    0 -0.83732418220E+02 -0.29225251332E+02 -0.12604678684E+03  0.15412016626E+03  0.00000000000E+00 0. -1.
</event>
<event>
 7    1  0.4402832E-005  0.1291414E+03  0.7818608E-02  0.1258850E+00
          2   -1    0    0  502    0  0.00000000000E+00  0.00000000000E+00  0.21080679942E+04  0.21080679942E+04  0.00000000000E+00 0. -1.
          1   -1    0    0  501    0 -0.00000000000E+00 -0.00000000000E+00 -0.64358012400E+03  0.64358012400E+03  0.00000000000E+00 0. -1.
         25    2    1    2    0    0  0.17969679334E+03 -0.10428299872E+03 -0.10854678898E+03  0.26565661170E+03  0.12500059433E+03 0.  0.
          2    1    1    2  501    0 -0.11724533552E+03  0.32306174530E+02 -0.44723521198E+03  0.46347544967E+03  0.00000000000E+00 0. -1.
          1    1    1    2  502    0 -0.62451457822E+02  0.71976824189E+02  0.20202698712E+04  0.20225160569E+04  0.00000000000E+00 0. -1.
         22    1    3    3    0    0  0.42289528859E+02  0.76579662739E+00  0.23191876545E+02  0.48237473330E+02  0.00000000000E+00 0.  1.
         22    1    3    3    0    0  0.13740726448E+03 -0.10504879535E+03 -0.13173866552E+03  0.21741913837E+03  0.00000000000E+00 0.  1.
</event>
<event>
 7    1  0.4402832E-005  0.1262373E+04  0.7818608E-02  0.1106050E+00
          2   -1    0    0  502    0  0.00000000000E+00  0.00000000000E+00  0.30503909790E+04  0.30503909790E+04  0.00000000000E+00 0. -1.
          1   -1    0    0  501    0 -0.00000000000E+00 -0.00000000000E+00 -0.99482053614E+03  0.99482053614E+03  0.00000000000E+00 0. -1.
         25    2    1    2    0    0  0.11917107866E+04  0.40155265707E+03  0.74738001733E+03  0.14682034438E+04  0.12500130745E+03 0.  0.
          2    1    1    2  501    0 -0.11809997715E+04 -0.45479138972E+03 -0.21493387815E+01  0.12655434754E+04  0.00000000000E+00 0. -1.
          1    1    1    2  502    0 -0.10711015114E+02  0.53238732645E+02  0.13103397643E+04  0.13114645959E+04  0.00000000000E+00 0. -1.
         22    1    3    3    0    0  0.50129520106E+03  0.17246546560E+03  0.24401875906E+03  0.58359778118E+03  0.00000000000E+00 0.  1.
         22    1    3    3    0    0  0.69041558554E+03  0.22908719147E+03  0.50336125827E+03  0.88460566264E+03  0.00000000000E+00 0.  1.
</event>
<event>
 7    1  0.6220918E-005  0.1918436E+03  0.7818608E-02  0.1217320E+00
          2   -1    0    0  502    0  0.00000000000E+00  0.00000000000E+00  0.20578678867E+04  0.20578678867E+04  0.00000000000E+00 0. -1.
          1   -1    0    0  501    0 -0.00000000000E+00 -0.00000000000E+00 -0.59612045161E+03  0.59612045161E+03  0.00000000000E+00 0. -1.
         25    2    1    2    0    0  0.22401083248E+03 -0.94925327294E+02 -0.29353890355E+03  0.40122470860E+03  0.12499803225E+03 0.  0.
          2    1    1    2  501    0 -0.16743741228E+03  0.14975196833E+02 -0.21898254636E+03  0.27606683821E+03  0.00000000000E+00 0. -1.
          1    1    1    2  502    0 -0.56573420202E+02  0.79950130460E+02  0.19742688850E+04  0.19766967915E+04  0.00000000000E+00 0. -1.
         22    1    3    3    0    0 -0.76644921594E+01  0.91043308204E+01  0.14359125404E+01  0.11987290126E+02  0.00000000000E+00 0.  1.
         22    1    3    3    0    0  0.23167532464E+03 -0.10402965811E+03 -0.29497481609E+03  0.38923741848E+03  0.00000000000E+00 0.  1.
</event>
<event>
 7    1  0.4402832E-005  0.8748456E+02  0.7818608E-02  0.1319037E+00
          2   -1    0    0  502    0  0.00000000000E+00  0.00000000000E+00  0.40878067431E+03  0.40878067431E+03  0.00000000000E+00 0. -1.
          1   -1    0    0  501    0 -0.00000000000E+00 -0.00000000000E+00 -0.31378267921E+03  0.31378267921E+03  0.00000000000E+00 0. -1.
         25    2    1    2    0    0 -0.60306224275E+02  0.70669793813E+02  0.63083868923E+02  0.16803535448E+03  0.12500098156E+03 0.  0.
          2    1    1    2  501    0  0.77738134996E+02  0.18710494703E+02 -0.24779097495E+03  0.26037217115E+03  0.00000000000E+00 0. -1.
          1    1    1    2  502    0 -0.17431910720E+02 -0.89380288515E+02  0.27970510113E+03  0.29415582790E+03  0.00000000000E+00 0. -1.
         22    1    3    3    0    0  0.11392843306E+02 -0.30022988152E+02  0.11898146948E+02  0.34245329564E+02  0.00000000000E+00 0. -1.
         22    1    3    3    0    0 -0.71699067582E+02  0.10069278196E+03  0.51185721975E+02  0.13379002491E+03  0.00000000000E+00 0. -1.
</event>
<event>
 7    1  0.4402832E-005  0.8881161E+03  0.7818608E-02  0.1163497E+00
          2   -1    0    0  502    0  0.00000000000E+00  0.00000000000E+00  0.21596840448E+04  0.21596840448E+04  0.00000000000E+00 0. -1.
          1   -1    0    0  501    0 -0.00000000000E+00 -0.00000000000E+00 -0.13160156513E+04  0.13160156513E+04  0.00000000000E+00 0. -1.
         25    2    1    2    0    0  0.24258174802E+03  0.87009071203E+03 -0.30279998392E+03  0.96083937903E+03  0.12498292046E+03 0.  0.
          2    1    1    2  501    0 -0.21004178544E+03 -0.84981890700E+03 -0.40385823508E+03  0.96405974938E+03  0.00000000000E+00 0. -1.
          1    1    1    2  502    0 -0.32539962575E+02 -0.20271805028E+02  0.15503266125E+04  0.15508005677E+04  0.00000000000E+00 0. -1.
         22    1    3    3    0    0  0.18785563052E+03  0.76592509400E+03 -0.29807645849E+03  0.84307802880E+03  0.00000000000E+00 0. -1.
         22    1    3    3    0    0  0.54726117497E+02  0.10416561803E+03 -0.47235254209E+01  0.11776135023E+03  0.00000000000E+00 0. -1.
</event>
<event>
 7    1  0.4402832E-005  0.9688573E+02  0.7818608E-02  0.1333206E+00
          2   -1    0    0  502    0  0.00000000000E+00  0.00000000000E+00  0.29366319948E+03  0.29366319948E+03  0.00000000000E+00 0. -1.
          1   -1    0    0  501    0 -0.00000000000E+00 -0.00000000000E+00 -0.17995080712E+04  0.17995080712E+04  0.00000000000E+00 0. -1.
         25    2    1    2    0    0  0.90715836789E+02  0.97347506724E+02 -0.11859463879E+04  0.11999164633E+04  0.12499913530E+03 0.  0.
          2    1    1    2  501    0 -0.29804413187E+02 -0.78739110215E+02 -0.60006383688E+03  0.60594121733E+03  0.00000000000E+00 0. -1.
          1    1    1    2  502    0 -0.60911423602E+02 -0.18608396509E+02  0.28016535308E+03  0.28731359003E+03  0.00000000000E+00 0. -1.
         22    1    3    3    0    0 -0.44173585053E+01 -0.25719745051E+02 -0.21705531878E+03  0.21861845702E+03  0.00000000000E+00 0. -1.
         22    1    3    3    0    0  0.95133195295E+02  0.12306725178E+03 -0.96889106913E+03  0.98129800629E+03  0.00000000000E+00 0. -1.
</event>
<event>
 7    1  0.4402832E-005  0.4298722E+03  0.7818608E-02  0.1076443E+00
          2   -1    0    0  502    0  0.00000000000E+00  0.00000000000E+00  0.10648772366E+04  0.10648772366E+04  0.00000000000E+00 0. -1.
          1   -1    0    0  501    0 -0.00000000000E+00 -0.00000000000E+00 -0.93250357711E+03  0.93250357711E+03  0.00000000000E+00 0. -1.
         25    2    1    2    0    0  0.39283619432E+03  0.48875438914E+03 -0.55446367266E+03  0.84631972333E+03  0.12500392523E+03 0.  0.
          2    1    1    2  501    0 -0.71035133883E+02 -0.22469673933E+03 -0.10382256250E+03  0.25751454211E+03  0.00000000000E+00 0. -1.
          1    1    1    2  502    0 -0.32180106044E+03 -0.26405764980E+03  0.79065989464E+03  0.89354654826E+03  0.00000000000E+00 0. -1.
         22    1    3    3    0    0  0.38267598909E+02  0.12505189347E+03 -0.98071042903E+02  0.16346349637E+03  0.00000000000E+00 0.  1.
         22    1    3    3    0    0  0.35456859541E+03  0.36370249566E+03 -0.45639262976E+03  0.68285622696E+03  0.00000000000E+00 0.  1.
</event>
<event>
 7    1  0.4402832E-005  0.1930183E+03  0.7818608E-02  0.1232965E+00
          2   -1    0    0  502    0  0.00000000000E+00  0.00000000000E+00  0.72642474649E+03  0.72642474649E+03  0.00000000000E+00 0. -1.
          1   -1    0    0  501    0 -0.00000000000E+00 -0.00000000000E+00 -0.13592630909E+03  0.13592630909E+03  0.00000000000E+00 0. -1.
         25    2    1    2    0    0  0.45993554282E+01 -0.19743524770E+03  0.16637993226E+03  0.28689405623E+03  0.12499634608E+03 0.  0.
          2    1    1    2  501    0 -0.80957648602E+02  0.16970254850E+02 -0.24199897988E+02  0.86184485144E+02  0.00000000000E+00 0. -1.
          1    1    1    2  502    0  0.76358293174E+02  0.18046499285E+03  0.44831840312E+03  0.48927251421E+03  0.00000000000E+00 0. -1.
         22    1    3    3    0    0 -0.56579040254E+02 -0.61006562331E+02  0.46979836577E+02  0.95551522690E+02  0.00000000000E+00 0. -1.
         22    1    3    3    0    0  0.61178395682E+02 -0.13642868537E+03  0.11940009569E+03  0.19134253354E+03  0.00000000000E+00 0. -1.
</event>
<event>
 7    1  0.4402832E-005  0.6270558E+03  0.7818608E-02  0.1103196E+00
          2   -1    0    0  502    0  0.00000000000E+00  0.00000000000E+00  0.83218017231E+03  0.83218017231E+03  0.00000000000E+00 0. -1.
          1   -1    0    0  501    0 -0.00000000000E+00 -0.00000000000E+00 -0.11135895811E+04  0.11135895811E+04  0.00000000000E+00 0. -1.
         25    2    1    2    0    0 -0.70798317745E+03 -0.55474549937E+02 -0.45507916938E+02  0.72250549756E+03  0.12500247304E+03 0.  0.
          2    1    1    2  501    0  0.59495295179E+03  0.46149881931E+02 -0.59740455562E+03  0.84438796150E+03  0.00000000000E+00 0. -1.
          1    1    1    2  502    0  0.11303022565E+03  0.93246680065E+01  0.36150306374E+03  0.37887629438E+03  0.00000000000E+00 0. -1.
         22    1    3    3    0    0 -0.52144281489E+03 -0.93077925940E+02 -0.50992392686E+02  0.53213375538E+03  0.00000000000E+00 0.  1.
         22    1    3    3    0    0 -0.18654036255E+03  0.37603376003E+02  0.54844757487E+01  0.19037174218E+03  0.00000000000E+00 0.  1.
</event>
<event>
 7    1  0.4402832E-005  0.2300271E+03  0.7818608E-02  0.1159440E+00
          2   -1    0    0  502    0  0.00000000000E+00  0.00000000000E+00  0.97506901261E+03  0.97506901261E+03  0.00000000000E+00 0. -1.
          1   -1    0    0  501    0 -0.00000000000E+00 -0.00000000000E+00 -0.38582507408E+03  0.38582507408E+03  0.00000000000E+00 0. -1.
         25    2    1    2    0    0  0.13623689869E+03 -0.32579474001E+03  0.34293370222E+03  0.50786752948E+03  0.12499279261E+03 0.  0.
          2    1    1    2  501    0 -0.13770045674E+03  0.17064527222E+03 -0.25028805412E+03  0.33275416565E+03  0.00000000000E+00 0. -1.
          1    1    1    2  502    0  0.14635580577E+01  0.15514946779E+03  0.49659829043E+03  0.52027239156E+03  0.00000000000E+00 0. -1.
         22    1    3    3    0    0  0.12857207994E+03 -0.33202976414E+03  0.30550463961E+03  0.46915629468E+03  0.00000000000E+00 0. -1.
         22    1    3    3    0    0  0.76648187504E+01  0.62350241303E+01  0.37429062610E+02  0.38711234806E+02  0.00000000000E+00 0. -1.
</event>
<event>
 7    1  0.4402832E-005  0.8816148E+03  0.7818608E-02  0.1063867E+00
          2   -1    0    0  502    0  0.00000000000E+00  0.00000000000E+00  0.17992950861E+04  0.17992950861E+04  0.00000000000E+00 0. -1.
          1   -1    0    0  501    0 -0.00000000000E+00 -0.00000000000E+00 -0.96979804240E+03  0.96979804240E+03  0.00000000000E+00 0. -1.
         25    2    1    2    0    0 -0.81660813945E+03  0.46278830628E+03 -0.33509905943E+03  0.10044591673E+04  0.12499987740E+03 0.  0.
          2    1    1    2  501    0  0.12123189211E+03  0.62840857602E+02 -0.14003469051E+03  0.19559105193E+03  0.00000000000E+00 0. -1.
          1    1    1    2  502    0  0.69537624734E+03 -0.52562916389E+03  0.13046307937E+04  0.15690429092E+04  0.00000000000E+00 0. -1.
         22    1    3    3    0    0 -0.41378782435E+03  0.25507189002E+03 -0.23679871554E+03  0.54069923649E+03  0.00000000000E+00 0.  1.
         22    1    3    3    0    0 -0.40282031510E+03  0.20771641626E+03 -0.98300343893E+02  0.46375993084E+03  0.00000000000E+00 0.  1.
</event>
<event>
 7    1  0.4402832E-005  0.3282499E+03  0.7818608E-02  0.1218822E+00
          2   -1    0    0  502    0  0.00000000000E+00  0.00000000000E+00  0.38310576266E+03  0.38310576266E+03  0.00000000000E+00 0. -1.
          1   -1    0    0  501    0 -0.00000000000E+00 -0.00000000000E+00 -0.61591357181E+03  0.61591357181E+03  0.00000000000E+00 0. -1.
         25    2    1    2    0    0 -0.35291773945E+03  0.70988227597E+02 -0.22666363378E+03  0.44338659210E+03  0.12500003160E+03 0.  0.
          2    1    1    2  501    0  0.29869381816E+03 -0.55679894235E+02 -0.19334301209E+03  0.36013853995E+03  0.00000000000E+00 0. -1.
          1    1    1    2  502    0  0.54223921289E+02 -0.15308333363E+02  0.18719883673E+03  0.19549420243E+03  0.00000000000E+00 0. -1.
         22    1    3    3    0    0 -0.16815524694E+03 -0.13526481864E+01 -0.16503763285E+03  0.23561714069E+03  0.00000000000E+00 0. -1.
         22    1    3    3    0    0 -0.18476249251E+03  0.72340875784E+02 -0.61626000930E+02  0.20776945141E+03  0.00000000000E+00 0. -1.
</event>
<event>
 7    1  0.4402832E-005  0.2735156E+03  0.7818608E-02  0.1279509E+00
          2   -1    0    0  502    0  0.00000000000E+00  0.00000000000E+00  0.92611069308E+02  0.92611069308E+02  0.00000000000E+00 0. -1.
          1   -1    0    0  501    0 -0.00000000000E+00 -0.00000000000E+00 -0.17721535593E+04  0.17721535593E+04  0.00000000000E+00 0. -1.
         25    2    1    2    0    0 -0.66116866606E+02 -0.28705349095E+03 -0.90075980557E+03  0.95590989467E+03  0.12499741068E+03 0.  0.
          2    1    1    2  501    0  0.51999612175E+02  0.25303037357E+03 -0.81634773252E+03  0.85624292698E+03  0.00000000000E+00 0. -1.
          1    1    1    2  502    0  0.14117254431E+02  0.34023117383E+02  0.37565048119E+02  0.52611806939E+02  0.00000000000E+00 0. -1.
         22    1    3    3    0    0 -0.65423172067E+02 -0.16195595588E+03 -0.68093830129E+03  0.70298427667E+03  0.00000000000E+00 0.  1.
         22    1    3    3    0    0 -0.69369453934E+00 -0.12509753508E+03 -0.21982150429E+03  0.25292561800E+03  0.00000000000E+00 0.  1.
</event>
<event>
 7    1  0.4402832E-005  0.9912685E+03  0.7818608E-02  0.1069183E+00
          2   -1    0    0  502    0  0.00000000000E+00  0.00000000000E+00  0.73963083686E+03  0.73963083686E+03  0.00000000000E+00 0. -1.
          1   -1    0    0  501    0 -0.00000000000E+00 -0.00000000000E+00 -0.17592974972E+04  0.17592974972E+04  0.00000000000E+00 0. -1.
         25    2    1    2    0    0 -0.15753592530E+03 -0.10117539681E+04  0.68755845533E+01  0.10315695768E+04  0.12499943399E+03 0.  0.
          2    1    1    2  501    0 -0.36424785948E+02  0.10680507991E+03 -0.18366530035E+03  0.21556213183E+03  0.00000000000E+00 0. -1.
          1    1    1    2  502    0  0.19396071125E+03  0.90494888816E+03 -0.84287694450E+03  0.12517966254E+04  0.00000000000E+00 0. -1.
         22    1    3    3    0    0 -0.64370169787E+02 -0.76604015129E+03  0.21014934027E+01  0.76874277130E+03  0.00000000000E+00 0. -1.
         22    1    3    3    0    0 -0.93165755512E+02 -0.24571381678E+03  0.47740911506E+01  0.26282680553E+03  0.00000000000E+00 0. -1.
</event>
<event>
 7    1  0.4402832E-005  0.6852112E+02  0.7818608E-02  0.1493535E+00
          2   -1    0    0  502    0  0.00000000000E+00  0.00000000000E+00  0.11802793251E+04  0.11802793251E+04  0.00000000000E+00 0. -1.
          1   -1    0    0  501    0 -0.00000000000E+00 -0.00000000000E+00 -0.29076941346E+02  0.29076941346E+02  0.00000000000E+00 0. -1.
         25    2    1    2    0    0 -0.56155496402E+02  0.20015657727E+02  0.21375822105E+03  0.25469902995E+03  0.12499980986E+03 0.  0.
          2    1    1    2  501    0  0.38775546059E+01  0.25532199113E+02  0.15520664847E+02  0.30130045778E+02  0.00000000000E+00 0. -1.
          1    1    1    2  502    0  0.52277941796E+02 -0.45547856840E+02  0.92192349789E+03  0.92452719074E+03  0.00000000000E+00 0. -1.
         22    1    3    3    0    0 -0.66879946153E+02  0.59406468221E+02  0.18262860285E+03  0.20335993274E+03  0.00000000000E+00 0. -1.
         22    1    3    3    0    0  0.10724449751E+02 -0.39390810494E+02  0.31129618191E+02  0.51339097212E+02  0.00000000000E+00 0. -1.
</event>
<event>
 7    1  0.4402832E-005  0.3985892E+03  0.7818608E-02  0.1207087E+00
          2   -1    0    0  502    0  0.00000000000E+00  0.00000000000E+00  0.94254160954E+03  0.94254160954E+03  0.00000000000E+00 0. -1.
          1   -1    0    0  501    0 -0.00000000000E+00 -0.00000000000E+00 -0.19844160383E+04  0.19844160383E+04  0.00000000000E+00 0. -1.
         25    2    1    2    0    0 -0.21598771173E+03 -0.28375289236E+03  0.83970541096E+03  0.92081263812E+03  0.12499736712E+03 0.  0.
          2    1    1    2  501    0  0.21581490930E+03  0.33631373934E+03 -0.19065334597E+04  0.19479612006E+04  0.00000000000E+00 0. -1.
          1    1    1    2  502    0  0.17280243002E+00 -0.52560846977E+02  0.24953619909E+02  0.58183809107E+02  0.00000000000E+00 0. -1.
         22    1    3    3    0    0 -0.80232930351E+02 -0.22327162854E+02  0.18930091941E+03  0.20681069460E+03  0.00000000000E+00 0.  1.
         22    1    3    3    0    0 -0.13575478138E+03 -0.26142572951E+03  0.65040449155E+03  0.71400194352E+03  0.00000000000E+00 0.  1.
</event>
<event>
 7    1  0.4402832E-005  0.3669159E+03  0.7818608E-02  0.1157228E+00
          2   -1    0    0  502    0  0.00000000000E+00  0.00000000000E+00  0.77358928778E+03  0.77358928778E+03  0.00000000000E+00 0. -1.
          1   -1    0    0  501    0 -0.00000000000E+00 -0.00000000000E+00 -0.35820157515E+03  0.35820157515E+03  0.00000000000E+00 0. -1.
         25    2    1    2    0    0  0.16725694428E+03  0.37889457449E+03  0.37527491868E+03  0.57270547821E+03  0.12499726476E+03 0.  0.
          2    1    1    2  501    0 -0.27306251065E+01 -0.99778828219E+02 -0.15242270743E+03  0.18219756479E+03  0.00000000000E+00 0. -1.
          1    1    1    2  502    0 -0.16452631918E+03 -0.27911574627E+03  0.19253550138E+03  0.37688781993E+03  0.00000000000E+00 0. -1.
         22    1    3    3    0    0 -0.69037765403E+01 -0.66337964325E+01  0.86887824181E+01  0.12929204366E+02  0.00000000000E+00 0.  1.
         22    1    3    3    0    0  0.17416072082E+03  0.38552837092E+03  0.36658613626E+03  0.55977627385E+03  0.00000000000E+00 0.  1.
</event>
<event>
 7    1  0.4402832E-005  0.4788949E+03  0.7818608E-02  0.1084604E+00
          2   -1    0    0  502    0  0.00000000000E+00  0.00000000000E+00  0.13232386433E+04  0.13232386433E+04  0.00000000000E+00 0. -1.
          1   -1    0    0  501    0 -0.00000000000E+00 -0.00000000000E+00 -0.40213537985E+03  0.40213537985E+03  0.00000000000E+00 0. -1.
         25    2    1    2    0    0  0.35672764537E+03  0.23109550678E+03  0.67469880873E+02  0.44814892410E+03  0.12500210847E+03 0.  0.
          2    1    1    2  501    0 -0.39602734411E+03 -0.41651115008E+03  0.21925124700E+03  0.61513437941E+03  0.00000000000E+00 0. -1.
          1    1    1    2  502    0  0.39299698736E+02  0.18541564330E+03  0.63438213560E+03  0.66209071967E+03  0.00000000000E+00 0. -1.
         22    1    3    3    0    0  0.15996620964E+03  0.14475559465E+03  0.86505477685E+02  0.23243615915E+03  0.00000000000E+00 0.  1.
         22    1    3    3    0    0  0.19676143573E+03  0.86339912125E+02 -0.19035596811E+02  0.21571276495E+03  0.00000000000E+00 0.  1.
</event>
<event>
 7    1  0.4402832E-005  0.5988087E+03  0.7818608E-02  0.1061293E+00
          2   -1    0    0  502    0  0.00000000000E+00  0.00000000000E+00  0.13740416421E+04  0.13740416421E+04  0.00000000000E+00 0. -1.
          1   -1    0    0  501    0 -0.00000000000E+00 -0.00000000000E+00 -0.11049396408E+04  0.11049396408E+04  0.00000000000E+00 0. -1.
         25    2    1    2    0    0  0.67960776889E+03 -0.44441278274E+02 -0.85292755576E+03  0.10986136026E+04  0.12499874296E+03 0.  0.
          2    1    1    2  501    0 -0.12524546296E+03 -0.16653702865E+03  0.34113455003E+03  0.39974215330E+03  0.00000000000E+00 0. -1.
          1    1    1    2  502    0 -0.55436230593E+03  0.21097830692E+03  0.78089500706E+03  0.98062552704E+03  0.00000000000E+00 0. -1.
         22    1    3    3    0    0  0.60713626641E+03 -0.62044156934E+02 -0.70152440587E+03  0.92983891908E+03  0.00000000000E+00 0.  1.
         22    1    3    3    0    0  0.72471502476E+02  0.17602878660E+02 -0.15140314989E+03  0.16877468354E+03  0.00000000000E+00 0.  1.
</event>
<event>
 7    1  0.4402832E-005  0.2391206E+03  0.7818608E-02  0.1142171E+00
          2   -1    0    0  502    0  0.00000000000E+00  0.00000000000E+00  0.55420570579E+03  0.55420570579E+03  0.00000000000E+00 0. -1.
          1   -1    0    0  501    0 -0.00000000000E+00 -0.00000000000E+00 -0.19237807876E+04  0.19237807876E+04  0.00000000000E+00 0. -1.
         25    2    1    2    0    0  0.31955710274E+03 -0.14069800262E+03 -0.51469426965E+03  0.63439146195E+03  0.12501866236E+03 0.  0.
          2    1    1    2  501    0 -0.17696025230E+03 -0.46972856647E+02 -0.13144334734E+04  0.13271234819E+04  0.00000000000E+00 0. -1.
          1    1    1    2  502    0 -0.14259685044E+03  0.18767085927E+03  0.45955266117E+03  0.51647154962E+03  0.00000000000E+00 0. -1.
         22    1    3    3    0    0  0.20268678667E+03 -0.65200284415E+02 -0.20818815450E+03  0.29778401275E+03  0.00000000000E+00 0.  1.
         22    1    3    3    0    0  0.11687031607E+03 -0.75497718204E+02 -0.30650611515E+03  0.33660744920E+03  0.00000000000E+00 0.  1.
</event>
<event>
 7    1  0.4402832E-005  0.7789367E+03  0.7818608E-02  0.1198932E+00
          2   -1    0    0  502    0  0.00000000000E+00  0.00000000000E+00  0.18888190201E+04  0.18888190201E+04  0.00000000000E+00 0. -1.
          1   -1    0    0  501    0 -0.00000000000E+00 -0.00000000000E+00 -0.10149111591E+04  0.10149111591E+04  0.00000000000E+00 0. -1.
         25    2    1    2    0    0  0.62439409315E+03  0.45822380870E+03 -0.13157985718E+03  0.79547171572E+03  0.12499979713E+03 0.  0.
          2    1    1    2  501    0  0.21112062677E+02 -0.20422271854E+02 -0.45319254365E+03  0.45414344650E+03  0.00000000000E+00 0. -1.
          1    1    1    2  502    0 -0.64550615582E+03 -0.43780153685E+03  0.14586802619E+04  0.16541150170E+04  0.00000000000E+00 0. -1.
         22    1    3    3    0    0  0.29122738814E+03  0.14013869029E+03 -0.70754808363E+02  0.33084511033E+03  0.00000000000E+00 0. -1.
         22    1    3    3    0    0  0.33316670500E+03  0.31808511841E+03 -0.60825048814E+02  0.46462660539E+03  0.00000000000E+00 0. -1.
</event>
<event>
 7    1  0.4402832E-005  0.3391334E+03  0.7818608E-02  0.1129862E+00
          2   -1    0    0  502    0  0.00000000000E+00  0.00000000000E+00  0.31965145435E+04  0.31965145435E+04  0.00000000000E+00 0. -1.
          1   -1    0    0  501    0 -0.00000000000E+00 -0.00000000000E+00 -0.19147457827E+03  0.19147457827E+03  0.00000000000E+00 0. -1.
         25    2    1    2    0    0 -0.32490259687E+03  0.19934912155E+02  0.41634971293E+03  0.54308005666E+03  0.12501906383E+03 0.  0.
          2    1    1    2  501    0  0.22071222437E+02  0.14828261892E+03 -0.68790097826E+02  0.16494529849E+03  0.00000000000E+00 0. -1.
          1    1    1    2  502    0  0.30283137443E+03 -0.16821753108E+03  0.26574803501E+04  0.26799637666E+04  0.00000000000E+00 0. -1.
         22    1    3    3    0    0 -0.21066399187E+03  0.72317267935E+01  0.16844532801E+03  0.26982483924E+03  0.00000000000E+00 0.  1.
         22    1    3    3    0    0 -0.11423860500E+03  0.12703185362E+02  0.24790438491E+03  0.27325521742E+03  0.00000000000E+00 0.  1.
</event>
<event>
 7    1  0.4402832E-005  0.2731899E+03  0.7818608E-02  0.1201385E+00
          2   -1    0    0  502    0  0.00000000000E+00  0.00000000000E+00  0.10264085645E+04  0.10264085645E+04  0.00000000000E+00 0. -1.
          1   -1    0    0  501    0 -0.00000000000E+00 -0.00000000000E+00 -0.18159069917E+04  0.18159069917E+04  0.00000000000E+00 0. -1.
         25    2    1    2    0    0  0.31448134469E+03 -0.10391286494E+03  0.58076034294E+03  0.68014719661E+03  0.12498493293E+03 0.  0.
          2    1    1    2  501    0 -0.26998376589E+03  0.35573033625E+02 -0.17513777315E+04  0.17724222502E+04  0.00000000000E+00 0. -1.
          1    1    1    2  502    0 -0.44497578798E+02  0.68339831320E+02  0.38111896137E+03  0.38974610938E+03  0.00000000000E+00 0. -1.
         22    1    3    3    0    0  0.69308835881E+02 -0.68397845588E+02  0.10156152287E+03  0.14070082779E+03  0.00000000000E+00 0. -1.
         22    1    3    3    0    0  0.24517250881E+03 -0.35515019357E+02  0.47919882007E+03  0.53944636882E+03  0.00000000000E+00 0. -1.
</event>
<event>
 7    1  0.4402832E-005  0.3035481E+03  0.7818608E-02  0.1309756E+00
          2   -1    0    0  502    0  0.00000000000E+00  0.00000000000E+00  0.28941658475E+03  0.28941658475E+03  0.00000000000E+00 0. -1.
          1   -1    0    0  501    0 -0.00000000000E+00 -0.00000000000E+00 -0.14846431059E+04  0.14846431059E+04  0.00000000000E+00 0. -1.
         25    2    1    2    0    0  0.30861909221E+03  0.39925312891E+02 -0.85699985566E+03  0.92027861058E+03  0.12499677521E+03 0.  0.
          2    1    1    2  501    0 -0.61573096968E+01 -0.24286294696E+02 -0.50662707615E+03  0.50724622311E+03  0.00000000000E+00 0. -1.
          1    1    1    2  502    0 -0.30246178252E+03 -0.15639018195E+02  0.16840041066E+03  0.34653485695E+03  0.00000000000E+00 0. -1.
         22    1    3    3    0    0  0.63905594582E+02 -0.24176236329E+02 -0.92404835199E+02  0.11492201264E+03  0.00000000000E+00 0. -1.
         22    1    3    3    0    0  0.24471349763E+03  0.64101549220E+02 -0.76459502046E+03  0.80535659794E+03  0.00000000000E+00 0. -1.
</event>
<event>
 7    1  0.4402832E-005  0.5089605E+03  0.7818608E-02  0.1115138E+00
          2   -1    0    0  502    0  0.00000000000E+00  0.00000000000E+00  0.22218744370E+04  0.22218744370E+04  0.00000000000E+00 0. -1.
          1   -1    0    0  501    0 -0.00000000000E+00 -0.00000000000E+00 -0.19451498945E+03  0.19451498945E+03  0.00000000000E+00 0. -1.
         25    2    1    2    0    0 -0.30145754526E+03  0.47244765192E+03  0.50548411983E+03  0.76499845457E+03  0.12500001876E+03 0.  0.
          2    1    1    2  501    0  0.21919778860E+03 -0.38509737365E+03  0.75692723697E+03  0.87708979004E+03  0.00000000000E+00 0. -1.
          1    1    1    2  502    0  0.82259756661E+02 -0.87350278275E+02  0.76494809071E+03  0.77430118181E+03  0.00000000000E+00 0. -1.
         22    1    3    3    0    0 -0.98818546749E+02  0.62871176989E+02  0.10937787296E+03  0.16025420173E+03  0.00000000000E+00 0. -1.
         22    1    3    3    0    0 -0.20263899851E+03  0.40957647493E+03  0.39610624687E+03  0.60474425284E+03  0.00000000000E+00 0. -1.
</event>
<event>
 7    1  0.4402832E-005  0.1189691E+03  0.7818608E-02  0.1252728E+00
          2   -1    0    0  502    0  0.00000000000E+00  0.00000000000E+00  0.37196755628E+03  0.37196755628E+03  0.00000000000E+00 0. -1.
          1   -1    0    0  501    0 -0.00000000000E+00 -0.00000000000E+00 -0.41919871882E+03  0.41919871882E+03  0.00000000000E+00 0. -1.
         25    2    1    2    0    0 -0.10654580490E+03  0.43226197725E+02 -0.25797391142E+03  0.30886345956E+03  0.12500233985E+03 0.  0.
          2    1    1    2  501    0  0.11467580275E+03  0.75464818597E+02 -0.86416240684E+02  0.16221357907E+03  0.00000000000E+00 0. -1.
          1    1    1    2  502    0 -0.81299978467E+01 -0.11869101632E+03  0.29715898957E+03  0.32008923647E+03  0.00000000000E+00 0. -1.
         22    1    3    3    0    0 -0.13468638824E+03  0.42378108361E+02 -0.22335541971E+03  0.26424225771E+03  0.00000000000E+00 0. -1.
         22    1    3    3    0    0  0.28140583341E+02  0.84808936316E+00 -0.34618491710E+02  0.44621201851E+02  0.00000000000E+00 0. -1.
</event>
<event>
 7    1  0.4402832E-005  0.2355487E+03  0.7818608E-02  0.1221393E+00
          2   -1    0    0  502    0  0.00000000000E+00  0.00000000000E+00  0.18254513471E+04  0.18254513471E+04  0.00000000000E+00 0. -1.
          1   -1    0    0  501    0 -0.00000000000E+00 -0.00000000000E+00 -0.18991942458E+03  0.18991942458E+03  0.00000000000E+00 0. -1.
         25    2    1    2    0    0 -0.81640660973E+02 -0.14955526472E+03 -0.82549329899E+02  0.22687138967E+03  0.12499704339E+03 0.  0.
          2    1    1    2  501    0  0.30065091648E+01 -0.76367742374E+02  0.27725116318E+02  0.81300388975E+02  0.00000000000E+00 0. -1.
          1    1    1    2  502    0  0.78634151808E+02  0.22592300709E+03  0.16903561361E+04  0.17071989930E+04  0.00000000000E+00 0. -1.
         22    1    3    3    0    0 -0.85663325850E+02 -0.12313270259E+03 -0.11192604592E+03  0.18715583773E+03  0.00000000000E+00 0.  1.
         22    1    3    3    0    0  0.40226648776E+01 -0.26422562131E+02  0.29376716017E+02  0.39715551944E+02  0.00000000000E+00 0.  1.
</event>
<event>
 7    1  0.4402832E-005  0.2026067E+03  0.7818608E-02  0.1255014E+00
          2   -1    0    0  502    0  0.00000000000E+00  0.00000000000E+00  0.62253348208E+03  0.62253348208E+03  0.00000000000E+00 0. -1.
          1   -1    0    0  501    0 -0.00000000000E+00 -0.00000000000E+00 -0.53354880203E+03  0.53354880203E+03  0.00000000000E+00 0. -1.
         25    2    1    2    0    0 -0.17273645269E+02  0.14938573827E+03 -0.29595132979E+03  0.35472084201E+03  0.12500083411E+03 0.  0.
          2    1    1    2  501    0  0.29285747278E+02  0.55875687500E+02 -0.18500548254E+03  0.19546553665E+03  0.00000000000E+00 0. -1.
          1    1    1    2  502    0 -0.12012102009E+02 -0.20526142577E+03  0.56994149239E+03  0.60589590546E+03  0.00000000000E+00 0. -1.
         22    1    3    3    0    0 -0.35325906497E+02  0.78523539237E+02 -0.53242961285E+02  0.10123575856E+03  0.00000000000E+00 0.  1.
         22    1    3    3    0    0  0.18052261229E+02  0.70862199033E+02 -0.24270836851E+03  0.25348508345E+03  0.00000000000E+00 0.  1.
</event>
<event>
 7    1  0.4402832E-005  0.6766874E+03  0.7818608E-02  0.1163483E+00
          2   -1    0    0  502    0  0.00000000000E+00  0.00000000000E+00  0.79818319847E+03  0.79818319847E+03  0.00000000000E+00 0. -1.
          1   -1    0    0  501    0 -0.00000000000E+00 -0.00000000000E+00 -0.31694920216E+04  0.31694920216E+04  0.00000000000E+00 0. -1.
         25    2    1    2    0    0  0.69305399425E+03 -0.11949165852E+03 -0.10840355609E+04  0.12982133696E+04  0.12499104090E+03 0.  0.
          2    1    1    2  501    0 -0.24109507086E+02  0.44173532258E+02 -0.18140075154E+04  0.18147054404E+04  0.00000000000E+00 0. -1.
          1    1    1    2  502    0 -0.66894448717E+03  0.75318126264E+02  0.52673425322E+03  0.85475641008E+03  0.00000000000E+00 0. -1.
         22    1    3    3    0    0  0.20024873289E+03 -0.92417837717E+02 -0.32052676825E+03  0.38907328476E+03  0.00000000000E+00 0. -1.
         22    1    3    3    0    0  0.49280526137E+03 -0.27073820804E+02 -0.76350879269E+03  0.90914008487E+03  0.00000000000E+00 0. -1.
</event>
<event>
 7    1  0.8396268E-005  0.2579044E+03  0.7818608E-02  0.1132765E+00
          2   -1    0    0  502    0  0.00000000000E+00  0.00000000000E+00  0.23383499142E+04  0.23383499142E+04  0.00000000000E+00 0. -1.
          1   -1    0    0  501    0 -0.00000000000E+00 -0.00000000000E+00 -0.20408313119E+04  0.20408313119E+04  0.00000000000E+00 0. -1.
         25    2    1    2    0    0 -0.12474020341E+03 -0.29263567811E+03 -0.69583206562E+03  0.77524339981E+03  0.12499722780E+03 0.  0.
          2    1    1    2  501    0 -0.59811586908E+02  0.24644466359E+03 -0.12889808962E+04  0.13136910402E+04  0.00000000000E+00 0. -1.
          1    1    1    2  502    0  0.18455179032E+03  0.46191014518E+02  0.22823315641E+04  0.22902467862E+04  0.00000000000E+00 0. -1.
         22    1    3    3    0    0 -0.67107408162E+02 -0.15591560954E+03 -0.50964029139E+03  0.53716506600E+03  0.00000000000E+00 0.  1.
         22    1    3    3    0    0 -0.57632795252E+02 -0.13672006857E+03 -0.18619177423E+03  0.23807833381E+03  0.00000000000E+00 0.  1.
</event>
<event>
 7    1  0.4402832E-005  0.1484902E+03  0.7818608E-02  0.1312367E+00
          2   -1    0    0  502    0  0.00000000000E+00  0.00000000000E+00  0.36112657942E+03  0.36112657942E+03  0.00000000000E+00 0. -1.
          1   -1    0    0  501    0 -0.00000000000E+00 -0.00000000000E+00 -0.68027371327E+03  0.68027371327E+03  0.00000000000E+00 0. -1.
         25    2    1    2    0    0  0.10279997558E+03 -0.14892295814E+03 -0.27322410786E+03  0.35074606060E+03  0.12500201387E+03 0.  0.
          2    1    1    2  501    0 -0.95964943667E+02  0.99371588417E+02 -0.35324051269E+03  0.37929255569E+03  0.00000000000E+00 0. -1.
          1    1    1    2  502    0 -0.68350319133E+01  0.49551369727E+02  0.30731748669E+03  0.31136167640E+03  0.00000000000E+00 0. -1.
         22    1    3    3    0    0 -0.21068156720E+02 -0.67027705876E+02 -0.71314897192E+02  0.10011191310E+03  0.00000000000E+00 0. -1.
         22    1    3    3    0    0  0.12386813230E+03 -0.81895252268E+02 -0.20190921067E+03  0.25063414750E+03  0.00000000000E+00 0. -1.
</event>
<event>
 7    1  0.4402832E-005  0.4224684E+03  0.7818608E-02  0.1197146E+00
          2   -1    0    0  502    0  0.00000000000E+00  0.00000000000E+00  0.28163413627E+04  0.28163413627E+04  0.00000000000E+00 0. -1.
          1   -1    0    0  501    0 -0.00000000000E+00 -0.00000000000E+00 -0.71363906827E+03  0.71363906827E+03  0.00000000000E+00 0. -1.
         25    2    1    2    0    0 -0.10427287765E+03 -0.44937989746E+03  0.86579912001E+03  0.98896316794E+03  0.12499962429E+03 0.  0.
          2    1    1    2  501    0 -0.30972157077E+01  0.55135141086E+02 -0.62873621527E+03  0.63115664056E+03  0.00000000000E+00 0. -1.
          1    1    1    2  502    0  0.10737009336E+03  0.39424475638E+03  0.18656393897E+04  0.19098606225E+04  0.00000000000E+00 0. -1.
         22    1    3    3    0    0 -0.44559109814E+01 -0.23975099097E+03  0.51768202125E+03  0.57052175063E+03  0.00000000000E+00 0.  1.
         22    1    3    3    0    0 -0.99816966672E+02 -0.20962890649E+03  0.34811709876E+03  0.41844141731E+03  0.00000000000E+00 0.  1.
</event>
<event>
 7    1  0.4402832E-005  0.3600554E+03  0.7818608E-02  0.1166734E+00
          2   -1    0    0  502    0  0.00000000000E+00  0.00000000000E+00  0.58278302922E+03  0.58278302922E+03  0.00000000000E+00 0. -1.
          1   -1    0    0  501    0 -0.00000000000E+00 -0.00000000000E+00 -0.17389066513E+04  0.17389066513E+04  0.00000000000E+00 0. -1.
         25    2    1    2    0    0  0.40455136537E+03  0.93999599768E+02  0.14481645030E+03  0.45726825633E+03  0.12499888797E+03 0.  0.
          2    1    1    2  501    0 -0.82747043086E+02 -0.38103846578E+02 -0.14861514376E+04  0.14889409229E+04  0.00000000000E+00 0. -1.
          1    1    1    2  502    0 -0.32180432228E+03 -0.55895753191E+02  0.18521136523E+03  0.37548050132E+03  0.00000000000E+00 0. -1.
         22    1    3    3    0    0  0.26262303756E+03  0.23147745788E+01  0.11006979041E+03  0.28476582801E+03  0.00000000000E+00 0.  1.
         22    1    3    3    0    0  0.14192832780E+03  0.91684825189E+02  0.34746659890E+02  0.17250242832E+03  0.00000000000E+00 0.  1.
</event>
<event>
 7    1  0.4402832E-005  0.1099832E+03  0.7818608E-02  0.1327775E+00
          2   -1    0    0  502    0  0.00000000000E+00  0.00000000000E+00  0.30577856848E+02  0.30577856848E+02  0.00000000000E+00 0. -1.
          1   -1    0    0  501    0 -0.00000000000E+00 -0.00000000000E+00 -0.24545960929E+04  0.24545960929E+04  0.00000000000E+00 0. -1.
         25    2    1    2    0    0 -0.55756079575E+02 -0.10194343220E+02 -0.21610761049E+04  0.21654301663E+04  0.12500083450E+03 0.  0.
          2    1    1    2  501    0 -0.50168357468E+02 -0.30763473334E+02 -0.14264783131E+03  0.15431026914E+03  0.00000000000E+00 0. -1.
          1    1    1    2  502    0  0.10592443704E+03  0.40957816554E+02 -0.12029429978E+03  0.16543351432E+03  0.00000000000E+00 0. -1.
         22    1    3    3    0    0 -0.18564227566E+02  0.82740726387E+01 -0.19602775913E+04  0.19603829538E+04  0.00000000000E+00 0.  1.
         22    1    3    3    0    0 -0.37191852009E+02 -0.18468415858E+02 -0.20079851367E+03  0.20504721245E+03  0.00000000000E+00 0.  1.
</event>
<event>
 7    1  0.4402832E-005  0.3998075E+03  0.7818608E-02  0.1201731E+00
          2   -1    0    0  502    0  0.00000000000E+00  0.00000000000E+00  0.82249807319E+03  0.82249807319E+03  0.00000000000E+00 0. -1.
          1   -1    0    0  501    0 -0.00000000000E+00 -0.00000000000E+00 -0.67045906928E+03  0.67045906928E+03  0.00000000000E+00 0. -1.
         25    2    1    2    0    0  0.97690822651E+02  0.39606154257E+03  0.66999650990E+03  0.79431070434E+03  0.12500371759E+03 0.  0.
          2    1    1    2  501    0 -0.47755056116E+01 -0.55309047434E+02 -0.24789492130E+03  0.25403501370E+03  0.00000000000E+00 0. -1.
          1    1    1    2  502    0 -0.92915317040E+02 -0.34075249514E+03 -0.27006258469E+03  0.44461142443E+03  0.00000000000E+00 0. -1.
         22    1    3    3    0    0  0.88393166120E+02  0.16568210616E+03  0.22449447848E+03  0.29268017184E+03  0.00000000000E+00 0. -1.
         22    1    3    3    0    0  0.92976565317E+01  0.23037943642E+03  0.44550203142E+03  0.50163053250E+03  0.00000000000E+00 0. -1.
</event>
<event>
 7    1  0.4402832E-005  0.4575775E+03  0.7818608E-02  0.1232436E+00
          2   -1    0    0  502    0  0.00000000000E+00  0.00000000000E+00  0.10823791915E+04  0.10823791915E+04  0.00000000000E+00 0. -1.
          1   -1    0    0  501    0 -0.00000000000E+00 -0.00000000000E+00 -0.30593708342E+03  0.30593708342E+03  0.00000000000E+00 0. -1.
         25    2    1    2    0    0  0.17768203864E+03 -0.42225811142E+03  0.15627233293E+03  0.49992182213E+03  0.12501186620E+03 0.  0.
          2    1    1    2  501    0 -0.20927743427E+03  0.40701018991E+03  0.25967979888E+03  0.52620142258E+03  0.00000000000E+00 0. -1.
          1    1    1    2  502    0  0.31595395628E+02  0.15247921512E+02  0.36048997625E+03  0.36219303018E+03  0.00000000000E+00 0. -1.
         22    1    3    3    0    0  0.13756878064E+03 -0.28572771587E+03  0.47170380812E+02  0.32060964092E+03  0.00000000000E+00 0.  1.
         22    1    3    3    0    0  0.40113257997E+02 -0.13653039555E+03  0.10910195212E+03  0.17931218122E+03  0.00000000000E+00 0.  1.
</event>
<event>
 7    1  0.4402832E-005  0.5019534E+02  0.7818608E-02  0.1476044E+00
          2   -1    0    0  502    0  0.00000000000E+00  0.00000000000E+00  0.57824645141E+03  0.57824645141E+03  0.00000000000E+00 0. -1.
          1   -1    0    0  501    0 -0.00000000000E+00 -0.00000000000E+00 -0.79301910766E+03  0.79301910766E+03  0.00000000000E+00 0. -1.
         25    2    1    2    0    0 -0.29178196564E+02 -0.94722114365E+00  0.22588967958E+03  0.25981572468E+03  0.12500319624E+03 0.  0.
          2    1    1    2  501    0  0.32005227131E+02 -0.38809341254E+02 -0.77405265460E+03  0.77568551078E+03  0.00000000000E+00 0. -1.
          1    1    1    2  502    0 -0.28270305676E+01  0.39756562398E+02  0.33339031878E+03  0.33576432361E+03  0.00000000000E+00 0. -1.
         22    1    3    3    0    0 -0.30085938020E+02 -0.75060627260E+01  0.24117378823E+03  0.24315900307E+03  0.00000000000E+00 0. -1.
         22    1    3    3    0    0  0.90774145637E+00  0.65588415823E+01 -0.15284108655E+02  0.16656721611E+02  0.00000000000E+00 0. -1.
</event>
<event>
 7    1  0.4402832E-005  0.3002393E+03  0.7818608E-02  0.1253470E+00
          2   -1    0    0  502    0  0.00000000000E+00  0.00000000000E+00  0.29582798196E+03  0.29582798196E+03  0.00000000000E+00 0. -1.
          1   -1    0    0  501    0 -0.00000000000E+00 -0.00000000000E+00 -0.42808406249E+03  0.42808406249E+03  0.00000000000E+00 0. -1.
         25    2    1    2    0    0  0.28628102212E+02 -0.27245979725E+03  0.50870390376E+02  0.30539779004E+03  0.12500441668E+03 0.  0.
          2    1    1    2  501    0 -0.26314282110E+02  0.31562617314E+03 -0.11327427909E+03  0.33636793087E+03  0.00000000000E+00 0. -1.
          1    1    1    2  502    0 -0.23138201024E+01 -0.43166375885E+02 -0.69852191812E+02  0.82146323542E+02  0.00000000000E+00 0. -1.
         22    1    3    3    0    0  0.52485345381E+02 -0.11663201424E+03  0.71311585193E+02  0.14643456016E+03  0.00000000000E+00 0. -1.
         22    1    3    3    0    0 -0.23857243169E+02 -0.15582778301E+03 -0.20441194817E+02  0.15896322988E+03  0.00000000000E+00 0. -1.
</event>
<event>
 7    1  0.4402832E-005  0.1078994E+04  0.7818608E-02  0.1189282E+00
          2   -1    0    0  502    0  0.00000000000E+00  0.00000000000E+00  0.76897825711E+03  0.76897825711E+03  0.00000000000E+00 0. -1.
          1   -1    0    0  501    0 -0.00000000000E+00 -0.00000000000E+00 -0.27283070869E+04  0.27283070869E+04  0.00000000000E+00 0. -1.
         25    2    1    2    0    0  0.64902723235E+03 -0.86179605720E+03 -0.92766311320E+03  0.14283255950E+04  0.12500544478E+03 0.  0.
          2    1    1    2  501    0 -0.18811594080E+02 -0.14205405974E+02 -0.98867964491E+03  0.98896062100E+03  0.00000000000E+00 0. -1.
          1    1    1    2  502    0 -0.63021563827E+03  0.87600146317E+03 -0.42986071722E+02  0.10799991280E+04  0.00000000000E+00 0. -1.
         22    1    3    3    0    0  0.37455999844E+03 -0.52314353666E+03 -0.62995753134E+03  0.90045590879E+03  0.00000000000E+00 0. -1.
         22    1    3    3    0    0  0.27446723391E+03 -0.33865252054E+03 -0.29770558186E+03  0.52786968622E+03  0.00000000000E+00 0. -1.
</event>
<event>
 7    1  0.4402832E-005  0.3374377E+03  0.7818608E-02  0.1164517E+00
          2   -1    0    0  502    0  0.00000000000E+00  0.00000000000E+00  0.14285235961E+04  0.14285235961E+04  0.00000000000E+00 0. -1.
          1   -1    0    0  501    0 -0.00000000000E+00 -0.00000000000E+00 -0.58258657390E+03  0.58258657390E+03  0.00000000000E+00 0. -1.
         25    2    1    2    0    0  0.39491694719E+03  0.18562292508E+02 -0.36978541995E+03  0.55558038980E+03  0.12499743534E+03 0.  0.
          2    1    1    2  501    0 -0.64687215641E+02 -0.75893253932E+02 -0.73224716210E+02  0.12371774700E+03  0.00000000000E+00 0. -1.
          1    1    1    2  502    0 -0.33022973154E+03  0.57330961424E+02  0.12889471584E+04  0.13318120332E+04  0.00000000000E+00 0. -1.
         22    1    3    3    0    0  0.21554663235E+03  0.20495705541E+01 -0.28269924253E+03  0.35550444889E+03  0.00000000000E+00 0. -1.
         22    1    3    3    0    0  0.17937031484E+03  0.16512721954E+02 -0.87086177420E+02  0.20007594090E+03  0.00000000000E+00 0. -1.
</event>
<event>
 7    1  0.4402832E-005  0.6078268E+03  0.7818608E-02  0.1232961E+00
          2   -1    0    0  502    0  0.00000000000E+00  0.00000000000E+00  0.22503865948E+04  0.22503865948E+04  0.00000000000E+00 0. -1.
          1   -1    0    0  501    0 -0.00000000000E+00 -0.00000000000E+00 -0.40715604502E+03  0.40715604502E+03  0.00000000000E+00 0. -1.
         25    2    1    2    0    0 -0.51667084465E+03 -0.32607617580E+03  0.17024405816E+04  0.18130646575E+04  0.12500033741E+03 0.  0.
          2    1    1    2  501    0  0.23461139358E+02 -0.11815078610E+02 -0.16907023384E+03  0.17109869992E+03  0.00000000000E+00 0. -1.
          1    1    1    2  502    0  0.49320970529E+03  0.33789125441E+03  0.30986020210E+03  0.67337928246E+03  0.00000000000E+00 0. -1.
         22    1    3    3    0    0 -0.47085861562E+03 -0.27710520437E+03  0.13901922461E+04  0.14936966263E+04  0.00000000000E+00 0.  1.
         22    1    3    3    0    0 -0.45812229032E+02 -0.48970971430E+02  0.31224833545E+03  0.31936803121E+03  0.00000000000E+00 0.  1.
</event>
<event>
 7    1  0.4402832E-005  0.4673399E+03  0.7818608E-02  0.1086939E+00
          2   -1    0    0  502    0  0.00000000000E+00  0.00000000000E+00  0.13116503362E+04  0.13116503362E+04  0.00000000000E+00 0. -1.
          1   -1    0    0  501    0 -0.00000000000E+00 -0.00000000000E+00 -0.39372490972E+03  0.39372490972E+03  0.00000000000E+00 0. -1.
         25    2    1    2    0    0 -0.13962188644E+03  0.58470472588E+03  0.86691184264E+02  0.62009219314E+03  0.12500031570E+03 0.  0.
          2    1    1    2  501    0  0.11976436069E+03 -0.14526998457E+03  0.60322678166E+02  0.19770102683E+03  0.00000000000E+00 0. -1.
          1    1    1    2  502    0  0.19857525745E+02 -0.43943474131E+03  0.77091156407E+03  0.88758202597E+03  0.00000000000E+00 0. -1.
         22    1    3    3    0    0 -0.22054514149E+01  0.90865622446E+02  0.55598206490E+02  0.10654851441E+03  0.00000000000E+00 0. -1.
         22    1    3    3    0    0 -0.13741643502E+03  0.49383910344E+03  0.31092977774E+02  0.51354367873E+03  0.00000000000E+00 0. -1.
</event>
<event>
 7    1  0.4402832E-005  0.1884094E+03  0.7818608E-02  0.1160647E+00
          2   -1    0    0  502    0  0.00000000000E+00  0.00000000000E+00  0.14183017902E+04  0.14183017902E+04  0.00000000000E+00 0. -1.
          1   -1    0    0  501    0 -0.00000000000E+00 -0.00000000000E+00 -0.35896015433E+03  0.35896015433E+03  0.00000000000E+00 0. -1.
         25    2    1    2    0    0 -0.12054537781E+03  0.18656073401E+03  0.13223849360E+03  0.28713921780E+03  0.12500326244E+03 0.  0.
          2    1    1    2  501    0  0.18671790085E+03 -0.50594288597E+01 -0.24169875016E+03  0.30546269518E+03  0.00000000000E+00 0. -1.
          1    1    1    2  502    0 -0.66172523046E+02 -0.18150130516E+03  0.11688018925E+04  0.11846600316E+04  0.00000000000E+00 0. -1.
         22    1    3    3    0    0 -0.69320376393E+02  0.18896791484E+03  0.89075196645E+02  0.22011037704E+03  0.00000000000E+00 0. -1.
         22    1    3    3    0    0 -0.51225001415E+02 -0.24071808274E+01  0.43163296953E+02  0.67028840758E+02  0.00000000000E+00 0. -1.
</event>
<event>
 7    1  0.4402832E-005  0.3084537E+03  0.7818608E-02  0.1187477E+00
          2   -1    0    0  502    0  0.00000000000E+00  0.00000000000E+00  0.82569125129E+03  0.82569125129E+03  0.00000000000E+00 0. -1.
          1   -1    0    0  501    0 -0.00000000000E+00 -0.00000000000E+00 -0.11573397554E+04  0.11573397554E+04  0.00000000000E+00 0. -1.
         25    2    1    2    0    0  0.13042815553E+03  0.32425920280E+03  0.14797998577E+03  0.39959825164E+03  0.12500060868E+03 0.  0.
          2    1    1    2  501    0 -0.49393434652E+02 -0.30166979367E+03 -0.10054666352E+04  0.10509079552E+04  0.00000000000E+00 0. -1.
          1    1    1    2  502    0 -0.81034720881E+02 -0.22589409128E+02  0.52583814532E+03  0.53252479986E+03  0.00000000000E+00 0. -1.
         22    1    3    3    0    0  0.15469905888E+03  0.27987322199E+03  0.11840725835E+03  0.34100014375E+03  0.00000000000E+00 0. -1.
         22    1    3    3    0    0 -0.24270903349E+02  0.44385980806E+02  0.29572727417E+02  0.58598107891E+02  0.00000000000E+00 0. -1.
</event>
<event>
 7    1  0.4402832E-005  0.5293297E+03  0.7818608E-02  0.1085249E+00
          2   -1    0    0  502    0  0.00000000000E+00  0.00000000000E+00  0.36980773746E+04  0.36980773746E+04  0.00000000000E+00 0. -1.
          1   -1    0    0  501    0 -0.00000000000E+00 -0.00000000000E+00 -0.10126397914E+04  0.10126397914E+04  0.00000000000E+00 0. -1.
         25    2    1    2    0    0 -0.38639406383E+02  0.59123659497E+03  0.25630308179E+04  0.26335917349E+04  0.12499895086E+03 0.  0.
          2    1    1    2  501    0  0.91106288023E+02 -0.14353328192E+03 -0.92307902384E+03  0.93860377316E+03  0.00000000000E+00 0. -1.
          1    1    1    2  502    0 -0.52466881640E+02 -0.44770331304E+03  0.10454857892E+04  0.11385216579E+04  0.00000000000E+00 0. -1.
         22    1    3    3    0    0 -0.43821638567E+02  0.57905935606E+03  0.23700314640E+04  0.24401391793E+04  0.00000000000E+00 0.  1.
         22    1    3    3    0    0  0.51822321844E+01  0.12177238904E+02  0.19299935389E+03  0.19345255563E+03  0.00000000000E+00 0.  1.
</event>
<event>
 7    1  0.4402832E-005  0.1990907E+03  0.7818608E-02  0.1156872E+00
          2   -1    0    0  502    0  0.00000000000E+00  0.00000000000E+00  0.59271336880E+03  0.59271336880E+03  0.00000000000E+00 0. -1.
          1   -1    0    0  501    0 -0.00000000000E+00 -0.00000000000E+00 -0.96382945946E+03  0.96382945946E+03  0.00000000000E+00 0. -1.
         25    2    1    2    0    0 -0.18877644781E+03  0.44656369083E+02  0.20434976838E+03  0.30824483044E+03  0.12500123642E+03 0.  0.
          2    1    1    2  501    0  0.73693891696E+02 -0.18915325607E+03 -0.87398258509E+03  0.89724874087E+03  0.00000000000E+00 0. -1.
          1    1    1    2  502    0  0.11508255612E+03  0.14449688699E+03  0.29851672605E+03  0.35104925695E+03  0.00000000000E+00 0. -1.
         22    1    3    3    0    0  0.48677499450E+00  0.23088441985E+02 -0.65986844320E+01  0.24017821288E+02  0.00000000000E+00 0.  1.
         22    1    3    3    0    0 -0.18926322281E+03  0.21567927098E+02  0.21094845282E+03  0.28422700915E+03  0.00000000000E+00 0.  1.
</event>
<event>
 7    1  0.4402832E-005  0.2857458E+03  0.7818608E-02  0.1104664E+00
          2   -1    0    0  502    0  0.00000000000E+00  0.00000000000E+00  0.13912753746E+04  0.13912753746E+04  0.00000000000E+00 0. -1.
          1   -1    0    0  501    0 -0.00000000000E+00 -0.00000000000E+00 -0.20055280030E+04  0.20055280030E+04  0.00000000000E+00 0. -1.
         25    2    1    2    0    0 -0.15847768539E+03 -0.88618854124E+02  0.10650476814E+04  0.10876215629E+04  0.12500248963E+03 0.  0.
          2    1    1    2  501    0  0.25313995481E+03 -0.13650977640E+03 -0.19346114764E+04  0.19558722658E+04  0.00000000000E+00 0. -1.
          1    1    1    2  502    0 -0.94662269417E+02  0.22512863053E+03  0.25531116659E+03  0.35330954887E+03  0.00000000000E+00 0. -1.
         22    1    3    3    0    0 -0.52409760711E+02 -0.93030404255E+02  0.39328937456E+03  0.40752665100E+03  0.00000000000E+00 0. -1.
         22    1    3    3    0    0 -0.10606792468E+03  0.44115501302E+01  0.67175830682E+03  0.68009491191E+03  0.00000000000E+00 0. -1.
</event>
<event>
 7    1  0.4402832E-005  0.2579545E+03  0.7818608E-02  0.1158603E+00
          2   -1    0    0  502    0  0.00000000000E+00  0.00000000000E+00  0.84426640671E+03  0.84426640671E+03  0.00000000000E+00 0. -1.
          1   -1    0    0  501    0 -0.00000000000E+00 -0.00000000000E+00 -0.59240142663E+03  0.59240142663E+03  0.00000000000E+00 0. -1.
         25    2    1    2    0    0 -0.34702856669E+03  0.13800134823E+03  0.68199655773E+02  0.39967856370E+03  0.12497424944E+03 0.  0.
          2    1    1    2  501    0  0.13884007174E+03 -0.15626184562E+02 -0.39015845266E+03  0.41442051270E+03  0.00000000000E+00 0. -1.
          1    1    1    2  502    0  0.20818849496E+03 -0.12237516366E+03  0.57382377696E+03  0.62256875694E+03  0.00000000000E+00 0. -1.
         22    1    3    3    0    0 -0.74233989688E+02  0.49404198789E+02  0.69173526102E+02  0.11285582305E+03  0.00000000000E+00 0. -1.
         22    1    3    3    0    0 -0.27279457700E+03  0.88597149438E+02 -0.97387032869E+00  0.28682274065E+03  0.00000000000E+00 0. -1.
</event>
<event>
 7    1  0.4402832E-005  0.1348770E+03  0.7818608E-02  0.1282571E+00
          2   -1    0    0  502    0  0.00000000000E+00  0.00000000000E+00  0.13384255582E+03  0.13384255582E+03  0.00000000000E+00 0. -1.
          1   -1    0    0  501    0 -0.00000000000E+00 -0.00000000000E+00 -0.12126055611E+04  0.12126055611E+04  0.00000000000E+00 0. -1.
         25    2    1    2    0    0  0.65265564052E+02  0.18134493027E+03 -0.53806012030E+03  0.58504598115E+03  0.12499811769E+03 0.  0.
          2    1    1    2  501    0 -0.33412652736E+02 -0.11615298690E+03 -0.63275353663E+03  0.64419326281E+03  0.00000000000E+00 0. -1.
          1    1    1    2  502    0 -0.31852911316E+02 -0.65191943368E+02  0.92050651623E+02  0.11720887297E+03  0.00000000000E+00 0. -1.
         22    1    3    3    0    0  0.47465673524E+02  0.19737499628E+02 -0.54652994969E+02  0.75030053403E+02  0.00000000000E+00 0. -1.
         22    1    3    3    0    0  0.17799890528E+02  0.16160743064E+03 -0.48340712533E+03  0.51001592775E+03  0.00000000000E+00 0. -1.
</event>
<event>
 7    1  0.4402832E-005  0.9217378E+02  0.7818608E-02  0.1333977E+00
          2   -1    0    0  502    0  0.00000000000E+00  0.00000000000E+00  0.42578782157E+04  0.42578782157E+04  0.00000000000E+00 0. -1.
          1   -1    0    0  501    0 -0.00000000000E+00 -0.00000000000E+00 -0.26101390716E+02  0.26101390716E+02  0.00000000000E+00 0. -1.
         25    2    1    2    0    0  0.85582537689E+02  0.33465696770E+02  0.31126521620E+04  0.31165162382E+04  0.12500263067E+03 0.  0.
          2    1    1    2  501    0  0.25864546971E+02 -0.61260212307E+02  0.99918618415E+03  0.10013964345E+04  0.00000000000E+00 0. -1.
          1    1    1    2  502    0 -0.11144708466E+03  0.27794515537E+02  0.11993847879E+03  0.16606693370E+03  0.00000000000E+00 0. -1.
         22    1    3    3    0    0  0.82045599256E+02  0.55768055361E+02  0.13202752691E+04  0.13239971082E+04  0.00000000000E+00 0. -1.
         22    1    3    3    0    0  0.35369384323E+01 -0.22302358591E+02  0.17923768930E+04  0.17925191301E+04  0.00000000000E+00 0. -1.
</event>
<event>
 7    1  0.4402832E-005  0.3381707E+03  0.7818608E-02  0.1179063E+00
          2   -1    0    0  502    0  0.00000000000E+00  0.00000000000E+00  0.23258851154E+04  0.23258851154E+04  0.00000000000E+00 0. -1.
          1   -1    0    0  501    0 -0.00000000000E+00 -0.00000000000E+00 -0.44110371737E+03  0.44110371737E+03  0.00000000000E+00 0. -1.
         25    2    1    2    0    0 -0.22114931253E+02 -0.36274819541E+03  0.73919388313E+02  0.39136097295E+03  0.12499604684E+03 0.  0.
          2    1    1    2  501    0 -0.53686985843E+02  0.32586729066E+03 -0.18462406027E+03  0.37836203192E+03  0.00000000000E+00 0. -1.
          1    1    1    2  502    0  0.75801917097E+02  0.36880904750E+02  0.19954860700E+04  0.19972658279E+04  0.00000000000E+00 0. -1.
         22    1    3    3    0    0 -0.16478497196E+02 -0.23456206909E+03 -0.14419045273E+02  0.23558186262E+03  0.00000000000E+00 0.  1.
         22    1    3    3    0    0 -0.56364340571E+01 -0.12818612632E+03  0.88338433585E+02  0.15577911034E+03  0.00000000000E+00 0.  1.
</event>
<event>
 7    1  0.4402832E-005  0.2299454E+03  0.7818608E-02  0.1242393E+00
          2   -1    0    0  502    0  0.00000000000E+00  0.00000000000E+00  0.12549010727E+03  0.12549010727E+03  0.00000000000E+00 0. -1.
          1   -1    0    0  501    0 -0.00000000000E+00 -0.00000000000E+00 -0.94768629870E+03  0.94768629870E+03  0.00000000000E+00 0. -1.
         25    2    1    2    0    0 -0.17413828891E+03 -0.74473493102E+02 -0.30315172968E+03  0.37867712314E+03  0.12499979015E+03 0.  0.
          2    1    1    2  501    0 -0.54584302160E+02 -0.31599424985E+02 -0.41824517764E+03  0.42297399248E+03  0.00000000000E+00 0. -1.
          1    1    1    2  502    0  0.22872259107E+03  0.10607291809E+03 -0.10079928411E+03  0.27152529034E+03  0.00000000000E+00 0. -1.
         22    1    3    3    0    0 -0.13435903038E+01 -0.39869075720E+02 -0.18692204276E+02  0.44053909411E+02  0.00000000000E+00 0. -1.
         22    1    3    3    0    0 -0.17279469861E+03 -0.34604417382E+02 -0.28445952541E+03  0.33462321373E+03  0.00000000000E+00 0. -1.
</event>
<event>
 7    1  0.4402832E-005  0.3332935E+03  0.7818608E-02  0.1102576E+00
          2   -1    0    0  502    0  0.00000000000E+00  0.00000000000E+00  0.39013706431E+03  0.39013706431E+03  0.00000000000E+00 0. -1.
          1   -1    0    0  501    0 -0.00000000000E+00 -0.00000000000E+00 -0.82113182755E+03  0.82113182755E+03  0.00000000000E+00 0. -1.
         25    2    1    2    0    0  0.21339307063E+03 -0.28825798536E+03 -0.45960515750E+03  0.59623111063E+03  0.12500147107E+03 0.  0.
          2    1    1    2  501    0  0.11288699818E+03  0.18308725511E+03  0.13757468738E+03  0.25532569778E+03  0.00000000000E+00 0. -1.
          1    1    1    2  502    0 -0.32628006880E+03  0.10517073025E+03 -0.10896429312E+03  0.35971208344E+03  0.00000000000E+00 0. -1.
         22    1    3    3    0    0  0.35738493529E+01 -0.41461569927E+02 -0.11268086698E+02  0.43113848794E+02  0.00000000000E+00 0.  1.
         22    1    3    3    0    0  0.20981922127E+03 -0.24679641543E+03 -0.44833707080E+03  0.55311726183E+03  0.00000000000E+00 0.  1.
</event>
<event>
 7    1  0.4402832E-005  0.5499467E+02  0.7818608E-02  0.1489605E+00
          2   -1    0    0  502    0  0.00000000000E+00  0.00000000000E+00  0.10989266711E+04  0.10989266711E+04  0.00000000000E+00 0. -1.
          1   -1    0    0  501    0 -0.00000000000E+00 -0.00000000000E+00 -0.53199630443E+02  0.53199630443E+02  0.00000000000E+00 0. -1.
         25    2    1    2    0    0  0.28565097246E+02  0.12560283186E+02  0.42781115487E+03  0.44678975968E+03  0.12499991852E+03 0.  0.
          2    1    1    2  501    0 -0.55816349419E+02  0.61712480895E+01 -0.25071763504E+02  0.61499125934E+02  0.00000000000E+00 0. -1.
          1    1    1    2  502    0  0.27251252173E+02 -0.18731531275E+02  0.64298764930E+03  0.64383741594E+03  0.00000000000E+00 0. -1.
         22    1    3    3    0    0 -0.26183304910E+02  0.21994151772E+02  0.31147157175E+02  0.46254227572E+02  0.00000000000E+00 0. -1.
         22    1    3    3    0    0  0.54748402157E+02 -0.94338685862E+01  0.39666399769E+03  0.40053553211E+03  0.00000000000E+00 0. -1.
</event>
<event>
 7    1  0.4402832E-005  0.5317253E+03  0.7818608E-02  0.1142789E+00
          2   -1    0    0  502    0  0.00000000000E+00  0.00000000000E+00  0.15182189984E+04  0.15182189984E+04  0.00000000000E+00 0. -1.
          1   -1    0    0  501    0 -0.00000000000E+00 -0.00000000000E+00 -0.69164395468E+03  0.69164395468E+03  0.00000000000E+00 0. -1.
         25    2    1    2    0    0 -0.20474131550E+03  0.53827076341E+03  0.64864978147E+03  0.87637105243E+03  0.12500104605E+03 0.  0.
          2    1    1    2  501    0  0.53419411630E+02 -0.61853152754E+02 -0.49137581057E+03  0.49812612184E+03  0.00000000000E+00 0. -1.
          1    1    1    2  502    0  0.15132190387E+03 -0.47641761065E+03  0.66930107281E+03  0.83536577880E+03  0.00000000000E+00 0. -1.
         22    1    3    3    0    0  0.86856240410E+01  0.11331248749E+03  0.13208718259E+03  0.17424747829E+03  0.00000000000E+00 0.  1.
         22    1    3    3    0    0 -0.21342693954E+03  0.42495827592E+03  0.51656259889E+03  0.70212357414E+03  0.00000000000E+00 0.  1.
</event>
<event>
 7    1  0.4402832E-005  0.7592600E+03  0.7818608E-02  0.1086807E+00
          2   -1    0    0  502    0  0.00000000000E+00  0.00000000000E+00  0.78093930285E+03  0.78093930285E+03  0.00000000000E+00 0. -1.
          1   -1    0    0  501    0 -0.00000000000E+00 -0.00000000000E+00 -0.36271322451E+04  0.36271322451E+04  0.00000000000E+00 0. -1.
         25    2    1    2    0    0  0.73044528639E+03 -0.44243198239E+03 -0.15781741484E+04  0.17987647830E+04  0.12499890570E+03 0.  0.
          2    1    1    2  501    0 -0.11462349657E+03  0.18395447190E+02 -0.17277097941E+04  0.17316056338E+04  0.00000000000E+00 0. -1.
          1    1    1    2  502    0 -0.61582178982E+03  0.42403653520E+03  0.45969100021E+03  0.87770113118E+03  0.00000000000E+00 0. -1.
         22    1    3    3    0    0  0.60743893439E+03 -0.31129156501E+03 -0.12784065760E+04  0.14492093952E+04  0.00000000000E+00 0.  1.
         22    1    3    3    0    0  0.12300635199E+03 -0.13114041738E+03 -0.29976757234E+03  0.34955538778E+03  0.00000000000E+00 0.  1.
</event>
<event>
 7    1  0.4402832E-005  0.6201837E+02  0.7818608E-02  0.1438571E+00
          2   -1    0    0  502    0  0.00000000000E+00  0.00000000000E+00  0.60176824877E+03  0.60176824877E+03  0.00000000000E+00 0. -1.
          1   -1    0    0  501    0 -0.00000000000E+00 -0.00000000000E+00 -0.31746099632E+04  0.31746099632E+04  0.00000000000E+00 0. -1.
         25    2    1    2    0    0  0.11324050209E+02  0.70550654365E+02  0.11941802024E+03  0.18705829396E+03  0.12499805133E+03 0.  0.
          2    1    1    2  501    0 -0.44082162389E+02 -0.43636105360E+02 -0.31394809270E+04  0.31400936033E+04  0.00000000000E+00 0. -1.
          1    1    1    2  502    0  0.32758112181E+02 -0.26914549004E+02  0.44722119236E+03  0.44922631463E+03  0.00000000000E+00 0. -1.
         22    1    3    3    0    0 -0.49967748639E+01 -0.37417349182E+01 -0.23956340799E+02  0.24756304323E+02  0.00000000000E+00 0.  1.
         22    1    3    3    0    0  0.16320825072E+02  0.74292389283E+02  0.14337436104E+03  0.16230198964E+03  0.00000000000E+00 0.  1.
</event>
<event>
 7    1  0.4402832E-005  0.2543053E+03  0.7818608E-02  0.1115969E+00
          2   -1    0    0  502    0  0.00000000000E+00  0.00000000000E+00  0.53843490133E+03  0.53843490133E+03  0.00000000000E+00 0. -1.
          1   -1    0    0  501    0 -0.00000000000E+00 -0.00000000000E+00 -0.72203460984E+03  0.72203460984E+03  0.00000000000E+00 0. -1.
         25    2    1    2    0    0  0.30109987333E+03 -0.11751742627E+03 -0.11213751999E+03  0.36424024303E+03  0.12499860822E+03 0.  0.
          2    1    1    2  501    0 -0.68663630956E+02  0.22750147976E+03 -0.40832248466E+03  0.47243927545E+03  0.00000000000E+00 0. -1.
          1    1    1    2  502    0 -0.23243624237E+03 -0.10998405349E+03  0.33686029614E+03  0.42378999269E+03  0.00000000000E+00 0. -1.
         22    1    3    3    0    0  0.29207608923E+03 -0.72920876389E+02 -0.98205004722E+02  0.31665457374E+03  0.00000000000E+00 0.  1.
         22    1    3    3    0    0  0.90237840934E+01 -0.44596549877E+02 -0.13932515266E+02  0.47585669291E+02  0.00000000000E+00 0.  1.
</event>
<event>
 7    1  0.4402832E-005  0.3240538E+03  0.7818608E-02  0.1086810E+00
          2   -1    0    0  502    0  0.00000000000E+00  0.00000000000E+00  0.71166324366E+03  0.71166324366E+03  0.00000000000E+00 0. -1.
          1   -1    0    0  501    0 -0.00000000000E+00 -0.00000000000E+00 -0.14538015508E+04  0.14538015508E+04  0.00000000000E+00 0. -1.
         25    2    1    2    0    0 -0.39264845118E+03 -0.40323378354E+03 -0.30286074383E+03  0.65124489100E+03  0.12499994998E+03 0.  0.
          2    1    1    2  501    0  0.18601350888E+03  0.22637290140E+03 -0.91800187493E+03  0.96362500920E+03  0.00000000000E+00 0. -1.
          1    1    1    2  502    0  0.20663494230E+03  0.17686088214E+03  0.47872431164E+03  0.55059489425E+03  0.00000000000E+00 0. -1.
         22    1    3    3    0    0 -0.25251914408E+03 -0.17211352382E+03 -0.17622311887E+03  0.35276560324E+03  0.00000000000E+00 0. -1.
         22    1    3    3    0    0 -0.14012930710E+03 -0.23112025972E+03 -0.12663762496E+03  0.29847928776E+03  0.00000000000E+00 0. -1.
</event>
<event>
 7    1  0.5656274E-005  0.2114473E+03  0.7818608E-02  0.1189249E+00
          2   -1    0    0  502    0  0.00000000000E+00  0.00000000000E+00  0.25223540956E+04  0.25223540956E+04  0.00000000000E+00 0. -1.
          1   -1    0    0  501    0 -0.00000000000E+00 -0.00000000000E+00 -0.58692385415E+03  0.58692385415E+03  0.00000000000E+00 0. -1.
         25    2    1    2    0    0 -0.10183356893E+03 -0.22528647657E+03 -0.40221650533E+02  0.27993686589E+03  0.12499118141E+03 0.  0.
          2    1    1    2  501    0 -0.67843531184E+02  0.99384227493E+02 -0.41360814250E+03  0.43075708345E+03  0.00000000000E+00 0. -1.
          1    1    1    2  502    0  0.16967710011E+03  0.12590224907E+03  0.23892600344E+04  0.23985840004E+04  0.00000000000E+00 0. -1.
         22    1    3    3    0    0  0.27358848728E+02 -0.30866190082E+02 -0.19396224226E+02  0.45578962341E+02  0.00000000000E+00 0. -1.
         22    1    3    3    0    0 -0.12919241766E+03 -0.19442028648E+03 -0.20825426307E+02  0.23435790355E+03  0.00000000000E+00 0. -1.
</event>
<event>
 7    1  0.4402832E-005  0.3007965E+03  0.7818608E-02  0.1138792E+00
          2   -1    0    0  502    0  0.00000000000E+00  0.00000000000E+00  0.26329625011E+04  0.26329625011E+04  0.00000000000E+00 0. -1.
          1   -1    0    0  501    0 -0.00000000000E+00 -0.00000000000E+00 -0.16565345570E+04  0.16565345570E+04  0.00000000000E+00 0. -1.
         25    2    1    2    0    0  0.41237732094E+03 -0.10722461726E+03  0.39094006430E+03  0.59161723047E+03  0.12499856055E+03 0.  0.
          2    1    1    2  501    0 -0.15074668295E+03 -0.16029912786E+02 -0.15427001072E+04  0.15501306853E+04  0.00000000000E+00 0. -1.
          1    1    1    2  502    0 -0.26163063799E+03  0.12325453005E+03  0.21281879870E+04  0.21477491423E+04  0.00000000000E+00 0. -1.
         22    1    3    3    0    0  0.23155430236E+03 -0.33950530456E+02  0.28774922997E+03  0.37090383229E+03  0.00000000000E+00 0.  1.
         22    1    3    3    0    0  0.18082301857E+03 -0.73274086808E+02  0.10319083433E+03  0.22071339817E+03  0.00000000000E+00 0.  1.
</event>
<event>
 7    1  0.4402832E-005  0.3716018E+03  0.7818608E-02  0.1101474E+00
          2   -1    0    0  502    0  0.00000000000E+00  0.00000000000E+00  0.31666099756E+03  0.31666099756E+03  0.00000000000E+00 0. -1.
          1   -1    0    0  501    0 -0.00000000000E+00 -0.00000000000E+00 -0.14408537938E+04  0.14408537938E+04  0.00000000000E+00 0. -1.
         25    2    1    2    0    0 -0.35265247432E+03 -0.94476042964E+02  0.58926373499E+02  0.39036761188E+03  0.12500025830E+03 0.  0.
          2    1    1    2  501    0  0.32357889431E+02 -0.19299175598E+03 -0.66709634928E+03  0.69520528631E+03  0.00000000000E+00 0. -1.
          1    1    1    2  502    0  0.32029458489E+03  0.28746779895E+03 -0.51602282043E+03  0.67194189313E+03  0.00000000000E+00 0. -1.
         22    1    3    3    0    0 -0.28736249500E+03 -0.95803878800E+02  0.92791175931E+02  0.31680560137E+03  0.00000000000E+00 0.  1.
         22    1    3    3    0    0 -0.65289979317E+02  0.13278358359E+01 -0.33864802432E+02  0.73562010515E+02  0.00000000000E+00 0.  1.
</event>
<event>
 7    1  0.4402832E-005  0.3624879E+03  0.7818608E-02  0.1092265E+00
          2   -1    0    0  502    0  0.00000000000E+00  0.00000000000E+00  0.12372788943E+04  0.12372788943E+04  0.00000000000E+00 0. -1.
          1   -1    0    0  501    0 -0.00000000000E+00 -0.00000000000E+00 -0.28514943885E+03  0.28514943885E+03  0.00000000000E+00 0. -1.
         25    2    1    2    0    0 -0.25948087968E+03  0.33177640145E+03  0.44386582005E+03  0.62453867304E+03  0.12500312172E+03 0.  0.
          2    1    1    2  501    0  0.22543955668E+03  0.18763193058E+02 -0.55713251479E+02  0.23297857739E+03  0.00000000000E+00 0. -1.
          1    1    1    2  502    0  0.34041322998E+02 -0.35053959450E+03  0.56397688685E+03  0.66491108269E+03  0.00000000000E+00 0. -1.
         22    1    3    3    0    0 -0.36265581745E+02  0.29984441359E+02  0.54348911715E+01  0.47368736366E+02  0.00000000000E+00 0. -1.
         22    1    3    3    0    0 -0.22321529794E+03  0.30179196009E+03  0.43843092888E+03  0.57716993668E+03  0.00000000000E+00 0. -1.
</event>
<event>
 7    1  0.4402832E-005  0.8116616E+02  0.7818608E-02  0.1395844E+00
          2   -1    0    0  502    0  0.00000000000E+00  0.00000000000E+00  0.54298272959E+03  0.54298272959E+03  0.00000000000E+00 0. -1.
          1   -1    0    0  501    0 -0.00000000000E+00 -0.00000000000E+00 -0.92467614801E+02  0.92467614801E+02  0.00000000000E+00 0. -1.
         25    2    1    2    0    0 -0.95718646671E+02  0.14723698084E+01  0.16614405816E+03  0.22889521662E+03  0.12499977975E+03 0.  0.
          2    1    1    2  501    0  0.70510253858E+02 -0.38821646050E+02 -0.32273692321E+02  0.86720282041E+02  0.00000000000E+00 0. -1.
          1    1    1    2  502    0  0.25208392813E+02  0.37349276241E+02  0.31664474895E+03  0.31983484573E+03  0.00000000000E+00 0. -1.
         22    1    3    3    0    0 -0.81144120565E+02 -0.54422098537E+02  0.86387984831E+02  0.13041862227E+03  0.00000000000E+00 0.  1.
         22    1    3    3    0    0 -0.14574526106E+02  0.55894468346E+02  0.79756073327E+02  0.98476594353E+02  0.00000000000E+00 0.  1.
</event>
<event>
 7    1  0.4402832E-005  0.1702679E+03  0.7818608E-02  0.1362657E+00
          2   -1    0    0  502    0  0.00000000000E+00  0.00000000000E+00  0.80043949311E+03  0.80043949311E+03  0.00000000000E+00 0. -1.
          1   -1    0    0  501    0 -0.00000000000E+00 -0.00000000000E+00 -0.11793085405E+03  0.11793085405E+03  0.00000000000E+00 0. -1.
         25    2    1    2    0    0 -0.12126366929E+03 -0.12225456516E+03  0.36323791773E+03  0.42097160246E+03  0.12499699598E+03 0.  0.
          2    1    1    2  501    0  0.98519217667E+02  0.13886813491E+03 -0.65222313149E+01  0.17039053567E+03  0.00000000000E+00 0. -1.
          1    1    1    2  502    0  0.22744451625E+02 -0.16613569749E+02  0.32579295265E+03  0.32700820903E+03  0.00000000000E+00 0. -1.
         22    1    3    3    0    0  0.10348865929E+02 -0.69726339245E+02  0.13565851790E+03  0.15287934749E+03  0.00000000000E+00 0. -1.
         22    1    3    3    0    0 -0.13161253522E+03 -0.52528225916E+02  0.22757939983E+03  0.26809225497E+03  0.00000000000E+00 0. -1.
</event>
<event>
 7    1  0.4402832E-005  0.2431667E+03  0.7818608E-02  0.1177738E+00
          2   -1    0    0  502    0  0.00000000000E+00  0.00000000000E+00  0.81433368095E+03  0.81433368095E+03  0.00000000000E+00 0. -1.
          1   -1    0    0  501    0 -0.00000000000E+00 -0.00000000000E+00 -0.81473601434E+03  0.81473601434E+03  0.00000000000E+00 0. -1.
         25    2    1    2    0    0  0.30905116172E+03  0.13384774718E+03 -0.11671577544E+03  0.37772395590E+03  0.12499989857E+03 0.  0.
          2    1    1    2  501    0 -0.77014149004E+02 -0.90712450306E+02 -0.54048551104E+03  0.55342977461E+03  0.00000000000E+00 0. -1.
          1    1    1    2  502    0 -0.23203701271E+03 -0.43135296878E+02  0.65679895309E+03  0.69791596477E+03  0.00000000000E+00 0. -1.
         22    1    3    3    0    0  0.21153591963E+03  0.10656687136E+03 -0.20013333073E+02  0.23770670345E+03  0.00000000000E+00 0.  1.
         22    1    3    3    0    0  0.97515242090E+02  0.27280875826E+02 -0.96702442363E+02  0.14001725245E+03  0.00000000000E+00 0.  1.
</event>
