<event>
 7    1  0.6681656E-006  0.3720640E+02  0.7818608E-02  0.1630160E+00
          2   -1    0    0  502    0  0.00000000000E+00  0.00000000000E+00  0.11233431572E+04  0.11233431572E+04  0.00000000000E+00 0. -1.
          1   -1    0    0  501    0 -0.00000000000E+00 -0.00000000000E+00 -0.30299191563E+02  0.30299191563E+02  0.00000000000E+00 0. -1.
         25    2    1    2    0    0 -0.16581854924E+01 -0.38215363913E+02  0.37250355111E+03  0.39477312320E+03  0.12499503827E+03 0.  0.
          2    1    1    2  501    0 -0.18780403616E+02  0.69164344310E+01 -0.13330628922E+02  0.24046752227E+02  0.00000000000E+00 0. -1.
          1    1    1    2  502    0  0.20438589108E+02  0.31298929482E+02  0.73387104341E+03  0.73482247330E+03  0.00000000000E+00 0. -1.
         22    1    3    3    0    0 -0.57530876995E+01 -0.58432101955E+01 -0.88275431520E+01  0.12048512006E+02  0.00000000000E+00 0. -1.
         22    1    3    3    0    0  0.40949022071E+01 -0.32372153718E+02  0.38133109426E+03  0.38272461119E+03  0.00000000000E+00 0. -1.
</event>
<event>
 7    1  0.6681656E-006  0.1481374E+03  0.7818608E-02  0.1316859E+00
          2   -1    0    0  502    0  0.00000000000E+00  0.00000000000E+00  0.66232336438E+03  0.66232336438E+03  0.00000000000E+00 0. -1.
          1   -1    0    0  501    0 -0.00000000000E+00 -0.00000000000E+00 -0.36670714790E+03  0.36670714790E+03  0.00000000000E+00 0. -1.
         25    2    1    2    0    0 -0.10580746968E+02 -0.16641119779E+03 -0.54761159256E+02  0.21547422503E+03  0.12500287250E+03 0.  0.
          2    1    1    2  501    0 -0.30333152576E+02  0.14102303718E+03 -0.20799063112E+03  0.25311598092E+03  0.00000000000E+00 0. -1.
          1    1    1    2  502    0  0.40913899544E+02  0.25388160606E+02  0.55836800686E+03  0.56044030633E+03  0.00000000000E+00 0. -1.
         22    1    3    3    0    0 -0.42248705194E+02 -0.10556964447E+03 -0.83532771684E+02  0.14109438993E+03  0.00000000000E+00 0.  1.
         22    1    3    3    0    0  0.31667958226E+02 -0.60841553316E+02  0.28771612428E+02  0.74379835102E+02  0.00000000000E+00 0.  1.
</event>
<event>
 7    1  0.6681656E-006  0.5321942E+02  0.7818608E-02  0.1430580E+00
          2   -1    0    0  502    0  0.00000000000E+00  0.00000000000E+00  0.31999001825E+04  0.31999001825E+04  0.00000000000E+00 0. -1.
          1   -1    0    0  501    0 -0.00000000000E+00 -0.00000000000E+00 -0.28518300586E+03  0.28518300586E+03  0.00000000000E+00 0. -1.
         25    2    1    2    0    0 -0.80146175115E+02 -0.56894224768E+02 -0.17514860904E+03  0.23656342975E+03  0.12499943540E+03 0.  0.
          2    1    1    2  501    0  0.28549348811E+02  0.44023977580E+02 -0.70402092198E+02  0.87804501623E+02  0.00000000000E+00 0. -1.
          1    1    1    2  502    0  0.51596826304E+02  0.12870247189E+02  0.31602678779E+04  0.31607152570E+04  0.00000000000E+00 0. -1.
         22    1    3    3    0    0 -0.80564129306E+00  0.33281215022E+02 -0.67540974379E+02  0.75299877499E+02  0.00000000000E+00 0. -1.
         22    1    3    3    0    0 -0.79340533822E+02 -0.90175439791E+02 -0.10760763466E+03  0.16126355226E+03  0.00000000000E+00 0. -1.
</event>
<event>
 7    1  0.6681656E-006  0.7407090E+02  0.7818608E-02  0.1426369E+00
          2   -1    0    0  502    0  0.00000000000E+00  0.00000000000E+00  0.19516219188E+04  0.19516219188E+04  0.00000000000E+00 0. -1.
          1   -1    0    0  501    0 -0.00000000000E+00 -0.00000000000E+00 -0.85986438254E+03  0.85986438254E+03  0.00000000000E+00 0. -1.
         25    2    1    2    0    0  0.93698632392E+02 -0.44911813319E+02  0.27050873823E+02  0.16477850874E+03  0.12499480981E+03 0.  0.
          2    1    1    2  501    0 -0.54982196737E+02  0.48940890075E+02 -0.78908333956E+03  0.79250916049E+03  0.00000000000E+00 0. -1.
          1    1    1    2  502    0 -0.38716435655E+02 -0.40290767555E+01  0.18537900020E+04  0.18541986321E+04  0.00000000000E+00 0. -1.
         22    1    3    3    0    0 -0.26718272615E+02  0.10999137211E+02 -0.16757258796E+01  0.28942273030E+02  0.00000000000E+00 0.  1.
         22    1    3    3    0    0  0.12041690501E+03 -0.55910950530E+02  0.28726599703E+02  0.13583623571E+03  0.00000000000E+00 0.  1.
</event>
<event>
 7    1  0.6681656E-006  0.6813982E+02  0.7818608E-02  0.1431635E+00
          2   -1    0    0  502    0  0.00000000000E+00  0.00000000000E+00  0.30306540950E+03  0.30306540950E+03  0.00000000000E+00 0. -1.
          1   -1    0    0  501    0 -0.00000000000E+00 -0.00000000000E+00 -0.13710059324E+04  0.13710059324E+04  0.00000000000E+00 0. -1.
         25    2    1    2    0    0  0.79448124965E+02 -0.63474253178E+02 -0.95157820269E+02  0.18713051090E+03  0.12498732725E+03 0.  0.
          2    1    1    2  501    0 -0.39553448292E+02  0.94013131469E+01 -0.12251276816E+04  0.12258020624E+04  0.00000000000E+00 0. -1.
          1    1    1    2  502    0 -0.39894676673E+02  0.54072940031E+02  0.25234497895E+03  0.26113876862E+03  0.00000000000E+00 0. -1.
         22    1    3    3    0    0  0.62129777310E+02 -0.60955490377E+02 -0.12512925760E+03  0.15242379127E+03  0.00000000000E+00 0. -1.
         22    1    3    3    0    0  0.17318347655E+02 -0.25187628005E+01  0.29971437336E+02  0.34706719631E+02  0.00000000000E+00 0. -1.
</event>
<event>
 7    1  0.6681656E-006  0.7373865E+02  0.7818608E-02  0.1382157E+00
          2   -1    0    0  502    0  0.00000000000E+00  0.00000000000E+00  0.37772215068E+03  0.37772215068E+03  0.00000000000E+00 0. -1.
          1   -1    0    0  501    0 -0.00000000000E+00 -0.00000000000E+00 -0.47912379113E+03  0.47912379113E+03  0.00000000000E+00 0. -1.
         25    2    1    2    0    0 -0.63854214907E+01  0.10134519361E+03  0.83512779304E+01  0.16127596791E+03  0.12501428761E+03 0.  0.
          2    1    1    2  501    0 -0.34855882043E+02 -0.64392751905E+02 -0.39666329106E+03  0.40336475489E+03  0.00000000000E+00 0. -1.
          1    1    1    2  502    0  0.41241303534E+02 -0.36952441710E+02  0.28691037268E+03  0.29220521901E+03  0.00000000000E+00 0. -1.
         22    1    3    3    0    0  0.16861508580E+02  0.11544898092E+03  0.36391156742E+02  0.12221740447E+03  0.00000000000E+00 0.  1.
         22    1    3    3    0    0 -0.23246930070E+02 -0.14103787306E+02 -0.28039878811E+02  0.39058563438E+02  0.00000000000E+00 0.  1.
</event>
<event>
 7    1  0.6681656E-006  0.1477041E+03  0.7818608E-02  0.1236496E+00
          2   -1    0    0  502    0  0.00000000000E+00  0.00000000000E+00  0.10707765403E+04  0.10707765403E+04  0.00000000000E+00 0. -1.
          1   -1    0    0  501    0 -0.00000000000E+00 -0.00000000000E+00 -0.32226892935E+03  0.32226892935E+03  0.00000000000E+00 0. -1.
         25    2    1    2    0    0  0.56339386539E+02 -0.71667240492E+01  0.28609144410E+02  0.14024507652E+03  0.12499883974E+03 0.  0.
          2    1    1    2  501    0  0.10084241182E+03  0.26452682765E+02 -0.24957678687E+03  0.27047644813E+03  0.00000000000E+00 0. -1.
          1    1    1    2  502    0 -0.15718179836E+03 -0.19285958716E+02  0.96947525345E+03  0.98232394504E+03  0.00000000000E+00 0. -1.
         22    1    3    3    0    0 -0.22034556792E+02 -0.88068962028E+01 -0.32926837711E+02  0.40586447928E+02  0.00000000000E+00 0.  1.
         22    1    3    3    0    0  0.78373943331E+02  0.16401721536E+01  0.61535982121E+02  0.99658628595E+02  0.00000000000E+00 0.  1.
</event>
<event>
 7    1  0.6681656E-006  0.1520846E+03  0.7818608E-02  0.1244449E+00
          2   -1    0    0  502    0  0.00000000000E+00  0.00000000000E+00  0.24015903545E+03  0.24015903545E+03  0.00000000000E+00 0. -1.
          1   -1    0    0  501    0 -0.00000000000E+00 -0.00000000000E+00 -0.35228642110E+03  0.35228642110E+03  0.00000000000E+00 0. -1.
         25    2    1    2    0    0  0.12639982752E+03 -0.12005795877E+02 -0.10179323545E+02  0.17846598090E+03  0.12500172869E+03 0.  0.
          2    1    1    2  501    0 -0.14657367094E+03 -0.79190702307E+02 -0.21200507289E+03  0.26963152500E+03  0.00000000000E+00 0. -1.
          1    1    1    2  502    0  0.20173843413E+02  0.91196498184E+02  0.11005701078E+03  0.14434795066E+03  0.00000000000E+00 0. -1.
         22    1    3    3    0    0  0.22240942044E+01  0.39489683989E+02 -0.18733012004E+02  0.43764225977E+02  0.00000000000E+00 0. -1.
         22    1    3    3    0    0  0.12417573332E+03 -0.51495479867E+02  0.85536884588E+01  0.13470175492E+03  0.00000000000E+00 0. -1.
</event>
<event>
 7    1  0.6681656E-006  0.8563330E+02  0.7818608E-02  0.1411363E+00
          2   -1    0    0  502    0  0.00000000000E+00  0.00000000000E+00  0.26415174119E+04  0.26415174119E+04  0.00000000000E+00 0. -1.
          1   -1    0    0  501    0 -0.00000000000E+00 -0.00000000000E+00 -0.51303732041E+02  0.51303732041E+02  0.00000000000E+00 0. -1.
         25    2    1    2    0    0 -0.60539914059E+02  0.29772362437E+02  0.83681163779E+03  0.84878126775E+03  0.12499779429E+03 0.  0.
          2    1    1    2  501    0  0.86785690478E+02 -0.25754812190E+01 -0.33430678211E+01  0.86888234404E+02  0.00000000000E+00 0. -1.
          1    1    1    2  502    0 -0.26245776419E+02 -0.27196881218E+02  0.17567451099E+04  0.17571516418E+04  0.00000000000E+00 0. -1.
         22    1    3    3    0    0  0.15674403566E+02  0.57147986833E+02  0.28864234991E+03  0.29466249420E+03  0.00000000000E+00 0.  1.
         22    1    3    3    0    0 -0.76214317625E+02 -0.27375624396E+02  0.54816928788E+03  0.55411877355E+03  0.00000000000E+00 0.  1.
</event>
<event>
 7    1  0.6681656E-006  0.7039835E+02  0.7818608E-02  0.1402730E+00
          2   -1    0    0  502    0  0.00000000000E+00  0.00000000000E+00  0.33890360492E+03  0.33890360492E+03  0.00000000000E+00 0. -1.
          1   -1    0    0  501    0 -0.00000000000E+00 -0.00000000000E+00 -0.35683656424E+03  0.35683656424E+03  0.00000000000E+00 0. -1.
         25    2    1    2    0    0 -0.11155185206E+03 -0.34307358232E+02  0.25164097204E+02  0.17285352663E+03  0.12499719738E+03 0.  0.
          2    1    1    2  501    0  0.62895386040E+02  0.27061760568E+02 -0.27624572916E+03  0.28460476340E+03  0.00000000000E+00 0. -1.
          1    1    1    2  502    0  0.48656466018E+02  0.72455976631E+01  0.23314867264E+03  0.23828187913E+03  0.00000000000E+00 0. -1.
         22    1    3    3    0    0 -0.11209785593E+03 -0.54589288731E+02  0.55403244405E+02  0.13643840822E+03  0.00000000000E+00 0. -1.
         22    1    3    3    0    0  0.54600387062E+00  0.20281930500E+02 -0.30239147201E+02  0.36415118405E+02  0.00000000000E+00 0. -1.
</event>
<event>
 7    1  0.6681656E-006  0.1077546E+03  0.7818608E-02  0.1401675E+00
          2   -1    0    0  502    0  0.00000000000E+00  0.00000000000E+00  0.99787415854E+03  0.99787415854E+03  0.00000000000E+00 0. -1.
          1   -1    0    0  501    0 -0.00000000000E+00 -0.00000000000E+00 -0.74592643828E+02  0.74592643828E+02  0.00000000000E+00 0. -1.
         25    2    1    2    0    0  0.78844247117E+02  0.53325989654E+02  0.23132581052E+03  0.27963745528E+03  0.12500159722E+03 0.  0.
          2    1    1    2  501    0 -0.72151291083E+02 -0.85034877856E+02  0.12069658975E+02  0.11217136856E+03  0.00000000000E+00 0. -1.
          1    1    1    2  502    0 -0.66929560334E+01  0.31708888202E+02  0.67988604522E+03  0.68065797853E+03  0.00000000000E+00 0. -1.
         22    1    3    3    0    0  0.39684934025E+02  0.93041074931E+02  0.15562665257E+03  0.18561031922E+03  0.00000000000E+00 0. -1.
         22    1    3    3    0    0  0.39159313092E+02 -0.39715085277E+02  0.75699157958E+02  0.94027136062E+02  0.00000000000E+00 0. -1.
</event>
<event>
 7    1  0.6681656E-006  0.6187344E+02  0.7818608E-02  0.1496910E+00
          2   -1    0    0  502    0  0.00000000000E+00  0.00000000000E+00  0.33460646757E+04  0.33460646757E+04  0.00000000000E+00 0. -1.
          1   -1    0    0  501    0 -0.00000000000E+00 -0.00000000000E+00 -0.47388636154E+03  0.47388636154E+03  0.00000000000E+00 0. -1.
         25    2    1    2    0    0 -0.43010823164E+02  0.60388285067E+02 -0.27528336770E+01  0.14535873664E+03  0.12499963336E+03 0.  0.
          2    1    1    2  501    0  0.27936861659E+02 -0.40840458177E+00 -0.39905008092E+03  0.40002700173E+03  0.00000000000E+00 0. -1.
          1    1    1    2  502    0  0.15073961506E+02 -0.59979880485E+02  0.32739812288E+04  0.32745652989E+04  0.00000000000E+00 0. -1.
         22    1    3    3    0    0 -0.73027868858E+02 -0.12036282348E+01 -0.17873746327E+02  0.75193012698E+02  0.00000000000E+00 0.  1.
         22    1    3    3    0    0  0.30017045694E+02  0.61591913302E+02  0.15120912650E+02  0.70165723938E+02  0.00000000000E+00 0.  1.
</event>
<event>
 7    1  0.6681656E-006  0.1265958E+03  0.7818608E-02  0.1436256E+00
          2   -1    0    0  502    0  0.00000000000E+00  0.00000000000E+00  0.13386333093E+03  0.13386333093E+03  0.00000000000E+00 0. -1.
          1   -1    0    0  501    0 -0.00000000000E+00 -0.00000000000E+00 -0.61590893912E+03  0.61590893912E+03  0.00000000000E+00 0. -1.
         25    2    1    2    0    0 -0.76951141162E+02 -0.11586207752E+03 -0.14101078275E+02  0.18753377016E+03  0.12499830161E+03 0.  0.
          2    1    1    2  501    0  0.56113672147E+02  0.11233710045E+03 -0.50456582539E+03  0.51995676790E+03  0.00000000000E+00 0. -1.
          1    1    1    2  502    0  0.20837469015E+02  0.35249770761E+01  0.36621295476E+02  0.42281731997E+02  0.00000000000E+00 0. -1.
         22    1    3    3    0    0 -0.65916937577E+02 -0.29392787600E+01 -0.30859439565E+02  0.72842206374E+02  0.00000000000E+00 0. -1.
         22    1    3    3    0    0 -0.11034203585E+02 -0.11292279876E+03  0.16758361290E+02  0.11469156378E+03  0.00000000000E+00 0. -1.
</event>
<event>
 7    1  0.6681656E-006  0.8675220E+02  0.7818608E-02  0.1447688E+00
          2   -1    0    0  502    0  0.00000000000E+00  0.00000000000E+00  0.12350025760E+04  0.12350025760E+04  0.00000000000E+00 0. -1.
          1   -1    0    0  501    0 -0.00000000000E+00 -0.00000000000E+00 -0.15940756525E+04  0.15940756525E+04  0.00000000000E+00 0. -1.
         25    2    1    2    0    0 -0.16660653469E+02  0.67314680372E+02  0.17221555744E+03  0.22381389283E+03  0.12500246729E+03 0.  0.
          2    1    1    2  501    0 -0.26683792767E+02  0.94906683891E+01 -0.15662731424E+04  0.15665291743E+04  0.00000000000E+00 0. -1.
          1    1    1    2  502    0  0.43344446236E+02 -0.76805348761E+02  0.10349845084E+04  0.10387351613E+04  0.00000000000E+00 0. -1.
         22    1    3    3    0    0 -0.13701195450E+02 -0.19201590832E+02  0.12090141762E+03  0.12318107253E+03  0.00000000000E+00 0.  1.
         22    1    3    3    0    0 -0.29594580188E+01  0.86516271204E+02  0.51314139819E+02  0.10063282029E+03  0.00000000000E+00 0.  1.
</event>
<event>
 7    1  0.6681656E-006  0.9405017E+02  0.7818608E-02  0.1362431E+00
          2   -1    0    0  502    0  0.00000000000E+00  0.00000000000E+00  0.12301202955E+04  0.12301202955E+04  0.00000000000E+00 0. -1.
          1   -1    0    0  501    0 -0.00000000000E+00 -0.00000000000E+00 -0.98666414952E+03  0.98666414952E+03  0.00000000000E+00 0. -1.
         25    2    1    2    0    0  0.48044340299E+02  0.35458827758E+02  0.45037915968E+03  0.47120099692E+03  0.12499361952E+03 0.  0.
          2    1    1    2  501    0 -0.39110627488E+02 -0.85759663856E+02 -0.97312547641E+03  0.97767967861E+03  0.00000000000E+00 0. -1.
          1    1    1    2  502    0 -0.89337128112E+01  0.50300836098E+02  0.76620246268E+03  0.76790376946E+03  0.00000000000E+00 0. -1.
         22    1    3    3    0    0  0.44820526955E+02 -0.27440705636E+02  0.34066086732E+03  0.34469072875E+03  0.00000000000E+00 0. -1.
         22    1    3    3    0    0  0.32238133445E+01  0.62899533394E+02  0.10971829236E+03  0.12651026816E+03  0.00000000000E+00 0. -1.
</event>
<event>
 7    1  0.6681656E-006  0.1373634E+03  0.7818608E-02  0.1273443E+00
          2   -1    0    0  502    0  0.00000000000E+00  0.00000000000E+00  0.21648277842E+04  0.21648277842E+04  0.00000000000E+00 0. -1.
          1   -1    0    0  501    0 -0.00000000000E+00 -0.00000000000E+00 -0.26744105605E+03  0.26744105605E+03  0.00000000000E+00 0. -1.
         25    2    1    2    0    0 -0.63833846186E+02  0.28085130268E+01  0.32828558165E+03  0.35704261440E+03  0.12500143086E+03 0.  0.
          2    1    1    2  501    0  0.14147019465E+03 -0.66393041508E+01 -0.23234342395E+03  0.27210542623E+03  0.00000000000E+00 0. -1.
          1    1    1    2  502    0 -0.77636348460E+02  0.38307911241E+01  0.18014445705E+04  0.18031207996E+04  0.00000000000E+00 0. -1.
         22    1    3    3    0    0 -0.77126903478E+02  0.14484730519E+02  0.95593946675E+02  0.12367930020E+03  0.00000000000E+00 0.  1.
         22    1    3    3    0    0  0.13293057292E+02 -0.11676217492E+02  0.23269163497E+03  0.23336331420E+03  0.00000000000E+00 0.  1.
</event>
<event>
 7    1  0.6681656E-006  0.9161651E+02  0.7818608E-02  0.1315893E+00
          2   -1    0    0  502    0  0.00000000000E+00  0.00000000000E+00  0.15028063294E+03  0.15028063294E+03  0.00000000000E+00 0. -1.
          1   -1    0    0  501    0 -0.00000000000E+00 -0.00000000000E+00 -0.23091680463E+04  0.23091680463E+04  0.00000000000E+00 0. -1.
         25    2    1    2    0    0  0.51904391593E+02  0.19248373496E+01 -0.49729309956E+03  0.51538714398E+03  0.12500284177E+03 0.  0.
          2    1    1    2  501    0 -0.39918079799E+01  0.78434106572E+02 -0.17863757873E+04  0.17881013107E+04  0.00000000000E+00 0. -1.
          1    1    1    2  502    0 -0.47912583613E+02 -0.80358943922E+02  0.12478147350E+03  0.15596022463E+03  0.00000000000E+00 0. -1.
         22    1    3    3    0    0  0.65377850078E+02 -0.15133341684E+02 -0.48652059700E+03  0.49112683964E+03  0.00000000000E+00 0. -1.
         22    1    3    3    0    0 -0.13473458485E+02  0.17058179033E+02 -0.10772502562E+02  0.24260304345E+02  0.00000000000E+00 0. -1.
</event>
<event>
 7    1  0.6681656E-006  0.1380146E+03  0.7818608E-02  0.1299481E+00
          2   -1    0    0  502    0  0.00000000000E+00  0.00000000000E+00  0.27151400227E+04  0.27151400227E+04  0.00000000000E+00 0. -1.
          1   -1    0    0  501    0 -0.00000000000E+00 -0.00000000000E+00 -0.29010232638E+03  0.29010232638E+03  0.00000000000E+00 0. -1.
         25    2    1    2    0    0 -0.15852376203E+03 -0.87694453236E+02  0.84330153943E+03  0.87155177247E+03  0.12499962172E+03 0.  0.
          2    1    1    2  501    0  0.13333937818E+03  0.32643768218E+02 -0.25837742889E+03  0.29258144359E+03  0.00000000000E+00 0. -1.
          1    1    1    2  502    0  0.25184383856E+02  0.55050685018E+02  0.18401135858E+04  0.18411091330E+04  0.00000000000E+00 0. -1.
         22    1    3    3    0    0 -0.12280851771E+03 -0.11160003272E+03  0.53149980659E+03  0.55680206871E+03  0.00000000000E+00 0.  1.
         22    1    3    3    0    0 -0.35715244329E+02  0.23905579486E+02  0.31180173284E+03  0.31474970375E+03  0.00000000000E+00 0.  1.
</event>
<event>
 7    1  0.6681656E-006  0.7352929E+02  0.7818608E-02  0.1447641E+00
          2   -1    0    0  502    0  0.00000000000E+00  0.00000000000E+00  0.12221437353E+04  0.12221437353E+04  0.00000000000E+00 0. -1.
          1   -1    0    0  501    0 -0.00000000000E+00 -0.00000000000E+00 -0.22560765966E+03  0.22560765966E+03  0.00000000000E+00 0. -1.
         25    2    1    2    0    0  0.34704828743E+02  0.48429186553E+02 -0.75784351883E+02  0.15785571406E+03  0.12500138889E+03 0.  0.
          2    1    1    2  501    0  0.30416802339E+02 -0.13860724628E+02 -0.10503939152E+03  0.11022964811E+03  0.00000000000E+00 0. -1.
          1    1    1    2  502    0 -0.65121631083E+02 -0.34568461925E+02  0.11773598190E+04  0.11796660328E+04  0.00000000000E+00 0. -1.
         22    1    3    3    0    0  0.58367404275E+02  0.54658739523E+01 -0.89441593061E+02  0.10694123727E+03  0.00000000000E+00 0. -1.
         22    1    3    3    0    0 -0.23662575532E+02  0.42963312601E+02  0.13657241178E+02  0.50914476792E+02  0.00000000000E+00 0. -1.
</event>
<event>
 7    1  0.7626476E-006  0.4845463E+02  0.7818608E-02  0.1465593E+00
          2   -1    0    0  502    0  0.00000000000E+00  0.00000000000E+00  0.97889992692E+03  0.97889992692E+03  0.00000000000E+00 0. -1.
          1   -1    0    0  501    0 -0.00000000000E+00 -0.00000000000E+00 -0.14912603849E+04  0.14912603849E+04  0.00000000000E+00 0. -1.
         25    2    1    2    0    0  0.84195356948E+02  0.37689236505E+02 -0.98269401345E+02  0.18382407906E+03  0.12500032049E+03 0.  0.
          2    1    1    2  501    0 -0.38381777731E+02 -0.22507713926E+02 -0.13492245907E+04  0.13499580564E+04  0.00000000000E+00 0. -1.
          1    1    1    2  502    0 -0.45813579217E+02 -0.15181522579E+02  0.93513353402E+03  0.93637817634E+03  0.00000000000E+00 0. -1.
         22    1    3    3    0    0  0.11603423190E+03  0.22856460664E+02 -0.62790024538E+02  0.13389902146E+03  0.00000000000E+00 0. -1.
         22    1    3    3    0    0 -0.31838874957E+02  0.14832775841E+02 -0.35479376807E+02  0.49925057599E+02  0.00000000000E+00 0. -1.
</event>
<event>
 7    1  0.6681656E-006  0.6533683E+02  0.7818608E-02  0.1413301E+00
          2   -1    0    0  502    0  0.00000000000E+00  0.00000000000E+00  0.63152339368E+03  0.63152339368E+03  0.00000000000E+00 0. -1.
          1   -1    0    0  501    0 -0.00000000000E+00 -0.00000000000E+00 -0.11611253007E+04  0.11611253007E+04  0.00000000000E+00 0. -1.
         25    2    1    2    0    0 -0.19622335154E+02 -0.10858043770E+03  0.47752665863E+02  0.17343631749E+03  0.12500036656E+03 0.  0.
          2    1    1    2  501    0 -0.21870743607E+01  0.64929923756E+02 -0.10961769357E+04  0.10981004293E+04  0.00000000000E+00 0. -1.
          1    1    1    2  502    0  0.21809409515E+02  0.43650513947E+02  0.51882236288E+03  0.52111194760E+03  0.00000000000E+00 0. -1.
         22    1    3    3    0    0 -0.24258684333E+02 -0.12015036108E+03  0.74841826112E+02  0.14361717157E+03  0.00000000000E+00 0. -1.
         22    1    3    3    0    0  0.46363491788E+01  0.11569923377E+02 -0.27089160250E+02  0.29819145925E+02  0.00000000000E+00 0. -1.
</event>
<event>
 7    1  0.6681656E-006  0.8149102E+02  0.7818608E-02  0.1417370E+00
          2   -1    0    0  502    0  0.00000000000E+00  0.00000000000E+00  0.14133864042E+04  0.14133864042E+04  0.00000000000E+00 0. -1.
          1   -1    0    0  501    0 -0.00000000000E+00 -0.00000000000E+00 -0.67832244332E+02  0.67832244332E+02  0.00000000000E+00 0. -1.
         25    2    1    2    0    0 -0.64963876187E+02  0.29719108059E+02  0.58644446588E+03  0.60385817969E+03  0.12499623601E+03 0.  0.
          2    1    1    2  501    0  0.10540199906E+02  0.36414600004E+02 -0.50548725403E+02  0.63184591060E+02  0.00000000000E+00 0. -1.
          1    1    1    2  502    0  0.54423676282E+02 -0.66133708064E+02  0.80965841934E+03  0.81417587774E+03  0.00000000000E+00 0. -1.
         22    1    3    3    0    0 -0.81589403037E+02  0.92558788138E+01  0.19574536959E+03  0.21227046826E+03  0.00000000000E+00 0.  1.
         22    1    3    3    0    0  0.16625526849E+02  0.20463229246E+02  0.39069909629E+03  0.39158771142E+03  0.00000000000E+00 0.  1.
</event>
<event>
 7    1  0.6681656E-006  0.8294205E+02  0.7818608E-02  0.1345315E+00
          2   -1    0    0  502    0  0.00000000000E+00  0.00000000000E+00  0.10619707671E+04  0.10619707671E+04  0.00000000000E+00 0. -1.
          1   -1    0    0  501    0 -0.00000000000E+00 -0.00000000000E+00 -0.49666287224E+03  0.49666287224E+03  0.00000000000E+00 0. -1.
         25    2    1    2    0    0 -0.12453390178E+03 -0.38305102718E+02  0.21846046512E+02  0.18187472395E+03  0.12500076751E+03 0.  0.
          2    1    1    2  501    0  0.80631286383E+02 -0.12282323600E+02 -0.41147261052E+03  0.41947821043E+03  0.00000000000E+00 0. -1.
          1    1    1    2  502    0  0.43902615396E+02  0.50587426318E+02  0.95493445886E+03  0.95728070494E+03  0.00000000000E+00 0. -1.
         22    1    3    3    0    0 -0.33116483090E+02 -0.75032460170E+02  0.84794922363E+01  0.82452855136E+02  0.00000000000E+00 0. -1.
         22    1    3    3    0    0 -0.91417418690E+02  0.36727357452E+02  0.13366554275E+02  0.99421868814E+02  0.00000000000E+00 0. -1.
</event>
<event>
 7    1  0.6681656E-006  0.1704755E+03  0.7818608E-02  0.1271143E+00
          2   -1    0    0  502    0  0.00000000000E+00  0.00000000000E+00  0.12936481470E+04  0.12936481470E+04  0.00000000000E+00 0. -1.
          1   -1    0    0  501    0 -0.00000000000E+00 -0.00000000000E+00 -0.73772806536E+03  0.73772806536E+03  0.00000000000E+00 0. -1.
         25    2    1    2    0    0 -0.11173155090E+03 -0.10466951963E+03  0.17648800452E+02  0.19843439897E+03  0.12500033093E+03 0.  0.
          2    1    1    2  501    0  0.38317150960E+02 -0.51307064099E+02 -0.63946115700E+03  0.64265946674E+03  0.00000000000E+00 0. -1.
          1    1    1    2  502    0  0.73414399939E+02  0.15597658372E+03  0.11777324382E+04  0.11902823467E+04  0.00000000000E+00 0. -1.
         22    1    3    3    0    0 -0.30672014960E+02 -0.37873108280E+02  0.66620693329E+02  0.82543695169E+02  0.00000000000E+00 0.  1.
         22    1    3    3    0    0 -0.81059535939E+02 -0.66796411347E+02 -0.48971892877E+02  0.11589070380E+03  0.00000000000E+00 0.  1.
</event>
<event>
 7    1  0.6681656E-006  0.7401751E+02  0.7818608E-02  0.1399759E+00
          2   -1    0    0  502    0  0.00000000000E+00  0.00000000000E+00  0.39301260946E+04  0.39301260946E+04  0.00000000000E+00 0. -1.
          1   -1    0    0  501    0 -0.00000000000E+00 -0.00000000000E+00 -0.30238864066E+03  0.30238864066E+03  0.00000000000E+00 0. -1.
         25    2    1    2    0    0  0.31707139001E+02 -0.62651102855E+02  0.45045273558E+03  0.47271858153E+03  0.12499874793E+03 0.  0.
          2    1    1    2  501    0  0.15136533962E+02  0.72652368812E+02 -0.28636007466E+03  0.29582017124E+03  0.00000000000E+00 0. -1.
          1    1    1    2  502    0 -0.46843672963E+02 -0.10001265957E+02  0.34636447931E+04  0.34639759825E+04  0.00000000000E+00 0. -1.
         22    1    3    3    0    0  0.58344472653E+02 -0.76772427095E+02  0.21871500435E+03  0.23902789833E+03  0.00000000000E+00 0. -1.
         22    1    3    3    0    0 -0.26637333653E+02  0.14121324240E+02  0.23173773123E+03  0.23369068321E+03  0.00000000000E+00 0. -1.
</event>
<event>
 7    1  0.6681656E-006  0.1180723E+03  0.7818608E-02  0.1271955E+00
          2   -1    0    0  502    0  0.00000000000E+00  0.00000000000E+00  0.48935308314E+03  0.48935308314E+03  0.00000000000E+00 0. -1.
          1   -1    0    0  501    0 -0.00000000000E+00 -0.00000000000E+00 -0.23186777087E+03  0.23186777087E+03  0.00000000000E+00 0. -1.
         25    2    1    2    0    0 -0.10601330513E+03 -0.14779725086E+03  0.25556917708E+02  0.22217267835E+03  0.12499877893E+03 0.  0.
          2    1    1    2  501    0  0.84165487613E+02  0.36491013482E+02 -0.10741051932E+03  0.14125311689E+03  0.00000000000E+00 0. -1.
          1    1    1    2  502    0  0.21847817517E+02  0.11130623738E+03  0.33933891389E+03  0.35779505878E+03  0.00000000000E+00 0. -1.
         22    1    3    3    0    0 -0.30672579047E+02 -0.30682264884E+02 -0.47985793380E+02  0.64690376797E+02  0.00000000000E+00 0.  1.
         22    1    3    3    0    0 -0.75340726083E+02 -0.11711498598E+03  0.73542711088E+02  0.15748230155E+03  0.00000000000E+00 0.  1.
</event>
<event>
 7    1  0.6681656E-006  0.4489283E+02  0.7818608E-02  0.1516419E+00
          2   -1    0    0  502    0  0.00000000000E+00  0.00000000000E+00  0.44191700297E+02  0.44191700297E+02  0.00000000000E+00 0. -1.
          1   -1    0    0  501    0 -0.00000000000E+00 -0.00000000000E+00 -0.12676919571E+04  0.12676919571E+04  0.00000000000E+00 0. -1.
         25    2    1    2    0    0 -0.62923157790E+02  0.18942318056E+02 -0.42985855098E+03  0.45246121227E+03  0.12499855824E+03 0.  0.
          2    1    1    2  501    0  0.19348106004E+02 -0.27614246805E+02 -0.81101595026E+03  0.81171655607E+03  0.00000000000E+00 0. -1.
          1    1    1    2  502    0  0.43575051787E+02  0.86719287488E+01  0.17374244386E+02  0.47705889096E+02  0.00000000000E+00 0. -1.
         22    1    3    3    0    0  0.18113718594E+02 -0.30318415038E+02 -0.51831075268E+02  0.62719801140E+02  0.00000000000E+00 0.  1.
         22    1    3    3    0    0 -0.81036876385E+02  0.49260733093E+02 -0.37802747571E+03  0.38974141113E+03  0.00000000000E+00 0.  1.
</event>
<event>
 7    1  0.6681656E-006  0.6638722E+02  0.7818608E-02  0.1384194E+00
          2   -1    0    0  502    0  0.00000000000E+00  0.00000000000E+00  0.15502199854E+04  0.15502199854E+04  0.00000000000E+00 0. -1.
          1   -1    0    0  501    0 -0.00000000000E+00 -0.00000000000E+00 -0.50793002539E+03  0.50793002539E+03  0.00000000000E+00 0. -1.
         25    2    1    2    0    0  0.10350918561E+02  0.12530027816E+03  0.29419314406E+03  0.34348687159E+03  0.12500529476E+03 0.  0.
          2    1    1    2  501    0  0.14109878678E+01 -0.65957189232E+02 -0.48028382264E+03  0.48479365919E+03  0.00000000000E+00 0. -1.
          1    1    1    2  502    0 -0.11761906429E+02 -0.59343088930E+02  0.12283806386E+04  0.12298694800E+04  0.00000000000E+00 0. -1.
         22    1    3    3    0    0  0.31290954180E+00  0.14669937248E+03  0.21089262167E+03  0.25689784288E+03  0.00000000000E+00 0. -1.
         22    1    3    3    0    0  0.10038009019E+02 -0.21399094319E+02  0.83300522389E+02  0.86589028710E+02  0.00000000000E+00 0. -1.
</event>
<event>
 7    1  0.6681656E-006  0.7713929E+02  0.7818608E-02  0.1495185E+00
          2   -1    0    0  502    0  0.00000000000E+00  0.00000000000E+00  0.12438790931E+04  0.12438790931E+04  0.00000000000E+00 0. -1.
          1   -1    0    0  501    0 -0.00000000000E+00 -0.00000000000E+00 -0.32395428926E+02  0.32395428926E+02  0.00000000000E+00 0. -1.
         25    2    1    2    0    0  0.70023634827E+02  0.18121566089E+02  0.33785935327E+03  0.36743106646E+03  0.12499978167E+03 0.  0.
          2    1    1    2  501    0  0.79391017333E+01 -0.21244206154E+02 -0.77919685246E+01  0.23980417113E+02  0.00000000000E+00 0. -1.
          1    1    1    2  502    0 -0.77962736560E+02  0.31226400646E+01  0.88141627942E+03  0.88486303844E+03  0.00000000000E+00 0. -1.
         22    1    3    3    0    0  0.10143878163E+03  0.35444460531E+02  0.23245120189E+03  0.25608533238E+03  0.00000000000E+00 0. -1.
         22    1    3    3    0    0 -0.31415146804E+02 -0.17322894442E+02  0.10540815139E+03  0.11134573409E+03  0.00000000000E+00 0. -1.
</event>
<event>
 7    1  0.6681656E-006  0.3727788E+02  0.7818608E-02  0.1613001E+00
          2   -1    0    0  502    0  0.00000000000E+00  0.00000000000E+00  0.87366989101E+03  0.87366989101E+03  0.00000000000E+00 0. -1.
          1   -1    0    0  501    0 -0.00000000000E+00 -0.00000000000E+00 -0.99311977011E+03  0.99311977011E+03  0.00000000000E+00 0. -1.
         25    2    1    2    0    0  0.11241111409E+02 -0.31723452429E+02 -0.53572550470E+02  0.14009811372E+03  0.12499889314E+03 0.  0.
          2    1    1    2  501    0 -0.30707618891E+02  0.21291968613E+02 -0.89574799078E+03  0.89652705969E+03  0.00000000000E+00 0. -1.
          1    1    1    2  502    0  0.19466507483E+02  0.10431483816E+02  0.82987066214E+03  0.83016448770E+03  0.00000000000E+00 0. -1.
         22    1    3    3    0    0 -0.12025615129E+02  0.46395034507E+02 -0.20783988883E+02  0.52240681848E+02  0.00000000000E+00 0. -1.
         22    1    3    3    0    0  0.23266726537E+02 -0.78118486936E+02 -0.32788561587E+02  0.87857431876E+02  0.00000000000E+00 0. -1.
</event>
<event>
 7    1  0.6681656E-006  0.8233118E+02  0.7818608E-02  0.1450690E+00
          2   -1    0    0  502    0  0.00000000000E+00  0.00000000000E+00  0.10898065481E+04  0.10898065481E+04  0.00000000000E+00 0. -1.
          1   -1    0    0  501    0 -0.00000000000E+00 -0.00000000000E+00 -0.73724446232E+03  0.73724446232E+03  0.00000000000E+00 0. -1.
         25    2    1    2    0    0  0.99960639891E+02 -0.52035332103E+01  0.66897807256E+02  0.17355288003E+03  0.12500431699E+03 0.  0.
          2    1    1    2  501    0 -0.78228149372E+02  0.24688868738E+02 -0.68123610181E+03  0.68615727789E+03  0.00000000000E+00 0. -1.
          1    1    1    2  502    0 -0.21732490519E+02 -0.19485335528E+02  0.96690038033E+03  0.96734085250E+03  0.00000000000E+00 0. -1.
         22    1    3    3    0    0  0.20644740355E+02  0.56129084913E+02  0.22468381783E+02  0.63886678247E+02  0.00000000000E+00 0.  1.
         22    1    3    3    0    0  0.79315899536E+02 -0.61332618123E+02  0.44429425473E+02  0.10966620178E+03  0.00000000000E+00 0.  1.
</event>
<event>
 7    1  0.6681656E-006  0.1329690E+03  0.7818608E-02  0.1333835E+00
          2   -1    0    0  502    0  0.00000000000E+00  0.00000000000E+00  0.59480717992E+03  0.59480717992E+03  0.00000000000E+00 0. -1.
          1   -1    0    0  501    0 -0.00000000000E+00 -0.00000000000E+00 -0.87909839447E+03  0.87909839447E+03  0.00000000000E+00 0. -1.
         25    2    1    2    0    0  0.10188668571E+03  0.12752280465E+03  0.18963803452E+03  0.27969827219E+03  0.12500230756E+03 0.  0.
          2    1    1    2  501    0 -0.58786965850E+01 -0.45776463000E+02 -0.82236397936E+03  0.82365803473E+03  0.00000000000E+00 0. -1.
          1    1    1    2  502    0 -0.96007989125E+02 -0.81746341654E+02  0.34843473028E+03  0.37054926746E+03  0.00000000000E+00 0. -1.
         22    1    3    3    0    0  0.10026159932E+01  0.19735434087E+02 -0.16776213291E+02  0.25921688406E+02  0.00000000000E+00 0.  1.
         22    1    3    3    0    0  0.10088406972E+03  0.10778737057E+03  0.20641424781E+03  0.25377658378E+03  0.00000000000E+00 0.  1.
</event>
<event>
 7    1  0.6681656E-006  0.1636584E+03  0.7818608E-02  0.1221602E+00
          2   -1    0    0  502    0  0.00000000000E+00  0.00000000000E+00  0.33248762505E+04  0.33248762505E+04  0.00000000000E+00 0. -1.
          1   -1    0    0  501    0 -0.00000000000E+00 -0.00000000000E+00 -0.44704065014E+03  0.44704065014E+03  0.00000000000E+00 0. -1.
         25    2    1    2    0    0  0.18017049465E+03  0.19310378173E+03  0.41488466703E+03  0.50744942697E+03  0.12500062533E+03 0.  0.
          2    1    1    2  501    0 -0.55114702551E+02 -0.94917234948E+02 -0.39098874501E+03  0.40610234012E+03  0.00000000000E+00 0. -1.
          1    1    1    2  502    0 -0.12505579210E+03 -0.98186546783E+02  0.28539396783E+04  0.28583651335E+04  0.00000000000E+00 0. -1.
         22    1    3    3    0    0  0.16012671863E+03  0.10852818735E+03  0.34656066685E+03  0.39689196172E+03  0.00000000000E+00 0. -1.
         22    1    3    3    0    0  0.20043776018E+02  0.84575594381E+02  0.68324000181E+02  0.11055746525E+03  0.00000000000E+00 0. -1.
</event>
<event>
 7    1  0.6681656E-006  0.9371902E+02  0.7818608E-02  0.1427465E+00
          2   -1    0    0  502    0  0.00000000000E+00  0.00000000000E+00  0.26394401811E+03  0.26394401811E+03  0.00000000000E+00 0. -1.
          1   -1    0    0  501    0 -0.00000000000E+00 -0.00000000000E+00 -0.24930031772E+03  0.24930031772E+03  0.00000000000E+00 0. -1.
         25    2    1    2    0    0 -0.67291191106E+02  0.92830608615E+02 -0.38570012282E+02  0.17394883828E+03  0.12499970479E+03 0.  0.
          2    1    1    2  501    0  0.29024447750E+02 -0.94014657088E+01 -0.13045177520E+03  0.13397190667E+03  0.00000000000E+00 0. -1.
          1    1    1    2  502    0  0.38266743356E+02 -0.83429142907E+02  0.18366548787E+03  0.20532359087E+03  0.00000000000E+00 0. -1.
         22    1    3    3    0    0 -0.30891908281E+00  0.77227847885E+02 -0.64325724527E+02  0.10050887899E+03  0.00000000000E+00 0.  1.
         22    1    3    3    0    0 -0.66982272023E+02  0.15602760730E+02  0.25755712246E+02  0.73439959294E+02  0.00000000000E+00 0.  1.
</event>
<event>
 7    1  0.6681656E-006  0.4148478E+02  0.7818608E-02  0.1508156E+00
          2   -1    0    0  502    0  0.00000000000E+00  0.00000000000E+00  0.43156303861E+02  0.43156303861E+02  0.00000000000E+00 0. -1.
          1   -1    0    0  501    0 -0.00000000000E+00 -0.00000000000E+00 -0.37992392474E+03  0.37992392474E+03  0.00000000000E+00 0. -1.
         25    2    1    2    0    0  0.11983095372E+02 -0.18399980497E+02 -0.24963254260E+03  0.28004114432E+03  0.12499792930E+03 0.  0.
          2    1    1    2  501    0 -0.32964169481E+02 -0.20050071646E+02 -0.91222932768E+02  0.99046783417E+02  0.00000000000E+00 0. -1.
          1    1    1    2  502    0  0.20981074108E+02  0.38450052143E+02  0.40878544958E+01  0.43992300859E+02  0.00000000000E+00 0. -1.
         22    1    3    3    0    0 -0.43766856311E+02  0.13234797516E+02 -0.39744597175E+02  0.60583253306E+02  0.00000000000E+00 0.  1.
         22    1    3    3    0    0  0.55749951683E+02 -0.31634778012E+02 -0.20988794543E+03  0.21945789101E+03  0.00000000000E+00 0.  1.
</event>
<event>
 7    1  0.6681656E-006  0.1661902E+03  0.7818608E-02  0.1356899E+00
          2   -1    0    0  502    0  0.00000000000E+00  0.00000000000E+00  0.71235520207E+03  0.71235520207E+03  0.00000000000E+00 0. -1.
          1   -1    0    0  501    0 -0.00000000000E+00 -0.00000000000E+00 -0.20126629470E+03  0.20126629470E+03  0.00000000000E+00 0. -1.
         25    2    1    2    0    0  0.10150304568E+03 -0.13679579080E+03  0.37009903185E+03  0.42616201328E+03  0.12499924610E+03 0.  0.
          2    1    1    2  501    0 -0.12102954835E+03  0.11364200858E+03 -0.13242916984E+03  0.21236794182E+03  0.00000000000E+00 0. -1.
          1    1    1    2  502    0  0.19526502671E+02  0.23153782216E+02  0.27341904536E+03  0.27509154168E+03  0.00000000000E+00 0. -1.
         22    1    3    3    0    0  0.51804814667E+02 -0.15090152237E+03  0.27458803470E+03  0.31757455358E+03  0.00000000000E+00 0. -1.
         22    1    3    3    0    0  0.49698231017E+02  0.14105731575E+02  0.95510997143E+02  0.10858745970E+03  0.00000000000E+00 0. -1.
</event>
<event>
 7    1  0.6681656E-006  0.9494688E+02  0.7818608E-02  0.1475931E+00
          2   -1    0    0  502    0  0.00000000000E+00  0.00000000000E+00  0.14433421150E+03  0.14433421150E+03  0.00000000000E+00 0. -1.
          1   -1    0    0  501    0 -0.00000000000E+00 -0.00000000000E+00 -0.15857099836E+04  0.15857099836E+04  0.00000000000E+00 0. -1.
         25    2    1    2    0    0 -0.26999161307E+02 -0.84407950573E+02 -0.17778811349E+03  0.23470682501E+03  0.12500009429E+03 0.  0.
          2    1    1    2  501    0  0.18047658890E+02 -0.10907977474E+02 -0.13595927461E+04  0.13597562786E+04  0.00000000000E+00 0. -1.
          1    1    1    2  502    0  0.89515024169E+01  0.95315928047E+02  0.96005087514E+02  0.13558109147E+03  0.00000000000E+00 0. -1.
         22    1    3    3    0    0 -0.28111012327E+02 -0.77843448857E+02 -0.31949660541E+02  0.88716471710E+02  0.00000000000E+00 0. -1.
         22    1    3    3    0    0  0.11118510208E+01 -0.65645017160E+01 -0.14583845295E+03  0.14599035330E+03  0.00000000000E+00 0. -1.
</event>
<event>
 7    1  0.6681656E-006  0.2281198E+03  0.7818608E-02  0.1180403E+00
          2   -1    0    0  502    0  0.00000000000E+00  0.00000000000E+00  0.11926817679E+04  0.11926817679E+04  0.00000000000E+00 0. -1.
          1   -1    0    0  501    0 -0.00000000000E+00 -0.00000000000E+00 -0.16267802957E+04  0.16267802957E+04  0.00000000000E+00 0. -1.
         25    2    1    2    0    0 -0.26836614428E+03 -0.68038519291E+02  0.20106079199E+02  0.30443091230E+03  0.12499719373E+03 0.  0.
          2    1    1    2  501    0  0.22218998880E+03 -0.46068692631E+02 -0.14722178290E+04  0.14896026489E+04  0.00000000000E+00 0. -1.
          1    1    1    2  502    0  0.46176155477E+02  0.11410721192E+03  0.10180132221E+04  0.10254285024E+04  0.00000000000E+00 0. -1.
         22    1    3    3    0    0 -0.23759472786E+03 -0.41692937816E+02 -0.26504975449E+02  0.24267688290E+03  0.00000000000E+00 0. -1.
         22    1    3    3    0    0 -0.30771416418E+02 -0.26345581475E+02  0.46611054649E+02  0.61754029400E+02  0.00000000000E+00 0. -1.
</event>
<event>
 7    1  0.6681656E-006  0.1236781E+03  0.7818608E-02  0.1377618E+00
          2   -1    0    0  502    0  0.00000000000E+00  0.00000000000E+00  0.15018022340E+03  0.15018022340E+03  0.00000000000E+00 0. -1.
          1   -1    0    0  501    0 -0.00000000000E+00 -0.00000000000E+00 -0.49066664805E+03  0.49066664805E+03  0.00000000000E+00 0. -1.
         25    2    1    2    0    0 -0.50468169118E+02  0.13492341167E+03 -0.18375550026E+03  0.26484403137E+03  0.12499965587E+03 0.  0.
          2    1    1    2  501    0  0.30484614978E+02 -0.15635106531E+02 -0.23135891275E+03  0.23388183943E+03  0.00000000000E+00 0. -1.
          1    1    1    2  502    0  0.19983554140E+02 -0.11928830514E+03  0.74627988359E+02  0.14212100065E+03  0.00000000000E+00 0. -1.
         22    1    3    3    0    0  0.11190941659E+02  0.38499969542E+02 -0.13431208112E+03  0.14016854128E+03  0.00000000000E+00 0. -1.
         22    1    3    3    0    0 -0.61659110777E+02  0.96423442124E+02 -0.49443419141E+02  0.12467549009E+03  0.00000000000E+00 0. -1.
</event>
<event>
 7    1  0.6681656E-006  0.1980426E+03  0.7818608E-02  0.1228691E+00
          2   -1    0    0  502    0  0.00000000000E+00  0.00000000000E+00  0.10020192389E+03  0.10020192389E+03  0.00000000000E+00 0. -1.
          1   -1    0    0  501    0 -0.00000000000E+00 -0.00000000000E+00 -0.42433699653E+04  0.42433699653E+04  0.00000000000E+00 0. -1.
         25    2    1    2    0    0 -0.89104377019E+02 -0.16047650062E+03 -0.23392096636E+04  0.23497278633E+04  0.12500753487E+03 0.  0.
          2    1    1    2  501    0 -0.72277931695E+02  0.43289406436E+02 -0.17920687400E+04  0.17940480598E+04  0.00000000000E+00 0. -1.
          1    1    1    2  502    0  0.16138230871E+03  0.11718709419E+03 -0.11889637870E+02  0.19979596617E+03  0.00000000000E+00 0. -1.
         22    1    3    3    0    0 -0.10474866869E+03 -0.16578077357E+03 -0.18755318760E+04  0.18857559138E+04  0.00000000000E+00 0. -1.
         22    1    3    3    0    0  0.15644291675E+02  0.53042729443E+01 -0.46367778763E+03  0.46397194949E+03  0.00000000000E+00 0. -1.
</event>
<event>
 7    1  0.6935965E-006  0.1063495E+03  0.7818608E-02  0.1364074E+00
          2   -1    0    0  502    0  0.00000000000E+00  0.00000000000E+00  0.68824965133E+03  0.68824965133E+03  0.00000000000E+00 0. -1.
          1   -1    0    0  501    0 -0.00000000000E+00 -0.00000000000E+00 -0.16831715008E+04  0.16831715008E+04  0.00000000000E+00 0. -1.
         25    2    1    2    0    0 -0.12979931233E+03 -0.64605904062E+02 -0.35463461040E+03  0.40300359095E+03  0.12499761241E+03 0.  0.
          2    1    1    2  501    0  0.28230441057E+02  0.34480771407E+02 -0.12997427070E+04  0.13005064343E+04  0.00000000000E+00 0. -1.
          1    1    1    2  502    0  0.10156887127E+03  0.30125132654E+02  0.65945546790E+03  0.66791112686E+03  0.00000000000E+00 0. -1.
         22    1    3    3    0    0 -0.31942533351E+02 -0.34474047550E+02 -0.25788850441E+03  0.26213596873E+03  0.00000000000E+00 0. -1.
         22    1    3    3    0    0 -0.97856778976E+02 -0.30131856512E+02 -0.96746105984E+02  0.14086762223E+03  0.00000000000E+00 0. -1.
</event>
<event>
 7    1  0.6681656E-006  0.6111991E+02  0.7818608E-02  0.1416793E+00
          2   -1    0    0  502    0  0.00000000000E+00  0.00000000000E+00  0.13845082824E+02  0.13845082824E+02  0.00000000000E+00 0. -1.
          1   -1    0    0  501    0 -0.00000000000E+00 -0.00000000000E+00 -0.14019389174E+04  0.14019389174E+04  0.00000000000E+00 0. -1.
         25    2    1    2    0    0  0.55910411420E+01  0.86532439505E+01 -0.60243102426E+03  0.61534937647E+03  0.12500231104E+03 0.  0.
          2    1    1    2  501    0 -0.57883535194E+02  0.22987522082E+02 -0.63201898489E+03  0.63508025247E+03  0.00000000000E+00 0. -1.
          1    1    1    2  502    0  0.52292494052E+02 -0.31640766033E+02 -0.15364382545E+03  0.16535437130E+03  0.00000000000E+00 0. -1.
         22    1    3    3    0    0 -0.56714155606E+02 -0.14081388169E+02 -0.25075953788E+03  0.25747840061E+03  0.00000000000E+00 0. -1.
         22    1    3    3    0    0  0.62305196748E+02  0.22734632120E+02 -0.35167148638E+03  0.35787097587E+03  0.00000000000E+00 0. -1.
</event>
<event>
 7    1  0.6681656E-006  0.6928971E+02  0.7818608E-02  0.1404514E+00
          2   -1    0    0  502    0  0.00000000000E+00  0.00000000000E+00  0.12280955950E+04  0.12280955950E+04  0.00000000000E+00 0. -1.
          1   -1    0    0  501    0 -0.00000000000E+00 -0.00000000000E+00 -0.27371148356E+02  0.27371148356E+02  0.00000000000E+00 0. -1.
         25    2    1    2    0    0 -0.14016989397E+02  0.57584663268E+02  0.50878968284E+03  0.52726149901E+03  0.12500111016E+03 0.  0.
          2    1    1    2  501    0 -0.34848210940E+02 -0.63985319785E+02  0.60092124604E+02  0.94443540769E+02  0.00000000000E+00 0. -1.
          1    1    1    2  502    0  0.48865200337E+02  0.64006565170E+01  0.63184263922E+03  0.63376170359E+03  0.00000000000E+00 0. -1.
         22    1    3    3    0    0  0.36260031193E+02  0.69092263063E+01  0.45905901254E+02  0.58905679185E+02  0.00000000000E+00 0. -1.
         22    1    3    3    0    0 -0.50277020590E+02  0.50675436961E+02  0.46288378159E+03  0.46835581983E+03  0.00000000000E+00 0. -1.
</event>
<event>
 7    1  0.7690085E-006  0.1433799E+03  0.7818608E-02  0.1342508E+00
          2   -1    0    0  502    0  0.00000000000E+00  0.00000000000E+00  0.12256425365E+04  0.12256425365E+04  0.00000000000E+00 0. -1.
          1   -1    0    0  501    0 -0.00000000000E+00 -0.00000000000E+00 -0.11344534029E+04  0.11344534029E+04  0.00000000000E+00 0. -1.
         25    2    1    2    0    0 -0.11097780437E+03 -0.34701200892E+02 -0.18214167441E+03  0.24963283568E+03  0.12498286557E+03 0.  0.
          2    1    1    2  501    0 -0.32509370023E+02  0.22778141790E+02 -0.91378542282E+03  0.91464720075E+03  0.00000000000E+00 0. -1.
          1    1    1    2  502    0  0.14348717439E+03  0.11923059102E+02  0.11871162308E+04  0.11958159030E+04  0.00000000000E+00 0. -1.
         22    1    3    3    0    0 -0.12178028292E+03 -0.54390396609E+02 -0.18382361028E+03  0.22711202576E+03  0.00000000000E+00 0. -1.
         22    1    3    3    0    0  0.10802478553E+02  0.19689195717E+02  0.16819358654E+01  0.22520809913E+02  0.00000000000E+00 0. -1.
</event>
<event>
 7    1  0.6681656E-006  0.4640773E+02  0.7818608E-02  0.1579644E+00
          2   -1    0    0  502    0  0.00000000000E+00  0.00000000000E+00  0.14858197463E+04  0.14858197463E+04  0.00000000000E+00 0. -1.
          1   -1    0    0  501    0 -0.00000000000E+00 -0.00000000000E+00 -0.41000613106E+02  0.41000613106E+02  0.00000000000E+00 0. -1.
         25    2    1    2    0    0  0.42209898999E+02 -0.22507195930E+02  0.13431637425E+04  0.13498156759E+04  0.12500108158E+03 0.  0.
          2    1    1    2  501    0 -0.14618308004E+02 -0.16043202839E+02 -0.30026269001E+02  0.37049374035E+02  0.00000000000E+00 0. -1.
          1    1    1    2  502    0 -0.27591590995E+02  0.38550398770E+02  0.13168165971E+03  0.13995530945E+03  0.00000000000E+00 0. -1.
         22    1    3    3    0    0 -0.26912103935E+02 -0.51620766696E+02  0.65229462936E+03  0.65488720279E+03  0.00000000000E+00 0.  1.
         22    1    3    3    0    0  0.69122002935E+02  0.29113570765E+02  0.69086911314E+03  0.69492847314E+03  0.00000000000E+00 0.  1.
</event>
<event>
 7    1  0.6681656E-006  0.5893786E+02  0.7818608E-02  0.1424355E+00
          2   -1    0    0  502    0  0.00000000000E+00  0.00000000000E+00  0.14152149424E+04  0.14152149424E+04  0.00000000000E+00 0. -1.
          1   -1    0    0  501    0 -0.00000000000E+00 -0.00000000000E+00 -0.43375471658E+03  0.43375471658E+03  0.00000000000E+00 0. -1.
         25    2    1    2    0    0 -0.69520791551E+02  0.37467071681E+02  0.13940410078E+03  0.20321246786E+03  0.12499952745E+03 0.  0.
          2    1    1    2  501    0  0.57898432301E+02  0.10831800130E+02 -0.39919252104E+03  0.40351483890E+03  0.00000000000E+00 0. -1.
          1    1    1    2  502    0  0.11622359250E+02 -0.48298871812E+02  0.12412486461E+04  0.12422423522E+04  0.00000000000E+00 0. -1.
         22    1    3    3    0    0 -0.39213769386E+02  0.54733924797E+02  0.86487416516E+01  0.67884629816E+02  0.00000000000E+00 0.  1.
         22    1    3    3    0    0 -0.30307022165E+02 -0.17266853116E+02  0.13075535913E+03  0.13532783805E+03  0.00000000000E+00 0.  1.
</event>
<event>
 7    1  0.6681656E-006  0.5783659E+02  0.7818608E-02  0.1553790E+00
          2   -1    0    0  502    0  0.00000000000E+00  0.00000000000E+00  0.29327031374E+03  0.29327031374E+03  0.00000000000E+00 0. -1.
          1   -1    0    0  501    0 -0.00000000000E+00 -0.00000000000E+00 -0.36160019569E+03  0.36160019569E+03  0.00000000000E+00 0. -1.
         25    2    1    2    0    0  0.16767253269E+02  0.53658655649E+02  0.87922566934E+02  0.16283521623E+03  0.12499815103E+03 0.  0.
          2    1    1    2  501    0 -0.35639475360E+02 -0.45686210417E+02 -0.32091455371E+03  0.32610359214E+03  0.00000000000E+00 0. -1.
          1    1    1    2  502    0  0.18872222091E+02 -0.79724452327E+01  0.16466210483E+03  0.16593170106E+03  0.00000000000E+00 0. -1.
         22    1    3    3    0    0  0.23704089142E+02 -0.24289977193E+02 -0.11925881680E+02  0.35973788901E+02  0.00000000000E+00 0.  1.
         22    1    3    3    0    0 -0.69368358733E+01  0.77948632842E+02  0.99848448613E+02  0.12686142733E+03  0.00000000000E+00 0.  1.
</event>
<event>
 7    1  0.6681656E-006  0.5907541E+02  0.7818608E-02  0.1406941E+00
          2   -1    0    0  502    0  0.00000000000E+00  0.00000000000E+00  0.19883389549E+04  0.19883389549E+04  0.00000000000E+00 0. -1.
          1   -1    0    0  501    0 -0.00000000000E+00 -0.00000000000E+00 -0.75009884491E+02  0.75009884491E+02  0.00000000000E+00 0. -1.
         25    2    1    2    0    0  0.67897239199E+02 -0.25475984255E+02  0.91054304920E+02  0.17080553353E+03  0.12499833188E+03 0.  0.
          2    1    1    2  501    0 -0.53072434365E+02 -0.29264920203E+02 -0.82279796964E+01  0.61162230942E+02  0.00000000000E+00 0. -1.
          1    1    1    2  502    0 -0.14824804834E+02  0.54740904458E+02  0.18305027452E+04  0.18313810750E+04  0.00000000000E+00 0. -1.
         22    1    3    3    0    0  0.85306466706E+02  0.87658177736E+01  0.17062438590E+02  0.87436603513E+02  0.00000000000E+00 0.  1.
         22    1    3    3    0    0 -0.17409227508E+02 -0.34241802029E+02  0.73991866330E+02  0.83368930013E+02  0.00000000000E+00 0.  1.
</event>
<event>
 7    1  0.6681656E-006  0.1235776E+03  0.7818608E-02  0.1340917E+00
          2   -1    0    0  502    0  0.00000000000E+00  0.00000000000E+00  0.96683816598E+02  0.96683816598E+02  0.00000000000E+00 0. -1.
          1   -1    0    0  501    0 -0.00000000000E+00 -0.00000000000E+00 -0.18938537942E+04  0.18938537942E+04  0.00000000000E+00 0. -1.
         25    2    1    2    0    0  0.98550388358E+02 -0.29768415255E+02 -0.93278334619E+03  0.94673483498E+03  0.12499495684E+03 0.  0.
          2    1    1    2  501    0 -0.12123529175E+03  0.70581094292E+02 -0.94245368662E+03  0.95283715201E+03  0.00000000000E+00 0. -1.
          1    1    1    2  502    0  0.22684903392E+02 -0.40812679037E+02  0.78067055189E+02  0.90965623826E+02  0.00000000000E+00 0. -1.
         22    1    3    3    0    0  0.91257015508E+02  0.22869359971E+02 -0.38284196009E+03  0.39423193289E+03  0.00000000000E+00 0. -1.
         22    1    3    3    0    0  0.72933728504E+01 -0.52637775226E+02 -0.54994138610E+03  0.55250290209E+03  0.00000000000E+00 0. -1.
</event>
<event>
 7    1  0.6681656E-006  0.8709230E+02  0.7818608E-02  0.1327445E+00
          2   -1    0    0  502    0  0.00000000000E+00  0.00000000000E+00  0.33775601885E+03  0.33775601885E+03  0.00000000000E+00 0. -1.
          1   -1    0    0  501    0 -0.00000000000E+00 -0.00000000000E+00 -0.59344767568E+03  0.59344767568E+03  0.00000000000E+00 0. -1.
         25    2    1    2    0    0 -0.52107702100E+02  0.78608727280E+00 -0.27523746882E+03  0.30675297029E+03  0.12500355989E+03 0.  0.
          2    1    1    2  501    0  0.33703452102E+01 -0.74457948796E+02 -0.29161761546E+03  0.30099199161E+03  0.00000000000E+00 0. -1.
          1    1    1    2  502    0  0.48737356890E+02  0.73671861523E+02  0.31116342745E+03  0.32345873263E+03  0.00000000000E+00 0. -1.
         22    1    3    3    0    0 -0.95170806000E+01 -0.55948926204E+02 -0.73207552157E+02  0.92629384427E+02  0.00000000000E+00 0. -1.
         22    1    3    3    0    0 -0.42590621500E+02  0.56735013477E+02 -0.20202991666E+03  0.21412358586E+03  0.00000000000E+00 0. -1.
</event>
<event>
 7    1  0.6681656E-006  0.8834216E+02  0.7818608E-02  0.1464585E+00
          2   -1    0    0  502    0  0.00000000000E+00  0.00000000000E+00  0.21909798956E+03  0.21909798956E+03  0.00000000000E+00 0. -1.
          1   -1    0    0  501    0 -0.00000000000E+00 -0.00000000000E+00 -0.12214942779E+04  0.12214942779E+04  0.00000000000E+00 0. -1.
         25    2    1    2    0    0 -0.69346649082E+02  0.72172287101E+01 -0.29100514778E+03  0.32429609564E+03  0.12499166165E+03 0.  0.
          2    1    1    2  501    0  0.90860471596E+02  0.46765682922E+01 -0.91082263077E+03  0.91535531916E+03  0.00000000000E+00 0. -1.
          1    1    1    2  502    0 -0.21513822514E+02 -0.11893797002E+02  0.19943149023E+03  0.20094085265E+03  0.00000000000E+00 0. -1.
         22    1    3    3    0    0 -0.52859520385E+02  0.61868385799E+02 -0.20985231004E+03  0.22507736023E+03  0.00000000000E+00 0. -1.
         22    1    3    3    0    0 -0.16487128697E+02 -0.54651157089E+02 -0.81152837734E+02  0.99218735409E+02  0.00000000000E+00 0. -1.
</event>
<event>
 7    1  0.6681656E-006  0.6547732E+02  0.7818608E-02  0.1414128E+00
          2   -1    0    0  502    0  0.00000000000E+00  0.00000000000E+00  0.20192656350E+03  0.20192656350E+03  0.00000000000E+00 0. -1.
          1   -1    0    0  501    0 -0.00000000000E+00 -0.00000000000E+00 -0.12631296103E+04  0.12631296103E+04  0.00000000000E+00 0. -1.
         25    2    1    2    0    0  0.21818169749E+02  0.67266712466E+01 -0.56882160466E+03  0.58284120659E+03  0.12499829413E+03 0.  0.
          2    1    1    2  501    0  0.41624219510E+02 -0.24657189799E+02 -0.68084045483E+03  0.68255716068E+03  0.00000000000E+00 0. -1.
          1    1    1    2  502    0 -0.63442389259E+02  0.17930518552E+02  0.18845901268E+03  0.19965780653E+03  0.00000000000E+00 0. -1.
         22    1    3    3    0    0  0.27250212759E+02 -0.39637359711E+01 -0.57011562201E+03  0.57078026223E+03  0.00000000000E+00 0. -1.
         22    1    3    3    0    0 -0.54320430101E+01  0.10690407218E+02  0.12940173535E+01  0.12060944352E+02  0.00000000000E+00 0. -1.
</event>
<event>
 7    1  0.6681656E-006  0.5751516E+02  0.7818608E-02  0.1482365E+00
          2   -1    0    0  502    0  0.00000000000E+00  0.00000000000E+00  0.98315734380E+03  0.98315734380E+03  0.00000000000E+00 0. -1.
          1   -1    0    0  501    0 -0.00000000000E+00 -0.00000000000E+00 -0.26862934975E+03  0.26862934975E+03  0.00000000000E+00 0. -1.
         25    2    1    2    0    0 -0.42707614881E+02 -0.42193396787E+02 -0.73639770147E+02  0.15702320000E+03  0.12501698480E+03 0.  0.
          2    1    1    2  501    0  0.30176816379E+02 -0.13994712668E+02 -0.15060120099E+03  0.15423104087E+03  0.00000000000E+00 0. -1.
          1    1    1    2  502    0  0.12530798502E+02  0.56188109455E+02  0.93876896518E+03  0.94053245268E+03  0.00000000000E+00 0. -1.
         22    1    3    3    0    0 -0.58743734436E+02 -0.76698055939E+02 -0.68939916614E+02  0.11868500420E+03  0.00000000000E+00 0.  1.
         22    1    3    3    0    0  0.16036119554E+02  0.34504659152E+02 -0.46998535334E+01  0.38338195795E+02  0.00000000000E+00 0.  1.
</event>
<event>
 7    1  0.6681656E-006  0.2043347E+03  0.7818608E-02  0.1250878E+00
          2   -1    0    0  502    0  0.00000000000E+00  0.00000000000E+00  0.20973746009E+04  0.20973746009E+04  0.00000000000E+00 0. -1.
          1   -1    0    0  501    0 -0.00000000000E+00 -0.00000000000E+00 -0.61439876286E+03  0.61439876286E+03  0.00000000000E+00 0. -1.
         25    2    1    2    0    0 -0.17542240496E+02 -0.18254458205E+03  0.47161455929E+03  0.52122752517E+03  0.12501034285E+03 0.  0.
          2    1    1    2  501    0  0.60081800123E+02 -0.25264795534E+02 -0.58073503881E+03  0.58438114095E+03  0.00000000000E+00 0. -1.
          1    1    1    2  502    0 -0.42539559627E+02  0.20780937759E+03  0.15920963176E+04  0.16061646977E+04  0.00000000000E+00 0. -1.
         22    1    3    3    0    0 -0.43283284360E+02 -0.11003643056E+03  0.15251358717E+03  0.19298148364E+03  0.00000000000E+00 0. -1.
         22    1    3    3    0    0  0.25741043864E+02 -0.72508151494E+02  0.31910097212E+03  0.32824604153E+03  0.00000000000E+00 0. -1.
</event>
<event>
 7    1  0.6681656E-006  0.7059154E+02  0.7818608E-02  0.1414678E+00
          2   -1    0    0  502    0  0.00000000000E+00  0.00000000000E+00  0.27270975683E+03  0.27270975683E+03  0.00000000000E+00 0. -1.
          1   -1    0    0  501    0 -0.00000000000E+00 -0.00000000000E+00 -0.43838144192E+03  0.43838144192E+03  0.00000000000E+00 0. -1.
         25    2    1    2    0    0  0.77545187943E+02 -0.44502529558E+01 -0.45415687030E-01  0.14716892612E+03  0.12500251929E+03 0.  0.
          2    1    1    2  501    0 -0.55918112782E+02  0.43551299630E+02 -0.35875624175E+03  0.36569056869E+03  0.00000000000E+00 0. -1.
          1    1    1    2  502    0 -0.21627075161E+02 -0.39101046674E+02  0.19312997234E+03  0.19823170394E+03  0.00000000000E+00 0. -1.
         22    1    3    3    0    0  0.73063442161E+02 -0.36175522210E+02  0.44045562174E+02  0.92665778660E+02  0.00000000000E+00 0. -1.
         22    1    3    3    0    0  0.44817457820E+01  0.31725269254E+02 -0.44090977861E+02  0.54503147462E+02  0.00000000000E+00 0. -1.
</event>
<event>
 7    1  0.6681656E-006  0.1501345E+03  0.7818608E-02  0.1314468E+00
          2   -1    0    0  502    0  0.00000000000E+00  0.00000000000E+00  0.15265332177E+04  0.15265332177E+04  0.00000000000E+00 0. -1.
          1   -1    0    0  501    0 -0.00000000000E+00 -0.00000000000E+00 -0.39520932389E+03  0.39520932389E+03  0.00000000000E+00 0. -1.
         25    2    1    2    0    0  0.82835905900E+02  0.14366011631E+03  0.41832495538E+03  0.46703431681E+03  0.12500107386E+03 0.  0.
          2    1    1    2  501    0 -0.48542174108E+02  0.35000967880E+00 -0.36418172454E+03  0.36740276763E+03  0.00000000000E+00 0. -1.
          1    1    1    2  502    0 -0.34293731792E+02 -0.14401012599E+03  0.10771806630E+04  0.10873054571E+04  0.00000000000E+00 0. -1.
         22    1    3    3    0    0  0.82614077559E+02  0.10242645365E+03  0.16832977338E+03  0.21366136016E+03  0.00000000000E+00 0.  1.
         22    1    3    3    0    0  0.22182834130E+00  0.41233662667E+02  0.24999518200E+03  0.25337295666E+03  0.00000000000E+00 0.  1.
</event>
<event>
 7    1  0.6681656E-006  0.6098175E+02  0.7818608E-02  0.1524689E+00
          2   -1    0    0  502    0  0.00000000000E+00  0.00000000000E+00  0.45668005028E+03  0.45668005028E+03  0.00000000000E+00 0. -1.
          1   -1    0    0  501    0 -0.00000000000E+00 -0.00000000000E+00 -0.14622881079E+04  0.14622881079E+04  0.00000000000E+00 0. -1.
         25    2    1    2    0    0 -0.96991385762E+01 -0.48426750967E+02  0.16840073334E+02  0.13545101960E+03  0.12499666853E+03 0.  0.
          2    1    1    2  501    0  0.32992356464E+02  0.51441667957E+02 -0.14019539004E+04  0.14032852453E+04  0.00000000000E+00 0. -1.
          1    1    1    2  502    0 -0.23293217887E+02 -0.30149169903E+01  0.37950576939E+03  0.38023189335E+03  0.00000000000E+00 0. -1.
         22    1    3    3    0    0  0.29822590434E+02 -0.33767429447E+02 -0.42984156646E+02  0.62267679532E+02  0.00000000000E+00 0. -1.
         22    1    3    3    0    0 -0.39521729010E+02 -0.14659321519E+02  0.59824229981E+02  0.73183340072E+02  0.00000000000E+00 0. -1.
</event>
<event>
 7    1  0.6681656E-006  0.5665027E+02  0.7818608E-02  0.1451368E+00
          2   -1    0    0  502    0  0.00000000000E+00  0.00000000000E+00  0.41691121480E+03  0.41691121480E+03  0.00000000000E+00 0. -1.
          1   -1    0    0  501    0 -0.00000000000E+00 -0.00000000000E+00 -0.10219282632E+04  0.10219282632E+04  0.00000000000E+00 0. -1.
         25    2    1    2    0    0 -0.23933709977E+02 -0.89576545405E+02 -0.58347298081E+03  0.60387424649E+03  0.12500642496E+03 0.  0.
          2    1    1    2  501    0  0.26219517276E+02  0.33078391949E+02 -0.42523939923E+03  0.42732913516E+03  0.00000000000E+00 0. -1.
          1    1    1    2  502    0 -0.22858072989E+01  0.56498153456E+02  0.40369533164E+03  0.40763609635E+03  0.00000000000E+00 0. -1.
         22    1    3    3    0    0  0.10964500214E+02 -0.10952042669E+03 -0.34788983537E+03  0.36488666964E+03  0.00000000000E+00 0. -1.
         22    1    3    3    0    0 -0.34898210190E+02  0.19943881282E+02 -0.23558314544E+03  0.23898757685E+03  0.00000000000E+00 0. -1.
</event>
<event>
 7    1  0.6681656E-006  0.7795541E+02  0.7818608E-02  0.1461213E+00
          2   -1    0    0  502    0  0.00000000000E+00  0.00000000000E+00  0.65363741367E+03  0.65363741367E+03  0.00000000000E+00 0. -1.
          1   -1    0    0  501    0 -0.00000000000E+00 -0.00000000000E+00 -0.20562517433E+04  0.20562517433E+04  0.00000000000E+00 0. -1.
         25    2    1    2    0    0  0.45981854954E+02  0.54936153897E+02 -0.79000560312E+02  0.16430882953E+03  0.12499596370E+03 0.  0.
          2    1    1    2  501    0 -0.24835359992E+02 -0.74111751673E+02 -0.19334735661E+04  0.19350528100E+04  0.00000000000E+00 0. -1.
          1    1    1    2  502    0 -0.21146494962E+02  0.19175597776E+02  0.60985979677E+03  0.61052751741E+03  0.00000000000E+00 0. -1.
         22    1    3    3    0    0 -0.22938233984E+02 -0.27244447103E+02 -0.10839495450E+02  0.37227908051E+02  0.00000000000E+00 0.  1.
         22    1    3    3    0    0  0.68920088938E+02  0.82180601000E+02 -0.68161064861E+02  0.12708092147E+03  0.00000000000E+00 0.  1.
</event>
<event>
 7    1  0.6681656E-006  0.1189717E+03  0.7818608E-02  0.1269929E+00
          2   -1    0    0  502    0  0.00000000000E+00  0.00000000000E+00  0.14353518458E+04  0.14353518458E+04  0.00000000000E+00 0. -1.
          1   -1    0    0  501    0 -0.00000000000E+00 -0.00000000000E+00 -0.28197728987E+04  0.28197728987E+04  0.00000000000E+00 0. -1.
         25    2    1    2    0    0  0.19684656988E+03 -0.55353515008E+02  0.48360822073E+03  0.53973450548E+03  0.12499536610E+03 0.  0.
          2    1    1    2  501    0 -0.10402745547E+03  0.57318981709E+02 -0.27881093357E+04  0.27906380713E+04  0.00000000000E+00 0. -1.
          1    1    1    2  502    0 -0.92819114405E+02 -0.19654667009E+01  0.92008006210E+03  0.92475216774E+03  0.00000000000E+00 0. -1.
         22    1    3    3    0    0  0.19956102252E+03 -0.67108603526E+02  0.48384410070E+03  0.52766777442E+03  0.00000000000E+00 0.  1.
         22    1    3    3    0    0 -0.27144526401E+01  0.11755088518E+02 -0.23587996454E+00  0.12066731063E+02  0.00000000000E+00 0.  1.
</event>
<event>
 7    1  0.6681656E-006  0.1686917E+03  0.7818608E-02  0.1284480E+00
          2   -1    0    0  502    0  0.00000000000E+00  0.00000000000E+00  0.96212370328E+02  0.96212370328E+02  0.00000000000E+00 0. -1.
          1   -1    0    0  501    0 -0.00000000000E+00 -0.00000000000E+00 -0.13403219227E+04  0.13403219227E+04  0.00000000000E+00 0. -1.
         25    2    1    2    0    0 -0.13046760906E+03  0.13869653814E+02 -0.24994213745E+03  0.30871781031E+03  0.12498579926E+03 0.  0.
          2    1    1    2  501    0 -0.52684701529E+02  0.21689805682E+02 -0.92816730993E+03  0.92991434050E+03  0.00000000000E+00 0. -1.
          1    1    1    2  502    0  0.18315231059E+03 -0.35559459496E+02 -0.66000104980E+02  0.19790214221E+03  0.00000000000E+00 0. -1.
         22    1    3    3    0    0 -0.72877001282E+02  0.50499678325E+02 -0.60454460568E+02  0.10731270488E+03  0.00000000000E+00 0. -1.
         22    1    3    3    0    0 -0.57590607778E+02 -0.36630024512E+02 -0.18948767689E+03  0.20140510543E+03  0.00000000000E+00 0. -1.
</event>
<event>
 7    1  0.6681656E-006  0.1485727E+03  0.7818608E-02  0.1312908E+00
          2   -1    0    0  502    0  0.00000000000E+00  0.00000000000E+00  0.19793002254E+04  0.19793002254E+04  0.00000000000E+00 0. -1.
          1   -1    0    0  501    0 -0.00000000000E+00 -0.00000000000E+00 -0.52340131747E+03  0.52340131747E+03  0.00000000000E+00 0. -1.
         25    2    1    2    0    0 -0.14583649557E+03 -0.11438879003E+03  0.45267113161E+02  0.22809245720E+03  0.12499591502E+03 0.  0.
          2    1    1    2  501    0  0.49683944288E+02  0.25442086983E+01 -0.42759258757E+03  0.43047693116E+03  0.00000000000E+00 0. -1.
          1    1    1    2  502    0  0.96152551280E+02  0.11184458133E+03  0.18382243824E+04  0.18441321545E+04  0.00000000000E+00 0. -1.
         22    1    3    3    0    0 -0.12809297518E+03 -0.26078948096E+02  0.91303734594E+01  0.13103925192E+03  0.00000000000E+00 0.  1.
         22    1    3    3    0    0 -0.17743520392E+02 -0.88309841936E+02  0.36136739702E+02  0.97053205279E+02  0.00000000000E+00 0.  1.
</event>
<event>
 7    1  0.6681656E-006  0.5507417E+02  0.7818608E-02  0.1482686E+00
          2   -1    0    0  502    0  0.00000000000E+00  0.00000000000E+00  0.55188442770E+03  0.55188442770E+03  0.00000000000E+00 0. -1.
          1   -1    0    0  501    0 -0.00000000000E+00 -0.00000000000E+00 -0.45453598742E+03  0.45453598742E+03  0.00000000000E+00 0. -1.
         25    2    1    2    0    0  0.13399114971E+02  0.15813449232E+02 -0.14742723792E+03  0.19439384942E+03  0.12499830700E+03 0.  0.
          2    1    1    2  501    0  0.23853635816E+02  0.25145843249E+02 -0.28110784243E+03  0.28323652386E+03  0.00000000000E+00 0. -1.
          1    1    1    2  502    0 -0.37252750788E+02 -0.40959292481E+02  0.52588352063E+03  0.52879004184E+03  0.00000000000E+00 0. -1.
         22    1    3    3    0    0  0.31319622266E+02  0.60112098753E+02 -0.44976339321E+02  0.81346507326E+02  0.00000000000E+00 0.  1.
         22    1    3    3    0    0 -0.17920507295E+02 -0.44298649521E+02 -0.10245089860E+03  0.11304734210E+03  0.00000000000E+00 0.  1.
</event>
<event>
 7    1  0.6681656E-006  0.7306825E+02  0.7818608E-02  0.1361216E+00
          2   -1    0    0  502    0  0.00000000000E+00  0.00000000000E+00  0.46542872932E+03  0.46542872932E+03  0.00000000000E+00 0. -1.
          1   -1    0    0  501    0 -0.00000000000E+00 -0.00000000000E+00 -0.12815309969E+04  0.12815309969E+04  0.00000000000E+00 0. -1.
         25    2    1    2    0    0  0.79732190026E+01 -0.22478719768E+01 -0.11876930478E+03  0.17262681023E+03  0.12500097081E+03 0.  0.
          2    1    1    2  501    0  0.66414316548E+02 -0.15068294148E+01 -0.11316890071E+04  0.11336371292E+04  0.00000000000E+00 0. -1.
          1    1    1    2  502    0 -0.74387535550E+02  0.37547013916E+01  0.43435604431E+03  0.44069578675E+03  0.00000000000E+00 0. -1.
         22    1    3    3    0    0  0.16348872722E+02  0.52259495233E+02 -0.10064731958E+03  0.11457845967E+03  0.00000000000E+00 0. -1.
         22    1    3    3    0    0 -0.83756537195E+01 -0.54507367210E+02 -0.18121985196E+02  0.58048350561E+02  0.00000000000E+00 0. -1.
</event>
<event>
 7    1  0.6681656E-006  0.1048699E+03  0.7818608E-02  0.1308683E+00
          2   -1    0    0  502    0  0.00000000000E+00  0.00000000000E+00  0.25082051656E+04  0.25082051656E+04  0.00000000000E+00 0. -1.
          1   -1    0    0  501    0 -0.00000000000E+00 -0.00000000000E+00 -0.49523916572E+03  0.49523916572E+03  0.00000000000E+00 0. -1.
         25    2    1    2    0    0 -0.16120605915E+03 -0.61670961659E+02  0.13344955245E+04  0.13514040892E+04  0.12499602532E+03 0.  0.
          2    1    1    2  501    0  0.10321890575E+03  0.16944934724E+02 -0.47999617395E+03  0.49126123429E+03  0.00000000000E+00 0. -1.
          1    1    1    2  502    0  0.57987153399E+02  0.44726026934E+02  0.11584666494E+04  0.11607790079E+04  0.00000000000E+00 0. -1.
         22    1    3    3    0    0 -0.27936926071E+02  0.32400236345E+02  0.15944624005E+03  0.16508588861E+03  0.00000000000E+00 0. -1.
         22    1    3    3    0    0 -0.13326913308E+03 -0.94071198004E+02  0.11750492844E+04  0.11863182005E+04  0.00000000000E+00 0. -1.
</event>
<event>
 7    1  0.6681656E-006  0.7896441E+02  0.7818608E-02  0.1375122E+00
          2   -1    0    0  502    0  0.00000000000E+00  0.00000000000E+00  0.14822121953E+04  0.14822121953E+04  0.00000000000E+00 0. -1.
          1   -1    0    0  501    0 -0.00000000000E+00 -0.00000000000E+00 -0.68099335067E+02  0.68099335067E+02  0.00000000000E+00 0. -1.
         25    2    1    2    0    0  0.35821194583E+01  0.40753177178E+02  0.12903740910E+03  0.18425279702E+03  0.12499914894E+03 0.  0.
          2    1    1    2  501    0  0.19349632077E+02 -0.90491052698E+02  0.13748355472E+02  0.93552424651E+02  0.00000000000E+00 0. -1.
          1    1    1    2  502    0 -0.22931751535E+02  0.49737875521E+02  0.12713270957E+04  0.12725063087E+04  0.00000000000E+00 0. -1.
         22    1    3    3    0    0  0.43393476864E+02 -0.27665919812E+02  0.40495237628E+02  0.65484816743E+02  0.00000000000E+00 0.  1.
         22    1    3    3    0    0 -0.39811357406E+02  0.68419096989E+02  0.88542171468E+02  0.11876798028E+03  0.00000000000E+00 0.  1.
</event>
<event>
 7    1  0.6681656E-006  0.9476768E+02  0.7818608E-02  0.1330419E+00
          2   -1    0    0  502    0  0.00000000000E+00  0.00000000000E+00  0.21276988269E+03  0.21276988269E+03  0.00000000000E+00 0. -1.
          1   -1    0    0  501    0 -0.00000000000E+00 -0.00000000000E+00 -0.76986681877E+03  0.76986681877E+03  0.00000000000E+00 0. -1.
         25    2    1    2    0    0 -0.10882614860E+03 -0.91139912280E+02 -0.14603510340E+03  0.23895696763E+03  0.12499826688E+03 0.  0.
          2    1    1    2  501    0  0.42853023753E+02  0.81148338017E+02 -0.56683591058E+03  0.57421632155E+03  0.00000000000E+00 0. -1.
          1    1    1    2  502    0  0.65973124850E+02  0.99915742628E+01  0.15577407790E+03  0.16946341229E+03  0.00000000000E+00 0. -1.
         22    1    3    3    0    0 -0.62134904608E+02 -0.34670483509E+02 -0.14953544831E+03  0.16560084269E+03  0.00000000000E+00 0.  1.
         22    1    3    3    0    0 -0.46691243996E+02 -0.56469428771E+02  0.35003449165E+01  0.73356124939E+02  0.00000000000E+00 0.  1.
</event>
<event>
 7    1  0.6681656E-006  0.7924168E+02  0.7818608E-02  0.1481441E+00
          2   -1    0    0  502    0  0.00000000000E+00  0.00000000000E+00  0.39238813882E+02  0.39238813882E+02  0.00000000000E+00 0. -1.
          1   -1    0    0  501    0 -0.00000000000E+00 -0.00000000000E+00 -0.21082125897E+04  0.21082125897E+04  0.00000000000E+00 0. -1.
         25    2    1    2    0    0 -0.75907494212E+02  0.60987827752E+02 -0.39834890441E+03  0.42870568461E+03  0.12500100625E+03 0.  0.
          2    1    1    2  501    0  0.23845608710E+02 -0.46838404338E+01 -0.16332622974E+04  0.16334430763E+04  0.00000000000E+00 0. -1.
          1    1    1    2  502    0  0.52061885502E+02 -0.56303987318E+02 -0.37362574017E+02  0.85302642673E+02  0.00000000000E+00 0. -1.
         22    1    3    3    0    0 -0.96644330465E+02  0.35851807363E+02 -0.17586345585E+03  0.20384659381E+03  0.00000000000E+00 0. -1.
         22    1    3    3    0    0  0.20736836254E+02  0.25136020389E+02 -0.22248544856E+03  0.22485909081E+03  0.00000000000E+00 0. -1.
</event>
<event>
 7    1  0.6681656E-006  0.3738150E+02  0.7818608E-02  0.1611070E+00
          2   -1    0    0  502    0  0.00000000000E+00  0.00000000000E+00  0.71325178492E+01  0.71325178492E+01  0.00000000000E+00 0. -1.
          1   -1    0    0  501    0 -0.00000000000E+00 -0.00000000000E+00 -0.16540412318E+04  0.16540412318E+04  0.00000000000E+00 0. -1.
         25    2    1    2    0    0  0.31348082294E+02 -0.15082783063E+02 -0.88102859498E+03  0.89053152207E+03  0.12499925608E+03 0.  0.
          2    1    1    2  501    0 -0.37791620127E+02 -0.62425229598E+01 -0.70096746845E+03  0.70201322457E+03  0.00000000000E+00 0. -1.
          1    1    1    2  502    0  0.64435378321E+01  0.21325306022E+02 -0.64912650568E+02  0.68629003057E+02  0.00000000000E+00 0. -1.
         22    1    3    3    0    0  0.63727556378E+02 -0.50816291617E+02 -0.54583296908E+03  0.55188506690E+03  0.00000000000E+00 0. -1.
         22    1    3    3    0    0 -0.32379474084E+02  0.35733508554E+02 -0.33519562590E+03  0.33864645517E+03  0.00000000000E+00 0. -1.
</event>
<event>
 7    1  0.6681656E-006  0.6270055E+02  0.7818608E-02  0.1517043E+00
          2   -1    0    0  502    0  0.00000000000E+00  0.00000000000E+00  0.32663738904E+03  0.32663738904E+03  0.00000000000E+00 0. -1.
          1   -1    0    0  501    0 -0.00000000000E+00 -0.00000000000E+00 -0.11219217003E+04  0.11219217003E+04  0.00000000000E+00 0. -1.
         25    2    1    2    0    0 -0.24977261378E+02 -0.47758976451E+02 -0.10306796133E+04  0.10396300957E+04  0.12500194878E+03 0.  0.
          2    1    1    2  501    0 -0.22923777542E+02  0.72422515538E+01 -0.81969601020E+02  0.85422276226E+02  0.00000000000E+00 0. -1.
          1    1    1    2  502    0  0.47901038920E+02  0.40516724898E+02  0.31736490306E+03  0.32350671742E+03  0.00000000000E+00 0. -1.
         22    1    3    3    0    0  0.26617759691E+01  0.11502470661E+02 -0.67204260770E+01  0.13585139281E+02  0.00000000000E+00 0.  1.
         22    1    3    3    0    0 -0.27639037347E+02 -0.59261447113E+02 -0.10239591872E+04  0.10260449564E+04  0.00000000000E+00 0.  1.
</event>
<event>
 7    1  0.6681656E-006  0.1750669E+03  0.7818608E-02  0.1209167E+00
          2   -1    0    0  502    0  0.00000000000E+00  0.00000000000E+00  0.21349348818E+04  0.21349348818E+04  0.00000000000E+00 0. -1.
          1   -1    0    0  501    0 -0.00000000000E+00 -0.00000000000E+00 -0.19979672010E+04  0.19979672010E+04  0.00000000000E+00 0. -1.
         25    2    1    2    0    0  0.63636643505E+02  0.12874792957E+03  0.86903919027E+03  0.88965145015E+03  0.12499974709E+03 0.  0.
          2    1    1    2  501    0 -0.16245333680E+03 -0.66041937518E+02 -0.19810521992E+04  0.19887987430E+04  0.00000000000E+00 0. -1.
          1    1    1    2  502    0  0.98816693299E+02 -0.62705992053E+02  0.12489806897E+04  0.12544518897E+04  0.00000000000E+00 0. -1.
         22    1    3    3    0    0  0.12747852451E+02  0.13063508531E+03  0.49274401516E+03  0.50992616890E+03  0.00000000000E+00 0. -1.
         22    1    3    3    0    0  0.50888791054E+02 -0.18871557362E+01  0.37629517511E+03  0.37972528125E+03  0.00000000000E+00 0. -1.
</event>
<event>
 7    1  0.6681656E-006  0.1437336E+03  0.7818608E-02  0.1361783E+00
          2   -1    0    0  502    0  0.00000000000E+00  0.00000000000E+00  0.31578935798E+04  0.31578935798E+04  0.00000000000E+00 0. -1.
          1   -1    0    0  501    0 -0.00000000000E+00 -0.00000000000E+00 -0.15155014618E+03  0.15155014618E+03  0.00000000000E+00 0. -1.
         25    2    1    2    0    0 -0.15586669544E+03 -0.62495191943E+02  0.14876223105E+04  0.15022781878E+04  0.12497815445E+03 0.  0.
          2    1    1    2  501    0  0.32649816038E+02  0.79799537433E+01 -0.13949361939E+03  0.14348574842E+03  0.00000000000E+00 0. -1.
          1    1    1    2  502    0  0.12321687940E+03  0.54515238200E+02  0.16582147425E+04  0.16636797898E+04  0.00000000000E+00 0. -1.
         22    1    3    3    0    0 -0.17490246929E+03 -0.56882592527E+02  0.12044613836E+04  0.12184226392E+04  0.00000000000E+00 0.  1.
         22    1    3    3    0    0  0.19035773852E+02 -0.56125994165E+01  0.28316092684E+03  0.28385554856E+03  0.00000000000E+00 0.  1.
</event>
<event>
 7    1  0.6681656E-006  0.5989988E+02  0.7818608E-02  0.1469440E+00
          2   -1    0    0  502    0  0.00000000000E+00  0.00000000000E+00  0.14929004072E+04  0.14929004072E+04  0.00000000000E+00 0. -1.
          1   -1    0    0  501    0 -0.00000000000E+00 -0.00000000000E+00 -0.28732972118E+03  0.28732972118E+03  0.00000000000E+00 0. -1.
         25    2    1    2    0    0  0.73225403343E+02 -0.28255133804E+02 -0.90388182934E+02  0.17306855993E+03  0.12498956173E+03 0.  0.
          2    1    1    2  501    0 -0.40827384609E+02  0.41527506902E+02 -0.14993313187E+03  0.16084574348E+03  0.00000000000E+00 0. -1.
          1    1    1    2  502    0 -0.32398018734E+02 -0.13272373098E+02  0.14458920008E+04  0.14463158250E+04  0.00000000000E+00 0. -1.
         22    1    3    3    0    0  0.57578278872E+02 -0.54212585511E+02 -0.11109007921E+03  0.13636446870E+03  0.00000000000E+00 0. -1.
         22    1    3    3    0    0  0.15647124470E+02  0.25957451707E+02  0.20701896276E+02  0.36704091226E+02  0.00000000000E+00 0. -1.
</event>
<event>
 7    1  0.6681656E-006  0.3534165E+02  0.7818608E-02  0.1603924E+00
          2   -1    0    0  502    0  0.00000000000E+00  0.00000000000E+00  0.23175250287E+03  0.23175250287E+03  0.00000000000E+00 0. -1.
          1   -1    0    0  501    0 -0.00000000000E+00 -0.00000000000E+00 -0.12331576564E+04  0.12331576564E+04  0.00000000000E+00 0. -1.
         25    2    1    2    0    0  0.41489516242E+01 -0.10439844699E+02  0.14911473801E+03  0.19490353124E+03  0.12500390889E+03 0.  0.
          2    1    1    2  501    0 -0.20328103369E+02  0.28955149381E+02 -0.12074632408E+04  0.12079814197E+04  0.00000000000E+00 0. -1.
          1    1    1    2  502    0  0.16179151745E+02 -0.18515304682E+02  0.56943349199E+02  0.62025208397E+02  0.00000000000E+00 0. -1.
         22    1    3    3    0    0  0.18104841111E+02 -0.65885413489E+02  0.80313338875E+02  0.10544622034E+03  0.00000000000E+00 0. -1.
         22    1    3    3    0    0 -0.13955889487E+02  0.55445568790E+02  0.68801399137E+02  0.89457310897E+02  0.00000000000E+00 0. -1.
</event>
<event>
 7    1  0.6681656E-006  0.1051069E+03  0.7818608E-02  0.1436642E+00
          2   -1    0    0  502    0  0.00000000000E+00  0.00000000000E+00  0.23310827659E+04  0.23310827659E+04  0.00000000000E+00 0. -1.
          1   -1    0    0  501    0 -0.00000000000E+00 -0.00000000000E+00 -0.30264585045E+03  0.30264585045E+03  0.00000000000E+00 0. -1.
         25    2    1    2    0    0  0.11159713822E+03  0.63044627974E+02  0.24890169809E+03  0.30660022750E+03  0.12499239104E+03 0.  0.
          2    1    1    2  501    0 -0.24719023913E+02 -0.57576506187E+01 -0.27188662571E+03  0.27306870550E+03  0.00000000000E+00 0. -1.
          1    1    1    2  502    0 -0.86878114305E+02 -0.57286977355E+02  0.20514218431E+04  0.20540596833E+04  0.00000000000E+00 0. -1.
         22    1    3    3    0    0  0.34383237760E+02  0.71757256207E+02  0.19883068842E+03  0.21416104575E+03  0.00000000000E+00 0. -1.
         22    1    3    3    0    0  0.77213900458E+02 -0.87126282331E+01  0.50071009668E+02  0.92439181757E+02  0.00000000000E+00 0. -1.
</event>
<event>
 7    1  0.6681656E-006  0.1045336E+03  0.7818608E-02  0.1281895E+00
          2   -1    0    0  502    0  0.00000000000E+00  0.00000000000E+00  0.50689804937E+04  0.50689804937E+04  0.00000000000E+00 0. -1.
          1   -1    0    0  501    0 -0.00000000000E+00 -0.00000000000E+00 -0.12055948820E+03  0.12055948820E+03  0.00000000000E+00 0. -1.
         25    2    1    2    0    0  0.88117483445E+02 -0.74059522523E+02  0.15426505062E+03  0.22950641523E+03  0.12500394003E+03 0.  0.
          2    1    1    2  501    0 -0.64017746308E+00  0.10906291174E+03 -0.46425925652E+02  0.11853478442E+03  0.00000000000E+00 0. -1.
          1    1    1    2  502    0 -0.87477305982E+02 -0.35003389220E+02  0.48405818806E+04  0.48414987823E+04  0.00000000000E+00 0. -1.
         22    1    3    3    0    0  0.10027834571E+02 -0.62319119148E+02  0.13378308030E+03  0.14792613918E+03  0.00000000000E+00 0. -1.
         22    1    3    3    0    0  0.78089648874E+02 -0.11740403376E+02  0.20481970319E+02  0.81580276053E+02  0.00000000000E+00 0. -1.
</event>
<event>
 7    1  0.6681656E-006  0.6800859E+02  0.7818608E-02  0.1481288E+00
          2   -1    0    0  502    0  0.00000000000E+00  0.00000000000E+00  0.17862263542E+04  0.17862263542E+04  0.00000000000E+00 0. -1.
          1   -1    0    0  501    0 -0.00000000000E+00 -0.00000000000E+00 -0.19206527657E+03  0.19206527657E+03  0.00000000000E+00 0. -1.
         25    2    1    2    0    0  0.24633884065E+02 -0.83542489792E+02  0.74613594769E+03  0.76153117712E+03  0.12499882176E+03 0.  0.
          2    1    1    2  501    0 -0.10156667548E+01  0.67868859367E+02 -0.17791794972E+03  0.19042586611E+03  0.00000000000E+00 0. -1.
          1    1    1    2  502    0 -0.23618217310E+02  0.15673630426E+02  0.10259430797E+04  0.10263345876E+04  0.00000000000E+00 0. -1.
         22    1    3    3    0    0  0.12062847749E+02 -0.11222254311E+03  0.45817405180E+03  0.47187167029E+03  0.00000000000E+00 0.  1.
         22    1    3    3    0    0  0.12571036316E+02  0.28680053316E+02  0.28796189589E+03  0.28965950683E+03  0.00000000000E+00 0.  1.
</event>
<event>
 7    1  0.6681656E-006  0.8596672E+02  0.7818608E-02  0.1354544E+00
          2   -1    0    0  502    0  0.00000000000E+00  0.00000000000E+00  0.97103938845E+03  0.97103938845E+03  0.00000000000E+00 0. -1.
          1   -1    0    0  501    0 -0.00000000000E+00 -0.00000000000E+00 -0.20064425585E+04  0.20064425585E+04  0.00000000000E+00 0. -1.
         25    2    1    2    0    0  0.23601262011E+02 -0.79735639749E+02 -0.36713728300E+02  0.15455749255E+03  0.12500131537E+03 0.  0.
          2    1    1    2  501    0  0.49454985706E+02  0.33495784581E+02 -0.19082897120E+04  0.19092242896E+04  0.00000000000E+00 0. -1.
          1    1    1    2  502    0 -0.73056247717E+02  0.46239855168E+02  0.90960027023E+03  0.91370016479E+03  0.00000000000E+00 0. -1.
         22    1    3    3    0    0  0.66103283689E+02 -0.83010102066E+02 -0.35558289797E+02  0.11191386479E+03  0.00000000000E+00 0.  1.
         22    1    3    3    0    0 -0.42502021678E+02  0.32744623178E+01 -0.11554385031E+01  0.42643627758E+02  0.00000000000E+00 0.  1.
</event>
<event>
 7    1  0.6681656E-006  0.1186015E+03  0.7818608E-02  0.1386761E+00
          2   -1    0    0  502    0  0.00000000000E+00  0.00000000000E+00  0.78328645920E+03  0.78328645920E+03  0.00000000000E+00 0. -1.
          1   -1    0    0  501    0 -0.00000000000E+00 -0.00000000000E+00 -0.20225844100E+03  0.20225844100E+03  0.00000000000E+00 0. -1.
         25    2    1    2    0    0  0.12389266218E+03  0.17530063858E+02  0.56862641620E+02  0.18577755787E+03  0.12499298426E+03 0.  0.
          2    1    1    2  501    0 -0.11705315514E+03  0.14924926850E+02 -0.11202811174E+03  0.16270984110E+03  0.00000000000E+00 0. -1.
          1    1    1    2  502    0 -0.68395070419E+01 -0.32454990708E+02  0.63619348833E+03  0.63705750123E+03  0.00000000000E+00 0. -1.
         22    1    3    3    0    0  0.88026083117E+01  0.17494557778E+02 -0.33936598336E+02  0.39182115456E+02  0.00000000000E+00 0. -1.
         22    1    3    3    0    0  0.11509005387E+03  0.35506079833E-01  0.90799239957E+02  0.14659544242E+03  0.00000000000E+00 0. -1.
</event>
<event>
 7    1  0.7575538E-006  0.1012746E+03  0.7818608E-02  0.1380607E+00
          2   -1    0    0  502    0  0.00000000000E+00  0.00000000000E+00  0.55157507550E+03  0.55157507550E+03  0.00000000000E+00 0. -1.
          1   -1    0    0  501    0 -0.00000000000E+00 -0.00000000000E+00 -0.13134199051E+04  0.13134199051E+04  0.00000000000E+00 0. -1.
         25    2    1    2    0    0 -0.92405839304E+02  0.97072817071E+02 -0.66582415004E+03  0.69058594423E+03  0.12500070655E+03 0.  0.
          2    1    1    2  501    0  0.91385402355E+01 -0.39794601462E+02 -0.62981210356E+03  0.63113422424E+03  0.00000000000E+00 0. -1.
          1    1    1    2  502    0  0.83267299069E+02 -0.57278215609E+02  0.53379142404E+03  0.54327481209E+03  0.00000000000E+00 0. -1.
         22    1    3    3    0    0 -0.89080050894E+02  0.12411538614E+03 -0.50974392568E+03  0.53214542591E+03  0.00000000000E+00 0.  1.
         22    1    3    3    0    0 -0.33257884101E+01 -0.27042569070E+02 -0.15608022436E+03  0.15844051833E+03  0.00000000000E+00 0.  1.
</event>
<event>
 7    1  0.6681656E-006  0.7577918E+02  0.7818608E-02  0.1475609E+00
          2   -1    0    0  502    0  0.00000000000E+00  0.00000000000E+00  0.29138338727E+04  0.29138338727E+04  0.00000000000E+00 0. -1.
          1   -1    0    0  501    0 -0.00000000000E+00 -0.00000000000E+00 -0.18860912780E+04  0.18860912780E+04  0.00000000000E+00 0. -1.
         25    2    1    2    0    0 -0.23998855109E+01  0.51566860655E+02  0.61758681577E+03  0.63221981689E+03  0.12499408504E+03 0.  0.
          2    1    1    2  501    0 -0.44350367686E+01  0.26108617114E+02 -0.18780173076E+04  0.18782040190E+04  0.00000000000E+00 0. -1.
          1    1    1    2  502    0  0.68349222795E+01 -0.77675477769E+02  0.22881730865E+04  0.22895013147E+04  0.00000000000E+00 0. -1.
         22    1    3    3    0    0 -0.41962472227E+02  0.73682636222E+02  0.31312857862E+03  0.32440636046E+03  0.00000000000E+00 0.  1.
         22    1    3    3    0    0  0.39562586716E+02 -0.22115775567E+02  0.30445823714E+03  0.30781345643E+03  0.00000000000E+00 0.  1.
</event>
<event>
 7    1  0.6681656E-006  0.1150425E+03  0.7818608E-02  0.1329667E+00
          2   -1    0    0  502    0  0.00000000000E+00  0.00000000000E+00  0.67990881356E+03  0.67990881356E+03  0.00000000000E+00 0. -1.
          1   -1    0    0  501    0 -0.00000000000E+00 -0.00000000000E+00 -0.23800935004E+04  0.23800935004E+04  0.00000000000E+00 0. -1.
         25    2    1    2    0    0 -0.45587975823E+02  0.68150515237E+02  0.31580441277E+02  0.15279112652E+03  0.12500019122E+03 0.  0.
          2    1    1    2  501    0  0.25457611015E+02  0.49126712891E+02 -0.23131310311E+04  0.23137927070E+04  0.00000000000E+00 0. -1.
          1    1    1    2  502    0  0.20130364808E+02 -0.11727722813E+03  0.58136590297E+03  0.59341848046E+03  0.00000000000E+00 0. -1.
         22    1    3    3    0    0 -0.47602770659E+02  0.92981379618E+02 -0.93491539451E+01  0.10487596202E+03  0.00000000000E+00 0.  1.
         22    1    3    3    0    0  0.20147948364E+01 -0.24830864381E+02  0.40929595222E+02  0.47915164501E+02  0.00000000000E+00 0.  1.
</event>
<event>
 7    1  0.6681656E-006  0.2313517E+03  0.7818608E-02  0.1350642E+00
          2   -1    0    0  502    0  0.00000000000E+00  0.00000000000E+00  0.15124943349E+04  0.15124943349E+04  0.00000000000E+00 0. -1.
          1   -1    0    0  501    0 -0.00000000000E+00 -0.00000000000E+00 -0.19476423428E+03  0.19476423428E+03  0.00000000000E+00 0. -1.
         25    2    1    2    0    0 -0.17513733305E+03 -0.17897156039E+03  0.39850423465E+03  0.48696440789E+03  0.12499921862E+03 0.  0.
          2    1    1    2  501    0  0.16117680919E+03  0.16076434842E+03 -0.64258373467E+02  0.23654233893E+03  0.00000000000E+00 0. -1.
          1    1    1    2  502    0  0.13960523861E+02  0.18207211972E+02  0.98348423945E+03  0.98375182238E+03  0.00000000000E+00 0. -1.
         22    1    3    3    0    0 -0.10686074687E+03 -0.76369572414E+02  0.30558948387E+03  0.33262059988E+03  0.00000000000E+00 0.  1.
         22    1    3    3    0    0 -0.68276586181E+02 -0.10260198798E+03  0.92914750784E+02  0.15434380801E+03  0.00000000000E+00 0.  1.
</event>
<event>
 7    1  0.6681656E-006  0.1069909E+03  0.7818608E-02  0.1284917E+00
          2   -1    0    0  502    0  0.00000000000E+00  0.00000000000E+00  0.13880265502E+04  0.13880265502E+04  0.00000000000E+00 0. -1.
          1   -1    0    0  501    0 -0.00000000000E+00 -0.00000000000E+00 -0.91082058120E+03  0.91082058120E+03  0.00000000000E+00 0. -1.
         25    2    1    2    0    0 -0.13176453359E+03 -0.17353660882E+02  0.21370448775E+03  0.28099455621E+03  0.12500116270E+03 0.  0.
          2    1    1    2  501    0  0.69439035352E+02  0.81532494816E+02 -0.87214101602E+03  0.87869179987E+03  0.00000000000E+00 0. -1.
          1    1    1    2  502    0  0.62325498234E+02 -0.64178833934E+02  0.11356424973E+04  0.11391607753E+04  0.00000000000E+00 0. -1.
         22    1    3    3    0    0 -0.13773778307E+03 -0.49996890793E+02  0.19122810080E+03  0.24091403552E+03  0.00000000000E+00 0. -1.
         22    1    3    3    0    0  0.59732494842E+01  0.32643229911E+02  0.22476386950E+02  0.40080520689E+02  0.00000000000E+00 0. -1.
</event>
<event>
 7    1  0.6681656E-006  0.7592873E+02  0.7818608E-02  0.1474689E+00
          2   -1    0    0  502    0  0.00000000000E+00  0.00000000000E+00  0.13950912384E+03  0.13950912384E+03  0.00000000000E+00 0. -1.
          1   -1    0    0  501    0 -0.00000000000E+00 -0.00000000000E+00 -0.64829795786E+03  0.64829795786E+03  0.00000000000E+00 0. -1.
         25    2    1    2    0    0  0.63637844691E+02  0.37606231175E+02 -0.21648841691E+03  0.26068741640E+03  0.12500676188E+03 0.  0.
          2    1    1    2  501    0 -0.75643683354E+02 -0.13865413754E+02 -0.40453248653E+03  0.41177754818E+03  0.00000000000E+00 0. -1.
          1    1    1    2  502    0  0.12005838663E+02 -0.23740817421E+02  0.11223206942E+03  0.11534211711E+03  0.00000000000E+00 0. -1.
         22    1    3    3    0    0  0.48199287734E+01  0.67426631556E+02 -0.16059293496E+03  0.17424027409E+03  0.00000000000E+00 0.  1.
         22    1    3    3    0    0  0.58817915918E+02 -0.29820400381E+02 -0.55895481947E+02  0.86447142312E+02  0.00000000000E+00 0.  1.
</event>
<event>
 7    1  0.6681656E-006  0.1172497E+03  0.7818608E-02  0.1265463E+00
          2   -1    0    0  502    0  0.00000000000E+00  0.00000000000E+00  0.21851623234E+03  0.21851623234E+03  0.00000000000E+00 0. -1.
          1   -1    0    0  501    0 -0.00000000000E+00 -0.00000000000E+00 -0.38527264584E+03  0.38527264584E+03  0.00000000000E+00 0. -1.
         25    2    1    2    0    0  0.46978467649E+02  0.26616818693E+02  0.49394750409E+02  0.14484876025E+03  0.12500356202E+03 0.  0.
          2    1    1    2  501    0  0.30431226708E+02  0.11323171662E+03 -0.26666629725E+03  0.29130464345E+03  0.00000000000E+00 0. -1.
          1    1    1    2  502    0 -0.77409694357E+02 -0.13984853531E+03  0.50515133333E+02  0.16763547448E+03  0.00000000000E+00 0. -1.
         22    1    3    3    0    0  0.26520403958E+02 -0.43264435623E+02  0.51097485152E+02  0.72014555506E+02  0.00000000000E+00 0.  1.
         22    1    3    3    0    0  0.20458063691E+02  0.69881254317E+02 -0.17027347427E+01  0.72834204742E+02  0.00000000000E+00 0.  1.
</event>
<event>
 7    1  0.6681656E-006  0.1111724E+03  0.7818608E-02  0.1386269E+00
          2   -1    0    0  502    0  0.00000000000E+00  0.00000000000E+00  0.79955948826E+03  0.79955948826E+03  0.00000000000E+00 0. -1.
          1   -1    0    0  501    0 -0.00000000000E+00 -0.00000000000E+00 -0.16823766117E+04  0.16823766117E+04  0.00000000000E+00 0. -1.
         25    2    1    2    0    0 -0.82471633496E+02  0.30599353172E+01  0.10364255354E+02  0.15014601476E+03  0.12500189768E+03 0.  0.
          2    1    1    2  501    0  0.11027366968E+03  0.19055273540E+02 -0.16101037568E+04  0.16139880710E+04  0.00000000000E+00 0. -1.
          1    1    1    2  502    0 -0.27802036184E+02 -0.22115208857E+02  0.71692237795E+03  0.71780201426E+03  0.00000000000E+00 0. -1.
         22    1    3    3    0    0  0.16036006735E+02  0.21054907577E+02 -0.31904210671E+02  0.41452880522E+02  0.00000000000E+00 0.  1.
         22    1    3    3    0    0 -0.98507640231E+02 -0.17994972260E+02  0.42268466025E+02  0.10869313424E+03  0.00000000000E+00 0.  1.
</event>
<event>
 7    1  0.6681656E-006  0.7059909E+02  0.7818608E-02  0.1403619E+00
          2   -1    0    0  502    0  0.00000000000E+00  0.00000000000E+00  0.35366274087E+03  0.35366274087E+03  0.00000000000E+00 0. -1.
          1   -1    0    0  501    0 -0.00000000000E+00 -0.00000000000E+00 -0.97702856323E+03  0.97702856323E+03  0.00000000000E+00 0. -1.
         25    2    1    2    0    0  0.27220073601E+02  0.60247312185E+02 -0.22719698431E+03  0.26761088131E+03  0.12500577219E+03 0.  0.
          2    1    1    2  501    0 -0.48126842580E+02  0.75185917559E+01 -0.72502754115E+03  0.72666199683E+03  0.00000000000E+00 0. -1.
          1    1    1    2  502    0  0.20906768979E+02 -0.67765903941E+02  0.32885870311E+03  0.33641842597E+03  0.00000000000E+00 0. -1.
         22    1    3    3    0    0  0.48472551835E+02  0.46288626971E+02 -0.38675220135E+02  0.77382155054E+02  0.00000000000E+00 0.  1.
         22    1    3    3    0    0 -0.21252478234E+02  0.13958685213E+02 -0.18852176418E+03  0.19022872625E+03  0.00000000000E+00 0.  1.
</event>
<event>
 7    1  0.6681656E-006  0.1221288E+03  0.7818608E-02  0.1337268E+00
          2   -1    0    0  502    0  0.00000000000E+00  0.00000000000E+00  0.50941342927E+03  0.50941342927E+03  0.00000000000E+00 0. -1.
          1   -1    0    0  501    0 -0.00000000000E+00 -0.00000000000E+00 -0.27966493238E+03  0.27966493238E+03  0.00000000000E+00 0. -1.
         25    2    1    2    0    0  0.96960424519E+02  0.13125109029E+02  0.22127037748E+02  0.16027683074E+03  0.12500185704E+03 0.  0.
          2    1    1    2  501    0  0.14297214644E+02  0.46623821878E+02 -0.19803043280E+03  0.20394666810E+03  0.00000000000E+00 0. -1.
          1    1    1    2  502    0 -0.11125763916E+03 -0.59748930907E+02  0.40565189195E+03  0.42485486282E+03  0.00000000000E+00 0. -1.
         22    1    3    3    0    0  0.73509645413E+02  0.49109753675E+02  0.56797757538E+02  0.10507816679E+03  0.00000000000E+00 0. -1.
         22    1    3    3    0    0  0.23450779105E+02 -0.35984644646E+02 -0.34670719790E+02  0.55198663949E+02  0.00000000000E+00 0. -1.
</event>
<event>
 7    1  0.6681656E-006  0.6149806E+02  0.7818608E-02  0.1501416E+00
          2   -1    0    0  502    0  0.00000000000E+00  0.00000000000E+00  0.15275681417E+04  0.15275681417E+04  0.00000000000E+00 0. -1.
          1   -1    0    0  501    0 -0.00000000000E+00 -0.00000000000E+00 -0.30986014856E+03  0.30986014856E+03  0.00000000000E+00 0. -1.
         25    2    1    2    0    0  0.14555820966E+02  0.87341937097E+02 -0.10438802529E+03  0.18534858550E+03  0.12496700533E+03 0.  0.
          2    1    1    2  501    0 -0.26965700590E+01 -0.27118617132E+02 -0.16322830980E+03  0.16548767931E+03  0.00000000000E+00 0. -1.
          1    1    1    2  502    0 -0.11859250907E+02 -0.60223319965E+02  0.14853243282E+04  0.14865920254E+04  0.00000000000E+00 0. -1.
         22    1    3    3    0    0  0.69439940644E+02  0.48519794842E+02 -0.69698944464E+02  0.10969967506E+03  0.00000000000E+00 0. -1.
         22    1    3    3    0    0 -0.54884119678E+02  0.38822142255E+02 -0.34689080827E+02  0.75648910440E+02  0.00000000000E+00 0. -1.
</event>
<event>
 7    1  0.6681656E-006  0.8259132E+02  0.7818608E-02  0.1362467E+00
          2   -1    0    0  502    0  0.00000000000E+00  0.00000000000E+00  0.69446742154E+02  0.69446742154E+02  0.00000000000E+00 0. -1.
          1   -1    0    0  501    0 -0.00000000000E+00 -0.00000000000E+00 -0.30829722551E+04  0.30829722551E+04  0.00000000000E+00 0. -1.
         25    2    1    2    0    0 -0.24294496641E+02 -0.13036327250E+03 -0.10229954731E+04  0.10391009723E+04  0.12500514915E+03 0.  0.
          2    1    1    2  501    0  0.29364452485E+02  0.72425954433E+02 -0.20372311338E+04  0.20387296247E+04  0.00000000000E+00 0. -1.
          1    1    1    2  502    0 -0.50699558441E+01  0.57937318071E+02  0.46701093958E+02  0.74588400267E+02  0.00000000000E+00 0. -1.
         22    1    3    3    0    0  0.22739615424E+02 -0.61051756380E+01 -0.34817048538E+02  0.42030823786E+02  0.00000000000E+00 0. -1.
         22    1    3    3    0    0 -0.47034112065E+02 -0.12425809687E+03 -0.98817842452E+03  0.99707014849E+03  0.00000000000E+00 0. -1.
</event>
<event>
 7    1  0.6749092E-006  0.1039043E+03  0.7818608E-02  0.1297281E+00
          2   -1    0    0  502    0  0.00000000000E+00  0.00000000000E+00  0.64514901424E+03  0.64514901424E+03  0.00000000000E+00 0. -1.
          1   -1    0    0  501    0 -0.00000000000E+00 -0.00000000000E+00 -0.22460046531E+04  0.22460046531E+04  0.00000000000E+00 0. -1.
         25    2    1    2    0    0  0.98306631003E+00 -0.73417822524E+02 -0.25642436603E+03  0.29456735217E+03  0.12500130552E+03 0.  0.
          2    1    1    2  501    0 -0.82950544366E+02  0.69453874751E+02 -0.19663262656E+04  0.19693002860E+04  0.00000000000E+00 0. -1.
          1    1    1    2  502    0  0.81967478056E+02  0.39639477734E+01  0.62189499280E+03  0.62728602918E+03  0.00000000000E+00 0. -1.
         22    1    3    3    0    0 -0.77302158437E+01 -0.76649621882E+02 -0.59285405037E+02  0.97209464673E+02  0.00000000000E+00 0. -1.
         22    1    3    3    0    0  0.87132821537E+01  0.32317993572E+01 -0.19713896100E+03  0.19735788749E+03  0.00000000000E+00 0. -1.
</event>
<event>
 7    1  0.6681656E-006  0.1680356E+03  0.7818608E-02  0.1359596E+00
          2   -1    0    0  502    0  0.00000000000E+00  0.00000000000E+00  0.25355088265E+04  0.25355088265E+04  0.00000000000E+00 0. -1.
          1   -1    0    0  501    0 -0.00000000000E+00 -0.00000000000E+00 -0.28332979562E+03  0.28332979562E+03  0.00000000000E+00 0. -1.
         25    2    1    2    0    0 -0.14903031983E+03  0.67200619645E+02  0.45292986858E+03  0.49749375293E+03  0.12501443451E+03 0.  0.
          2    1    1    2  501    0  0.91734712726E+01  0.27808544834E+02 -0.25674545278E+03  0.25840993647E+03  0.00000000000E+00 0. -1.
          1    1    1    2  502    0  0.13985684856E+03 -0.95009164478E+02  0.20559946151E+04  0.20629349327E+04  0.00000000000E+00 0. -1.
         22    1    3    3    0    0 -0.77253613375E+02  0.62015424533E+02  0.38840092195E+03  0.40083576416E+03  0.00000000000E+00 0. -1.
         22    1    3    3    0    0 -0.71776706458E+02  0.51851951121E+01  0.64528946631E+02  0.96657988762E+02  0.00000000000E+00 0. -1.
</event>
<event>
 7    1  0.6681656E-006  0.1503124E+03  0.7818608E-02  0.1301182E+00
          2   -1    0    0  502    0  0.00000000000E+00  0.00000000000E+00  0.15904273028E+04  0.15904273028E+04  0.00000000000E+00 0. -1.
          1   -1    0    0  501    0 -0.00000000000E+00 -0.00000000000E+00 -0.59066113151E+03  0.59066113151E+03  0.00000000000E+00 0. -1.
         25    2    1    2    0    0  0.86366051593E+02 -0.72927615441E+02 -0.29646296958E+03  0.34101659472E+03  0.12499797428E+03 0.  0.
          2    1    1    2  501    0  0.52719394647E+02  0.14664113515E+02 -0.26549945356E+03  0.27107993404E+03  0.00000000000E+00 0. -1.
          1    1    1    2  502    0 -0.13908544624E+03  0.58263501926E+02  0.15617285945E+04  0.15689919056E+04  0.00000000000E+00 0. -1.
         22    1    3    3    0    0  0.63932551312E+02 -0.57634574194E+02 -0.64731298380E+02  0.10769984331E+03  0.00000000000E+00 0. -1.
         22    1    3    3    0    0  0.22433500281E+02 -0.15293041247E+02 -0.23173167120E+03  0.23331675140E+03  0.00000000000E+00 0. -1.
</event>
<event>
 7    1  0.6681656E-006  0.1181585E+03  0.7818608E-02  0.1271173E+00
          2   -1    0    0  502    0  0.00000000000E+00  0.00000000000E+00  0.15493243768E+04  0.15493243768E+04  0.00000000000E+00 0. -1.
          1   -1    0    0  501    0 -0.00000000000E+00 -0.00000000000E+00 -0.68526060385E+03  0.68526060385E+03  0.00000000000E+00 0. -1.
         25    2    1    2    0    0  0.30947200579E+02 -0.11225715231E+02  0.86769681883E+02  0.15568158106E+03  0.12499612426E+03 0.  0.
          2    1    1    2  501    0 -0.12228703300E+03 -0.24819263975E+01 -0.64354510074E+03  0.65506532123E+03  0.00000000000E+00 0. -1.
          1    1    1    2  502    0  0.91339832417E+02  0.13707641628E+02  0.14208391918E+04  0.14238380783E+04  0.00000000000E+00 0. -1.
         22    1    3    3    0    0  0.58124107845E+02  0.29479148994E+02  0.11924706256E+02  0.66254288597E+02  0.00000000000E+00 0. -1.
         22    1    3    3    0    0 -0.27176907267E+02 -0.40704864225E+02  0.74844975626E+02  0.89427292459E+02  0.00000000000E+00 0. -1.
</event>
<event>
 7    1  0.6681656E-006  0.1098589E+03  0.7818608E-02  0.1287097E+00
          2   -1    0    0  502    0  0.00000000000E+00  0.00000000000E+00  0.64216719426E+03  0.64216719426E+03  0.00000000000E+00 0. -1.
          1   -1    0    0  501    0 -0.00000000000E+00 -0.00000000000E+00 -0.16533466835E+04  0.16533466835E+04  0.00000000000E+00 0. -1.
         25    2    1    2    0    0 -0.15449427015E+02 -0.20817908379E+02  0.23090752209E+03  0.26383804011E+03  0.12498062869E+03 0.  0.
          2    1    1    2  501    0  0.45347572101E+02  0.10076411412E+03 -0.16303760272E+04  0.16341162135E+04  0.00000000000E+00 0. -1.
          1    1    1    2  502    0 -0.29898145086E+02 -0.79946205738E+02  0.38828901591E+03  0.39755962417E+03  0.00000000000E+00 0. -1.
         22    1    3    3    0    0 -0.61339619704E+01  0.32428414087E+02  0.73152425029E+01  0.33804442054E+02  0.00000000000E+00 0. -1.
         22    1    3    3    0    0 -0.93154650445E+01 -0.53246322467E+02  0.22359227958E+03  0.23003359806E+03  0.00000000000E+00 0. -1.
</event>
<event>
 7    1  0.6681656E-006  0.1787835E+03  0.7818608E-02  0.1273675E+00
          2   -1    0    0  502    0  0.00000000000E+00  0.00000000000E+00  0.10855451416E+04  0.10855451416E+04  0.00000000000E+00 0. -1.
          1   -1    0    0  501    0 -0.00000000000E+00 -0.00000000000E+00 -0.50113254945E+03  0.50113254945E+03  0.00000000000E+00 0. -1.
         25    2    1    2    0    0  0.26600717013E+02 -0.11982554060E+03  0.42841353789E+03  0.46284949538E+03  0.12500295036E+03 0.  0.
          2    1    1    2  501    0 -0.23870868517E+02  0.17935198118E+03 -0.46552704143E+03  0.49945207760E+03  0.00000000000E+00 0. -1.
          1    1    1    2  502    0 -0.27298484963E+01 -0.59526440577E+02  0.62152609567E+03  0.62437611806E+03  0.00000000000E+00 0. -1.
         22    1    3    3    0    0  0.20506835045E+02 -0.14392475363E+03  0.31774272921E+03  0.34942138881E+03  0.00000000000E+00 0. -1.
         22    1    3    3    0    0  0.60938819681E+01  0.24099213028E+02  0.11067080868E+03  0.11342810657E+03  0.00000000000E+00 0. -1.
</event>
<event>
 7    1  0.6681656E-006  0.1002078E+03  0.7818608E-02  0.1418226E+00
          2   -1    0    0  502    0  0.00000000000E+00  0.00000000000E+00  0.67445857037E+03  0.67445857037E+03  0.00000000000E+00 0. -1.
          1   -1    0    0  501    0 -0.00000000000E+00 -0.00000000000E+00 -0.31454242832E+03  0.31454242832E+03  0.00000000000E+00 0. -1.
         25    2    1    2    0    0  0.69613227392E+02 -0.15753592390E+02  0.12260097105E+03  0.18907897217E+03  0.12500273003E+03 0.  0.
          2    1    1    2  501    0 -0.98793196023E+02  0.25051962589E+02 -0.27159620472E+03  0.29008997712E+03  0.00000000000E+00 0. -1.
          1    1    1    2  502    0  0.29179968630E+02 -0.92983701989E+01  0.50891137572E+03  0.50983204939E+03  0.00000000000E+00 0. -1.
         22    1    3    3    0    0  0.39449347640E+01  0.22328098494E+02 -0.18228770077E+02  0.29092860829E+02  0.00000000000E+00 0.  1.
         22    1    3    3    0    0  0.65668292628E+02 -0.38081690885E+02  0.14082974113E+03  0.15998611135E+03  0.00000000000E+00 0.  1.
</event>
<event>
 7    1  0.6681656E-006  0.6107005E+02  0.7818608E-02  0.1453047E+00
          2   -1    0    0  502    0  0.00000000000E+00  0.00000000000E+00  0.11747731602E+04  0.11747731602E+04  0.00000000000E+00 0. -1.
          1   -1    0    0  501    0 -0.00000000000E+00 -0.00000000000E+00 -0.21542008244E+02  0.21542008244E+02  0.00000000000E+00 0. -1.
         25    2    1    2    0    0 -0.70781771900E+02  0.55588467254E+02  0.73279678244E+03  0.74881006202E+03  0.12500099082E+03 0.  0.
          2    1    1    2  501    0  0.32709523666E+02 -0.48787709513E+02  0.56431657059E+02  0.81453578536E+02  0.00000000000E+00 0. -1.
          1    1    1    2  502    0  0.38072248234E+02 -0.68007577412E+01  0.36400271242E+03  0.36605152785E+03  0.00000000000E+00 0. -1.
         22    1    3    3    0    0 -0.94069658049E+02  0.15146284000E+02  0.33504304198E+03  0.34832793523E+03  0.00000000000E+00 0.  1.
         22    1    3    3    0    0  0.23287886150E+02  0.40442183253E+02  0.39775374047E+03  0.40048212679E+03  0.00000000000E+00 0.  1.
</event>
<event>
 7    1  0.6681656E-006  0.4825024E+02  0.7818608E-02  0.1571287E+00
          2   -1    0    0  502    0  0.00000000000E+00  0.00000000000E+00  0.26651707106E+03  0.26651707106E+03  0.00000000000E+00 0. -1.
          1   -1    0    0  501    0 -0.00000000000E+00 -0.00000000000E+00 -0.14111723261E+04  0.14111723261E+04  0.00000000000E+00 0. -1.
         25    2    1    2    0    0  0.20594149807E+02 -0.20330495405E+02  0.31486493447E+02  0.13211440691E+03  0.12500147676E+03 0.  0.
          2    1    1    2  501    0 -0.42382412568E+02  0.23284660009E+02 -0.13597727258E+04  0.13606323199E+04  0.00000000000E+00 0. -1.
          1    1    1    2  502    0  0.21788262761E+02 -0.29541646047E+01  0.18363097729E+03  0.18494267032E+03  0.00000000000E+00 0. -1.
         22    1    3    3    0    0 -0.16334432446E+02  0.42344386804E+01  0.70838608306E+02  0.72820687864E+02  0.00000000000E+00 0. -1.
         22    1    3    3    0    0  0.36928582253E+02 -0.24564934085E+02 -0.39352114860E+02  0.59293719041E+02  0.00000000000E+00 0. -1.
</event>
<event>
 7    1  0.6681656E-006  0.1597041E+03  0.7818608E-02  0.1394974E+00
          2   -1    0    0  502    0  0.00000000000E+00  0.00000000000E+00  0.36704628630E+03  0.36704628630E+03  0.00000000000E+00 0. -1.
          1   -1    0    0  501    0 -0.00000000000E+00 -0.00000000000E+00 -0.89647225312E+03  0.89647225312E+03  0.00000000000E+00 0. -1.
         25    2    1    2    0    0 -0.15014279847E+03 -0.69303108997E+02 -0.87951422408E+02  0.22518445011E+03  0.12500721186E+03 0.  0.
          2    1    1    2  501    0 -0.20816808542E+01  0.22966152360E+02 -0.71849565472E+03  0.71886562263E+03  0.00000000000E+00 0. -1.
          1    1    1    2  502    0  0.15222447932E+03  0.46336956637E+02  0.27702111030E+03  0.31946846669E+03  0.00000000000E+00 0. -1.
         22    1    3    3    0    0 -0.10884877998E+03 -0.41395462939E+01 -0.99069966358E+02  0.14724147168E+03  0.00000000000E+00 0.  1.
         22    1    3    3    0    0 -0.41294018487E+02 -0.65163562703E+02  0.11118543950E+02  0.77942978430E+02  0.00000000000E+00 0.  1.
</event>
<event>
 7    1  0.6681656E-006  0.1173489E+03  0.7818608E-02  0.1325601E+00
          2   -1    0    0  502    0  0.00000000000E+00  0.00000000000E+00  0.67761218731E+03  0.67761218731E+03  0.00000000000E+00 0. -1.
          1   -1    0    0  501    0 -0.00000000000E+00 -0.00000000000E+00 -0.13241772126E+04  0.13241772126E+04  0.00000000000E+00 0. -1.
         25    2    1    2    0    0 -0.91565805731E+02 -0.24441608595E+02  0.24564428277E+03  0.29145701016E+03  0.12499754439E+03 0.  0.
          2    1    1    2  501    0 -0.11388924200E+02 -0.55060677921E+02 -0.12903021913E+04  0.12915266667E+04  0.00000000000E+00 0. -1.
          1    1    1    2  502    0  0.10295472993E+03  0.79502286516E+02  0.39809288325E+03  0.41880572307E+03  0.00000000000E+00 0. -1.
         22    1    3    3    0    0 -0.34054878141E+02  0.13470409258E+02  0.21136856447E+03  0.21451773050E+03  0.00000000000E+00 0.  1.
         22    1    3    3    0    0 -0.57510927590E+02 -0.37912017854E+02  0.34275718296E+02  0.76939279661E+02  0.00000000000E+00 0.  1.
</event>
<event>
 7    1  0.6681656E-006  0.1020697E+03  0.7818608E-02  0.1307302E+00
          2   -1    0    0  502    0  0.00000000000E+00  0.00000000000E+00  0.43550153649E+03  0.43550153649E+03  0.00000000000E+00 0. -1.
          1   -1    0    0  501    0 -0.00000000000E+00 -0.00000000000E+00 -0.77489578903E+03  0.77489578903E+03  0.00000000000E+00 0. -1.
         25    2    1    2    0    0  0.15207849203E+03 -0.39694598333E+02 -0.12297810445E+03  0.23548301494E+03  0.12500042911E+03 0.  0.
          2    1    1    2  501    0 -0.72902373574E+02 -0.22149420900E+02 -0.58650387335E+03  0.59143228384E+03  0.00000000000E+00 0. -1.
          1    1    1    2  502    0 -0.79176118451E+02  0.61844019233E+02  0.37008772526E+03  0.38348202674E+03  0.00000000000E+00 0. -1.
         22    1    3    3    0    0  0.19986701452E+02  0.30307279468E+02 -0.66331110511E+02  0.75616239297E+02  0.00000000000E+00 0.  1.
         22    1    3    3    0    0  0.13209179057E+03 -0.70001877801E+02 -0.56646993939E+02  0.15986677564E+03  0.00000000000E+00 0.  1.
</event>
<event>
 7    1  0.6681656E-006  0.7517605E+02  0.7818608E-02  0.1410196E+00
          2   -1    0    0  502    0  0.00000000000E+00  0.00000000000E+00  0.51301017581E+02  0.51301017581E+02  0.00000000000E+00 0. -1.
          1   -1    0    0  501    0 -0.00000000000E+00 -0.00000000000E+00 -0.17720363051E+04  0.17720363051E+04  0.00000000000E+00 0. -1.
         25    2    1    2    0    0  0.33337219412E+02  0.11079160797E+03 -0.53871046064E+03  0.56499534468E+03  0.12499851407E+03 0.  0.
          2    1    1    2  501    0 -0.16756973277E+02 -0.40084919698E+02 -0.11848655121E+04  0.11856617894E+04  0.00000000000E+00 0. -1.
          1    1    1    2  502    0 -0.16580246135E+02 -0.70706688273E+02  0.28406852320E+01  0.72680188642E+02  0.00000000000E+00 0. -1.
         22    1    3    3    0    0  0.67002378987E+02  0.11811112278E+03 -0.42251687946E+03  0.44380183590E+03  0.00000000000E+00 0.  1.
         22    1    3    3    0    0 -0.33665159575E+02 -0.73195148072E+01 -0.11619358117E+03  0.12119350879E+03  0.00000000000E+00 0.  1.
</event>
<event>
 7    1  0.6681656E-006  0.1253447E+03  0.7818608E-02  0.1292904E+00
          2   -1    0    0  502    0  0.00000000000E+00  0.00000000000E+00  0.18078531918E+04  0.18078531918E+04  0.00000000000E+00 0. -1.
          1   -1    0    0  501    0 -0.00000000000E+00 -0.00000000000E+00 -0.53577226879E+03  0.53577226879E+03  0.00000000000E+00 0. -1.
         25    2    1    2    0    0 -0.57686029836E+02  0.45152475404E+02  0.11941915650E+04  0.12029483082E+04  0.12499885679E+03 0.  0.
          2    1    1    2  501    0  0.49579139446E+02 -0.11553664823E+03 -0.52184291165E+03  0.53677447088E+03  0.00000000000E+00 0. -1.
          1    1    1    2  502    0  0.81068903902E+01  0.70384172825E+02  0.59973226969E+03  0.60390268154E+03  0.00000000000E+00 0. -1.
         22    1    3    3    0    0 -0.63463417419E+01  0.68046537310E+02  0.94623070733E+03  0.94869550372E+03  0.00000000000E+00 0. -1.
         22    1    3    3    0    0 -0.51339688094E+02 -0.22894061906E+02  0.24796085763E+03  0.25425280443E+03  0.00000000000E+00 0. -1.
</event>
<event>
 7    1  0.6681656E-006  0.1339234E+03  0.7818608E-02  0.1429694E+00
          2   -1    0    0  502    0  0.00000000000E+00  0.00000000000E+00  0.23073481305E+03  0.23073481305E+03  0.00000000000E+00 0. -1.
          1   -1    0    0  501    0 -0.00000000000E+00 -0.00000000000E+00 -0.16224997191E+04  0.16224997191E+04  0.00000000000E+00 0. -1.
         25    2    1    2    0    0 -0.30334744053E+02  0.12391253665E+03 -0.55649371129E+03  0.58445255331E+03  0.12500009175E+03 0.  0.
          2    1    1    2  501    0  0.51193257725E+02 -0.12627329859E+03 -0.10470937216E+04  0.10559218519E+04  0.00000000000E+00 0. -1.
          1    1    1    2  502    0 -0.20858513672E+02  0.23607619397E+01  0.21182252679E+03  0.21286012695E+03  0.00000000000E+00 0. -1.
         22    1    3    3    0    0 -0.37970435202E+02  0.43365333178E+02 -0.43297058025E+03  0.43679037241E+03  0.00000000000E+00 0.  1.
         22    1    3    3    0    0  0.76356911493E+01  0.80547203477E+02 -0.12352313104E+03  0.14766218090E+03  0.00000000000E+00 0.  1.
</event>
<event>
 7    1  0.6681656E-006  0.6833330E+02  0.7818608E-02  0.1513456E+00
          2   -1    0    0  502    0  0.00000000000E+00  0.00000000000E+00  0.19604743522E+03  0.19604743522E+03  0.00000000000E+00 0. -1.
          1   -1    0    0  501    0 -0.00000000000E+00 -0.00000000000E+00 -0.10841619692E+04  0.10841619692E+04  0.00000000000E+00 0. -1.
         25    2    1    2    0    0 -0.39804715285E+02  0.28685543356E+02 -0.10538423306E+03  0.17070064231E+03  0.12500238777E+03 0.  0.
          2    1    1    2  501    0 -0.88647982723E+01  0.20786480118E+02 -0.93860817967E+03  0.93888017199E+03  0.00000000000E+00 0. -1.
          1    1    1    2  502    0  0.48669513557E+02 -0.49472023473E+02  0.15587787880E+03  0.17062859009E+03  0.00000000000E+00 0. -1.
         22    1    3    3    0    0  0.34579147712E+02 -0.13190962739E+02 -0.68193534698E+02  0.77589156002E+02  0.00000000000E+00 0. -1.
         22    1    3    3    0    0 -0.74383862997E+02  0.41876506094E+02 -0.37190698363E+02  0.93111486304E+02  0.00000000000E+00 0. -1.
</event>
<event>
 7    1  0.6681656E-006  0.8177724E+02  0.7818608E-02  0.1408436E+00
          2   -1    0    0  502    0  0.00000000000E+00  0.00000000000E+00  0.15175005379E+04  0.15175005379E+04  0.00000000000E+00 0. -1.
          1   -1    0    0  501    0 -0.00000000000E+00 -0.00000000000E+00 -0.10516874399E+04  0.10516874399E+04  0.00000000000E+00 0. -1.
         25    2    1    2    0    0  0.79935579496E+02 -0.52656645535E+01  0.19145673033E+03  0.24227871106E+03  0.12500348054E+03 0.  0.
          2    1    1    2  501    0 -0.53350880956E+01  0.40139259191E+02 -0.10245726488E+04  0.10253724864E+04  0.00000000000E+00 0. -1.
          1    1    1    2  502    0 -0.74600491401E+02 -0.34873594638E+02  0.12989290165E+04  0.13015367804E+04  0.00000000000E+00 0. -1.
         22    1    3    3    0    0  0.80188900140E+02 -0.12141200018E+02  0.20859717151E+03  0.22380895515E+03  0.00000000000E+00 0. -1.
         22    1    3    3    0    0 -0.25332064316E+00  0.68755354643E+01 -0.17140441179E+02  0.18469755902E+02  0.00000000000E+00 0. -1.
</event>
<event>
 7    1  0.6681656E-006  0.1000511E+03  0.7818608E-02  0.1357542E+00
          2   -1    0    0  502    0  0.00000000000E+00  0.00000000000E+00  0.13805514924E+04  0.13805514924E+04  0.00000000000E+00 0. -1.
          1   -1    0    0  501    0 -0.00000000000E+00 -0.00000000000E+00 -0.36319924076E+02  0.36319924076E+02  0.00000000000E+00 0. -1.
         25    2    1    2    0    0 -0.52566107257E+02  0.12765021533E+03  0.40161894672E+03  0.44269690929E+03  0.12500000810E+03 0.  0.
          2    1    1    2  501    0  0.38172131588E+02 -0.79726945189E+02  0.11498027804E+03  0.14503089932E+03  0.00000000000E+00 0. -1.
          1    1    1    2  502    0  0.14393975669E+02 -0.47923270136E+02  0.82763234353E+03  0.82914360783E+03  0.00000000000E+00 0. -1.
         22    1    3    3    0    0 -0.52075091625E+02  0.14376551308E+03  0.39773289499E+03  0.42611241906E+03  0.00000000000E+00 0. -1.
         22    1    3    3    0    0 -0.49101563185E+00 -0.16115297755E+02  0.38860517286E+01  0.16584490228E+02  0.00000000000E+00 0. -1.
</event>
<event>
 7    1  0.6681656E-006  0.4471599E+02  0.7818608E-02  0.1583775E+00
          2   -1    0    0  502    0  0.00000000000E+00  0.00000000000E+00  0.43547414528E+03  0.43547414528E+03  0.00000000000E+00 0. -1.
          1   -1    0    0  501    0 -0.00000000000E+00 -0.00000000000E+00 -0.12995304793E+03  0.12995304793E+03  0.00000000000E+00 0. -1.
         25    2    1    2    0    0 -0.11803659106E+02 -0.29479879249E+02 -0.69997662807E+01  0.12916047362E+03  0.12500016627E+03 0.  0.
          2    1    1    2  501    0 -0.21956851600E+02 -0.33679032340E+00 -0.58518682688E+02  0.62503223784E+02  0.00000000000E+00 0. -1.
          1    1    1    2  502    0  0.33760510706E+02  0.29816669572E+02  0.37103954632E+03  0.37376349581E+03  0.00000000000E+00 0. -1.
         22    1    3    3    0    0  0.46178002094E+02 -0.98561589790E+00  0.29647765981E+02  0.54885055742E+02  0.00000000000E+00 0. -1.
         22    1    3    3    0    0 -0.57981661200E+02 -0.28494263351E+02 -0.36647532262E+02  0.74275417873E+02  0.00000000000E+00 0. -1.
</event>
<event>
 7    1  0.6681656E-006  0.7488993E+02  0.7818608E-02  0.1354305E+00
          2   -1    0    0  502    0  0.00000000000E+00  0.00000000000E+00  0.35393109630E+04  0.35393109630E+04  0.00000000000E+00 0. -1.
          1   -1    0    0  501    0 -0.00000000000E+00 -0.00000000000E+00 -0.18715489631E+04  0.18715489631E+04  0.00000000000E+00 0. -1.
         25    2    1    2    0    0 -0.13119887159E+03 -0.45625944149E+02  0.17505157128E+04  0.17604613117E+04  0.12499559397E+03 0.  0.
          2    1    1    2  501    0  0.62651636155E+02  0.40980954878E+02 -0.18651634147E+04  0.18666652699E+04  0.00000000000E+00 0. -1.
          1    1    1    2  502    0  0.68547235439E+02  0.46449892710E+01  0.17824097017E+04  0.17837333445E+04  0.00000000000E+00 0. -1.
         22    1    3    3    0    0 -0.81626029362E+02 -0.60584157080E+02  0.58284705601E+03  0.59164511277E+03  0.00000000000E+00 0. -1.
         22    1    3    3    0    0 -0.49572842232E+02  0.14958212931E+02  0.11676686568E+04  0.11688161990E+04  0.00000000000E+00 0. -1.
</event>
<event>
 7    1  0.6681656E-006  0.1325015E+03  0.7818608E-02  0.1429897E+00
          2   -1    0    0  502    0  0.00000000000E+00  0.00000000000E+00  0.13969552843E+03  0.13969552843E+03  0.00000000000E+00 0. -1.
          1   -1    0    0  501    0 -0.00000000000E+00 -0.00000000000E+00 -0.67533462470E+03  0.67533462470E+03  0.00000000000E+00 0. -1.
         25    2    1    2    0    0  0.10246071519E+03  0.98857924507E+02 -0.65584106044E+02  0.20049237202E+03  0.12499931550E+03 0.  0.
          2    1    1    2  501    0 -0.10586125431E+03 -0.77948358598E+02 -0.53255710195E+03  0.54854317844E+03  0.00000000000E+00 0. -1.
          1    1    1    2  502    0  0.34005391155E+01 -0.20909565909E+02  0.62502111727E+02  0.65994602682E+02  0.00000000000E+00 0. -1.
         22    1    3    3    0    0  0.79209466600E+02  0.88596679381E+02 -0.10164078965E+03  0.15637890304E+03  0.00000000000E+00 0.  1.
         22    1    3    3    0    0  0.23251248591E+02  0.10261245126E+02  0.36056683604E+02  0.44113468976E+02  0.00000000000E+00 0.  1.
</event>
<event>
 7    1  0.6681656E-006  0.1019409E+03  0.7818608E-02  0.1289091E+00
          2   -1    0    0  502    0  0.00000000000E+00  0.00000000000E+00  0.14945126109E+02  0.14945126109E+02  0.00000000000E+00 0. -1.
          1   -1    0    0  501    0 -0.00000000000E+00 -0.00000000000E+00 -0.24074606638E+04  0.24074606638E+04  0.00000000000E+00 0. -1.
         25    2    1    2    0    0 -0.24730926968E+02  0.75074747498E+02 -0.12782335939E+04  0.12867611010E+04  0.12500069637E+03 0.  0.
          2    1    1    2  501    0 -0.80178348211E+02 -0.62955313448E+02 -0.73122534036E+03  0.73829698455E+03  0.00000000000E+00 0. -1.
          1    1    1    2  502    0  0.10490927518E+03 -0.12119434050E+02 -0.38305660343E+03  0.39734770432E+03  0.00000000000E+00 0. -1.
         22    1    3    3    0    0 -0.30839278579E+02  0.87444793153E+02 -0.50731497191E+03  0.51571904530E+03  0.00000000000E+00 0. -1.
         22    1    3    3    0    0  0.61083516112E+01 -0.12370045656E+02 -0.77091862198E+03  0.77104205573E+03  0.00000000000E+00 0. -1.
</event>
<event>
 7    1  0.6681656E-006  0.1072215E+03  0.7818608E-02  0.1274544E+00
          2   -1    0    0  502    0  0.00000000000E+00  0.00000000000E+00  0.22993121137E+04  0.22993121137E+04  0.00000000000E+00 0. -1.
          1   -1    0    0  501    0 -0.00000000000E+00 -0.00000000000E+00 -0.14186915197E+04  0.14186915197E+04  0.00000000000E+00 0. -1.
         25    2    1    2    0    0 -0.34320374129E+01  0.24059800161E+02  0.13386601248E+03  0.18475585111E+03  0.12499584936E+03 0.  0.
          2    1    1    2  501    0 -0.85148762239E+02 -0.67215511172E+02 -0.13899978746E+04  0.13942246333E+04  0.00000000000E+00 0. -1.
          1    1    1    2  502    0  0.88580799652E+02  0.43155711011E+02  0.21367524561E+04  0.21390231490E+04  0.00000000000E+00 0. -1.
         22    1    3    3    0    0  0.36346852194E+02 -0.33379223006E+02  0.88869928654E+02  0.10165200643E+03  0.00000000000E+00 0.  1.
         22    1    3    3    0    0 -0.39778889607E+02  0.57439023167E+02  0.44996083822E+02  0.83103844676E+02  0.00000000000E+00 0.  1.
</event>
<event>
 7    1  0.6681656E-006  0.7204444E+02  0.7818608E-02  0.1395010E+00
          2   -1    0    0  502    0  0.00000000000E+00  0.00000000000E+00  0.69956779691E+02  0.69956779691E+02  0.00000000000E+00 0. -1.
          1   -1    0    0  501    0 -0.00000000000E+00 -0.00000000000E+00 -0.16745423234E+04  0.16745423234E+04  0.00000000000E+00 0. -1.
         25    2    1    2    0    0  0.10202011887E+03 -0.32553813811E+01 -0.41757812483E+03  0.44768188553E+03  0.12501551157E+03 0.  0.
          2    1    1    2  501    0 -0.61674515424E+02  0.34622311202E+02 -0.12287792741E+04  0.12308131275E+04  0.00000000000E+00 0. -1.
          1    1    1    2  502    0 -0.40345603449E+02 -0.31366929821E+02  0.41771855298E+02  0.66004090018E+02  0.00000000000E+00 0. -1.
         22    1    3    3    0    0  0.52805605421E+02 -0.17434922204E+02 -0.44823575315E+02  0.71425215297E+02  0.00000000000E+00 0.  1.
         22    1    3    3    0    0  0.49214513452E+02  0.14179540823E+02 -0.37275454952E+03  0.37625667024E+03  0.00000000000E+00 0.  1.
</event>
<event>
 7    1  0.6681656E-006  0.8712646E+02  0.7818608E-02  0.1361911E+00
          2   -1    0    0  502    0  0.00000000000E+00  0.00000000000E+00  0.29279429228E+04  0.29279429228E+04  0.00000000000E+00 0. -1.
          1   -1    0    0  501    0 -0.00000000000E+00 -0.00000000000E+00 -0.10904309172E+03  0.10904309172E+03  0.00000000000E+00 0. -1.
         25    2    1    2    0    0 -0.28110404948E+01 -0.12488687378E+03  0.86627349381E+03  0.88411506227E+03  0.12500017624E+03 0.  0.
          2    1    1    2  501    0 -0.29223644878E+02  0.47051853941E+02 -0.91529021427E+02  0.10698345733E+03  0.00000000000E+00 0. -1.
          1    1    1    2  502    0  0.32034685373E+02  0.77835019843E+02  0.20441553587E+04  0.20458874949E+04  0.00000000000E+00 0. -1.
         22    1    3    3    0    0  0.28941501642E+02 -0.61143271035E+02  0.69962978644E+03  0.70289255807E+03  0.00000000000E+00 0. -1.
         22    1    3    3    0    0 -0.31752542137E+02 -0.63743602749E+02  0.16664370737E+03  0.18122250420E+03  0.00000000000E+00 0. -1.
</event>
<event>
 7    1  0.6681656E-006  0.9723721E+02  0.7818608E-02  0.1401737E+00
          2   -1    0    0  502    0  0.00000000000E+00  0.00000000000E+00  0.21846409784E+03  0.21846409784E+03  0.00000000000E+00 0. -1.
          1   -1    0    0  501    0 -0.00000000000E+00 -0.00000000000E+00 -0.25771495730E+03  0.25771495730E+03  0.00000000000E+00 0. -1.
         25    2    1    2    0    0 -0.22820596083E+02  0.12511312837E+03  0.26482781920E+02  0.18027717683E+03  0.12499779299E+03 0.  0.
          2    1    1    2  501    0  0.56744698261E+01 -0.93577846266E+02 -0.16531560851E+03  0.19004805533E+03  0.00000000000E+00 0. -1.
          1    1    1    2  502    0  0.17146126257E+02 -0.31535282105E+02  0.99581967124E+02  0.10585382298E+03  0.00000000000E+00 0. -1.
         22    1    3    3    0    0  0.72587274741E+01  0.48471799632E+02 -0.48474213532E+02  0.68934417105E+02  0.00000000000E+00 0.  1.
         22    1    3    3    0    0 -0.30079323558E+02  0.76641328740E+02  0.74956995452E+02  0.11134275973E+03  0.00000000000E+00 0.  1.
</event>
<event>
 7    1  0.6681656E-006  0.6585077E+02  0.7818608E-02  0.1490492E+00
          2   -1    0    0  502    0  0.00000000000E+00  0.00000000000E+00  0.99510616081E+03  0.99510616081E+03  0.00000000000E+00 0. -1.
          1   -1    0    0  501    0 -0.00000000000E+00 -0.00000000000E+00 -0.56350366473E+03  0.56350366473E+03  0.00000000000E+00 0. -1.
         25    2    1    2    0    0 -0.19547815456E+02  0.53690735829E+02  0.12169554853E+03  0.18357678724E+03  0.12500327227E+03 0.  0.
          2    1    1    2  501    0 -0.26765713455E+02 -0.60741535104E+01 -0.53089867370E+03  0.53160765654E+03  0.00000000000E+00 0. -1.
          1    1    1    2  502    0  0.46313528910E+02 -0.47616582319E+02  0.84080562124E+03  0.84342538175E+03  0.00000000000E+00 0. -1.
         22    1    3    3    0    0 -0.27235135842E+02 -0.22707891492E+02  0.96428922019E+02  0.10274209440E+03  0.00000000000E+00 0.  1.
         22    1    3    3    0    0  0.76873203865E+01  0.76398627322E+02  0.25266626515E+02  0.80834692842E+02  0.00000000000E+00 0.  1.
</event>
<event>
 7    1  0.6681656E-006  0.1489730E+03  0.7818608E-02  0.1297822E+00
          2   -1    0    0  502    0  0.00000000000E+00  0.00000000000E+00  0.18020088739E+03  0.18020088739E+03  0.00000000000E+00 0. -1.
          1   -1    0    0  501    0 -0.00000000000E+00 -0.00000000000E+00 -0.83889167376E+03  0.83889167376E+03  0.00000000000E+00 0. -1.
         25    2    1    2    0    0 -0.70079419609E+02 -0.86855388920E+02 -0.27489509279E+02  0.16980970670E+03  0.12499871892E+03 0.  0.
          2    1    1    2  501    0  0.57741525276E+02  0.14245377856E+03 -0.72414469585E+03  0.74027880105E+03  0.00000000000E+00 0. -1.
          1    1    1    2  502    0  0.12337894333E+02 -0.55598389636E+02  0.92943418759E+02  0.10900405340E+03  0.00000000000E+00 0. -1.
         22    1    3    3    0    0 -0.76185757627E+02 -0.65222938815E+02  0.32758200149E+02  0.10550545526E+03  0.00000000000E+00 0.  1.
         22    1    3    3    0    0  0.61063380180E+01 -0.21632450105E+02 -0.60247709427E+02  0.64304251436E+02  0.00000000000E+00 0.  1.
</event>
<event>
 7    1  0.6681656E-006  0.1600746E+03  0.7818608E-02  0.1215606E+00
          2   -1    0    0  502    0  0.00000000000E+00  0.00000000000E+00  0.20243097666E+04  0.20243097666E+04  0.00000000000E+00 0. -1.
          1   -1    0    0  501    0 -0.00000000000E+00 -0.00000000000E+00 -0.70028318149E+03  0.70028318149E+03  0.00000000000E+00 0. -1.
         25    2    1    2    0    0  0.10716683484E+03 -0.25553737580E+03 -0.17856494049E+03  0.35255466854E+03  0.12500110165E+03 0.  0.
          2    1    1    2  501    0 -0.57125734456E+02  0.10498934733E+03 -0.42318379584E+03  0.43973928372E+03  0.00000000000E+00 0. -1.
          1    1    1    2  502    0 -0.50041100386E+02  0.15054802847E+03  0.19257753215E+04  0.19322989958E+04  0.00000000000E+00 0. -1.
         22    1    3    3    0    0  0.42999300854E+02 -0.14432078045E+03 -0.16508113383E+03  0.22344844661E+03  0.00000000000E+00 0. -1.
         22    1    3    3    0    0  0.64167533988E+02 -0.11121659535E+03 -0.13483806661E+02  0.12910622193E+03  0.00000000000E+00 0. -1.
</event>
<event>
 7    1  0.6681656E-006  0.9256168E+02  0.7818608E-02  0.1436814E+00
          2   -1    0    0  502    0  0.00000000000E+00  0.00000000000E+00  0.13546696034E+03  0.13546696034E+03  0.00000000000E+00 0. -1.
          1   -1    0    0  501    0 -0.00000000000E+00 -0.00000000000E+00 -0.14838014598E+04  0.14838014598E+04  0.00000000000E+00 0. -1.
         25    2    1    2    0    0  0.11990487619E+03 -0.84766827388E+01 -0.43870127008E+02  0.17887946805E+03  0.12499697020E+03 0.  0.
          2    1    1    2  501    0 -0.91916512684E+02  0.17589485903E+01 -0.13677652340E+04  0.13708513685E+04  0.00000000000E+00 0. -1.
          1    1    1    2  502    0 -0.27988363508E+02  0.67177341485E+01  0.63300861604E+02  0.69537583534E+02  0.00000000000E+00 0. -1.
         22    1    3    3    0    0  0.14148444059E+03 -0.19148900712E+02 -0.18605784125E+02  0.14398160483E+03  0.00000000000E+00 0. -1.
         22    1    3    3    0    0 -0.21579564393E+02  0.10672217973E+02 -0.25264342883E+02  0.34897863218E+02  0.00000000000E+00 0. -1.
</event>
<event>
 7    1  0.6681656E-006  0.1057937E+03  0.7818608E-02  0.1408453E+00
          2   -1    0    0  502    0  0.00000000000E+00  0.00000000000E+00  0.29761466715E+03  0.29761466715E+03  0.00000000000E+00 0. -1.
          1   -1    0    0  501    0 -0.00000000000E+00 -0.00000000000E+00 -0.20490156056E+04  0.20490156056E+04  0.00000000000E+00 0. -1.
         25    2    1    2    0    0  0.12588932202E+03 -0.46953633513E+02 -0.10020383809E+04  0.10187050507E+04  0.12500519328E+03 0.  0.
          2    1    1    2  501    0 -0.31295383125E+02  0.17597398120E+00 -0.10287740223E+04  0.10292499312E+04  0.00000000000E+00 0. -1.
          1    1    1    2  502    0 -0.94593938890E+02  0.46777659532E+02  0.27941146478E+03  0.29867529084E+03  0.00000000000E+00 0. -1.
         22    1    3    3    0    0  0.20315062423E+02  0.35935154617E+02 -0.38671376570E+03  0.38891075284E+03  0.00000000000E+00 0.  1.
         22    1    3    3    0    0  0.10557425959E+03 -0.82888788131E+02 -0.61532461524E+03  0.62979429785E+03  0.00000000000E+00 0.  1.
</event>
<event>
 7    1  0.6681656E-006  0.8587191E+02  0.7818608E-02  0.1392600E+00
          2   -1    0    0  502    0  0.00000000000E+00  0.00000000000E+00  0.68322776489E+03  0.68322776489E+03  0.00000000000E+00 0. -1.
          1   -1    0    0  501    0 -0.00000000000E+00 -0.00000000000E+00 -0.57221767396E+03  0.57221767396E+03  0.00000000000E+00 0. -1.
         25    2    1    2    0    0  0.99210338853E+02  0.62612117511E+00  0.15607894971E+03  0.22322166054E+03  0.12499675127E+03 0.  0.
          2    1    1    2  501    0 -0.76847326859E+02 -0.38180852528E+02 -0.53424820803E+03  0.54109558945E+03  0.00000000000E+00 0. -1.
          1    1    1    2  502    0 -0.22363011994E+02  0.37554731353E+02  0.48917934925E+03  0.49112818885E+03  0.00000000000E+00 0. -1.
         22    1    3    3    0    0  0.16017039965E+02  0.91218010106E+01  0.13596770777E+03  0.13721140762E+03  0.00000000000E+00 0. -1.
         22    1    3    3    0    0  0.83193298888E+02 -0.84956798355E+01  0.20111241937E+02  0.86010252924E+02  0.00000000000E+00 0. -1.
</event>
<event>
 7    1  0.6681656E-006  0.7922989E+02  0.7818608E-02  0.1375515E+00
          2   -1    0    0  502    0  0.00000000000E+00  0.00000000000E+00  0.34760980680E+04  0.34760980680E+04  0.00000000000E+00 0. -1.
          1   -1    0    0  501    0 -0.00000000000E+00 -0.00000000000E+00 -0.12326679093E+02  0.12326679093E+02  0.00000000000E+00 0. -1.
         25    2    1    2    0    0 -0.23099360974E+02  0.71186641812E+02  0.14456556072E+04  0.14529788295E+04  0.12500490421E+03 0.  0.
          2    1    1    2  501    0  0.53983900450E+02  0.67963381670E+01  0.87689811369E+02  0.10319861791E+03  0.00000000000E+00 0. -1.
          1    1    1    2  502    0 -0.30884539476E+02 -0.77982979979E+02  0.19304259703E+04  0.19322472996E+04  0.00000000000E+00 0. -1.
         22    1    3    3    0    0  0.48499715902E+02  0.51393354087E+02  0.63152242974E+03  0.63546367209E+03  0.00000000000E+00 0. -1.
         22    1    3    3    0    0 -0.71599076876E+02  0.19793287725E+02  0.81413317744E+03  0.81751515745E+03  0.00000000000E+00 0. -1.
</event>
<event>
 7    1  0.6681656E-006  0.3076084E+02  0.7818608E-02  0.1621829E+00
          2   -1    0    0  502    0  0.00000000000E+00  0.00000000000E+00  0.61926270558E+02  0.61926270558E+02  0.00000000000E+00 0. -1.
          1   -1    0    0  501    0 -0.00000000000E+00 -0.00000000000E+00 -0.29366419912E+03  0.29366419912E+03  0.00000000000E+00 0. -1.
         25    2    1    2    0    0 -0.19620740959E+02 -0.11170203324E+01 -0.25348548332E+02  0.12904687962E+03  0.12499730807E+03 0.  0.
          2    1    1    2  501    0 -0.93804425773E+01 -0.23614719087E+02 -0.17592376639E+03  0.17774931573E+03  0.00000000000E+00 0. -1.
          1    1    1    2  502    0  0.29001183536E+02  0.24731739419E+02 -0.30465613835E+02  0.48794274331E+02  0.00000000000E+00 0. -1.
         22    1    3    3    0    0 -0.43806158758E+02  0.51537983605E+02 -0.21503452253E+02  0.70975642005E+02  0.00000000000E+00 0.  1.
         22    1    3    3    0    0  0.24185417799E+02 -0.52655003938E+02 -0.38450960796E+01  0.58071237611E+02  0.00000000000E+00 0.  1.
</event>
<event>
 7    1  0.6681656E-006  0.2074770E+03  0.7818608E-02  0.1329534E+00
          2   -1    0    0  502    0  0.00000000000E+00  0.00000000000E+00  0.14793907543E+04  0.14793907543E+04  0.00000000000E+00 0. -1.
          1   -1    0    0  501    0 -0.00000000000E+00 -0.00000000000E+00 -0.14930080682E+04  0.14930080682E+04  0.00000000000E+00 0. -1.
         25    2    1    2    0    0 -0.21678972881E+03  0.81586449470E+02 -0.32672370492E+03  0.41955657208E+03  0.12500081026E+03 0.  0.
          2    1    1    2  501    0  0.18609444185E+03 -0.80460988146E+02 -0.11105245813E+04  0.11288799571E+04  0.00000000000E+00 0. -1.
          1    1    1    2  502    0  0.30695286962E+02 -0.11254613241E+01  0.14236309723E+04  0.14239622933E+04  0.00000000000E+00 0. -1.
         22    1    3    3    0    0 -0.11698538811E+03 -0.21910955578E+02 -0.13636164932E+03  0.18099770830E+03  0.00000000000E+00 0.  1.
         22    1    3    3    0    0 -0.99804340694E+02  0.10349740505E+03 -0.19036205561E+03  0.23855886378E+03  0.00000000000E+00 0.  1.
</event>
<event>
 7    1  0.6681656E-006  0.6210903E+02  0.7818608E-02  0.1404889E+00
          2   -1    0    0  502    0  0.00000000000E+00  0.00000000000E+00  0.70937071192E+03  0.70937071192E+03  0.00000000000E+00 0. -1.
          1   -1    0    0  501    0 -0.00000000000E+00 -0.00000000000E+00 -0.26619263123E+04  0.26619263123E+04  0.00000000000E+00 0. -1.
         25    2    1    2    0    0  0.66742959907E+02 -0.78006742435E+01 -0.21778952495E+03  0.25994259712E+03  0.12498961318E+03 0.  0.
          2    1    1    2  501    0 -0.45537873884E+02 -0.42750473034E+02 -0.24215654194E+04  0.24223708183E+04  0.00000000000E+00 0. -1.
          1    1    1    2  502    0 -0.21205086023E+02  0.50551147278E+02  0.68679934403E+03  0.68898360875E+03  0.00000000000E+00 0. -1.
         22    1    3    3    0    0  0.57397960858E+02  0.37753957178E+02 -0.47767645503E+02  0.83675773974E+02  0.00000000000E+00 0. -1.
         22    1    3    3    0    0  0.93449990487E+01 -0.45554631421E+02 -0.17002187944E+03  0.17626682314E+03  0.00000000000E+00 0. -1.
</event>
<event>
 7    1  0.6681656E-006  0.1331540E+03  0.7818608E-02  0.1236466E+00
          2   -1    0    0  502    0  0.00000000000E+00  0.00000000000E+00  0.26468925597E+04  0.26468925597E+04  0.00000000000E+00 0. -1.
          1   -1    0    0  501    0 -0.00000000000E+00 -0.00000000000E+00 -0.78079679251E+03  0.78079679251E+03  0.00000000000E+00 0. -1.
         25    2    1    2    0    0 -0.25781393803E+02 -0.34879229499E+02 -0.68367187125E+02  0.14893063682E+03  0.12500008557E+03 0.  0.
          2    1    1    2  501    0  0.30809266437E+02  0.15045161572E+03 -0.66207099266E+03  0.67964909982E+03  0.00000000000E+00 0. -1.
          1    1    1    2  502    0 -0.50278726337E+01 -0.11557238622E+03  0.25965339470E+04  0.25991096156E+04  0.00000000000E+00 0. -1.
         22    1    3    3    0    0  0.36717992481E+02 -0.26318496652E+02 -0.72815389862E+02  0.85691045265E+02  0.00000000000E+00 0. -1.
         22    1    3    3    0    0 -0.62499386284E+02 -0.85607328472E+01  0.44482027371E+01  0.63239591557E+02  0.00000000000E+00 0. -1.
</event>
<event>
 7    1  0.6681656E-006  0.2302022E+02  0.7818608E-02  0.1712240E+00
          2   -1    0    0  502    0  0.00000000000E+00  0.00000000000E+00  0.42746999029E+03  0.42746999029E+03  0.00000000000E+00 0. -1.
          1   -1    0    0  501    0 -0.00000000000E+00 -0.00000000000E+00 -0.24980930420E+03  0.24980930420E+03  0.00000000000E+00 0. -1.
         25    2    1    2    0    0 -0.22710575904E+01 -0.87934787613E+01  0.28625639756E+03  0.31249119157E+03  0.12500214675E+03 0.  0.
          2    1    1    2  501    0 -0.17273487180E+02  0.15270746516E+02 -0.23529742253E+03  0.23642429255E+03  0.00000000000E+00 0. -1.
          1    1    1    2  502    0  0.19544544770E+02 -0.64772677544E+01  0.12670171106E+03  0.12836381037E+03  0.00000000000E+00 0. -1.
         22    1    3    3    0    0 -0.24775035057E+02 -0.54114628945E+02  0.77648058838E+02  0.97833616253E+02  0.00000000000E+00 0.  1.
         22    1    3    3    0    0  0.22503977467E+02  0.45321150183E+02  0.20860833872E+03  0.21465757532E+03  0.00000000000E+00 0.  1.
</event>
<event>
 7    1  0.6681656E-006  0.1321893E+03  0.7818608E-02  0.1267575E+00
          2   -1    0    0  502    0  0.00000000000E+00  0.00000000000E+00  0.23877365033E+04  0.23877365033E+04  0.00000000000E+00 0. -1.
          1   -1    0    0  501    0 -0.00000000000E+00 -0.00000000000E+00 -0.14534068480E+04  0.14534068480E+04  0.00000000000E+00 0. -1.
         25    2    1    2    0    0 -0.24551782616E+02  0.86138652384E+02  0.29029201414E+02  0.15649631872E+03  0.12500298306E+03 0.  0.
          2    1    1    2  501    0  0.10961805993E+03 -0.77693514202E+02 -0.13856266554E+04  0.13921255796E+04  0.00000000000E+00 0. -1.
          1    1    1    2  502    0 -0.85066277318E+02 -0.84451381824E+01  0.22909271093E+04  0.22925214529E+04  0.00000000000E+00 0. -1.
         22    1    3    3    0    0  0.39294392269E+02 -0.75349822396E+01  0.12612497839E+02  0.41951165930E+02  0.00000000000E+00 0.  1.
         22    1    3    3    0    0 -0.63846174885E+02  0.93673634624E+02  0.16416703575E+02  0.11454515279E+03  0.00000000000E+00 0.  1.
</event>
<event>
 7    1  0.6681656E-006  0.6439235E+02  0.7818608E-02  0.1414059E+00
          2   -1    0    0  502    0  0.00000000000E+00  0.00000000000E+00  0.24007258758E+02  0.24007258758E+02  0.00000000000E+00 0. -1.
          1   -1    0    0  501    0 -0.00000000000E+00 -0.00000000000E+00 -0.14759295620E+04  0.14759295620E+04  0.00000000000E+00 0. -1.
         25    2    1    2    0    0 -0.40705835432E+02  0.72097418635E+02 -0.72823392456E+03  0.74350875032E+03  0.12500244039E+03 0.  0.
          2    1    1    2  501    0  0.48478092606E+02 -0.85193570047E+01 -0.67286420673E+03  0.67466209735E+03  0.00000000000E+00 0. -1.
          1    1    1    2  502    0 -0.77722571744E+01 -0.63578061630E+02 -0.50824171979E+02  0.81765973116E+02  0.00000000000E+00 0. -1.
         22    1    3    3    0    0 -0.21056909609E+02  0.54976949420E+02 -0.70818529779E+03  0.71062808445E+03  0.00000000000E+00 0.  1.
         22    1    3    3    0    0 -0.19648925823E+02  0.17120469215E+02 -0.20048626773E+02  0.32880665863E+02  0.00000000000E+00 0.  1.
</event>
<event>
 7    1  0.6681656E-006  0.2420521E+03  0.7818608E-02  0.1128119E+00
          2   -1    0    0  502    0  0.00000000000E+00  0.00000000000E+00  0.87391306468E+03  0.87391306468E+03  0.00000000000E+00 0. -1.
          1   -1    0    0  501    0 -0.00000000000E+00 -0.00000000000E+00 -0.34699293837E+03  0.34699293837E+03  0.00000000000E+00 0. -1.
         25    2    1    2    0    0  0.27254494283E+02  0.11241646196E+03  0.14674883700E+03  0.22481325476E+03  0.12500203990E+03 0.  0.
          2    1    1    2  501    0 -0.99352624045E+02  0.22072214520E+03 -0.20611904941E+03  0.31792180142E+03  0.00000000000E+00 0. -1.
          1    1    1    2  502    0  0.72098129762E+02 -0.33313860716E+03  0.58629033872E+03  0.67817094687E+03  0.00000000000E+00 0. -1.
         22    1    3    3    0    0 -0.35073386130E+02  0.41118282987E+00  0.81134734627E+01  0.36001943524E+02  0.00000000000E+00 0.  1.
         22    1    3    3    0    0  0.62327880412E+02  0.11200527913E+03  0.13863536353E+03  0.18881131124E+03  0.00000000000E+00 0.  1.
</event>
<event>
 7    1  0.6681656E-006  0.1785127E+03  0.7818608E-02  0.1291659E+00
          2   -1    0    0  502    0  0.00000000000E+00  0.00000000000E+00  0.19379929563E+03  0.19379929563E+03  0.00000000000E+00 0. -1.
          1   -1    0    0  501    0 -0.00000000000E+00 -0.00000000000E+00 -0.25925536696E+04  0.25925536696E+04  0.00000000000E+00 0. -1.
         25    2    1    2    0    0 -0.11748098408E+03 -0.18985541589E+03 -0.45472905745E+03  0.52177558526E+03  0.12499754045E+03 0.  0.
          2    1    1    2  501    0  0.34376737615E+02  0.36759534194E+02 -0.20565704999E+04  0.20571862444E+04  0.00000000000E+00 0. -1.
          1    1    1    2  502    0  0.83104246467E+02  0.15309588170E+03  0.11254518338E+03  0.20739113548E+03  0.00000000000E+00 0. -1.
         22    1    3    3    0    0 -0.72539259903E+02 -0.19728587311E+03 -0.37977721357E+03  0.43406726656E+03  0.00000000000E+00 0. -1.
         22    1    3    3    0    0 -0.44941724179E+02  0.74304572211E+01 -0.74951843887E+02  0.87708318698E+02  0.00000000000E+00 0. -1.
</event>
<event>
 7    1  0.6681656E-006  0.7999414E+02  0.7818608E-02  0.1397942E+00
          2   -1    0    0  502    0  0.00000000000E+00  0.00000000000E+00  0.63692595243E+03  0.63692595243E+03  0.00000000000E+00 0. -1.
          1   -1    0    0  501    0 -0.00000000000E+00 -0.00000000000E+00 -0.25851281556E+03  0.25851281556E+03  0.00000000000E+00 0. -1.
         25    2    1    2    0    0 -0.12121355503E+03  0.22395062158E+02  0.53066383316E+03  0.55894965646E+03  0.12500539949E+03 0.  0.
          2    1    1    2  501    0  0.76249564248E+02 -0.22415163459E+02 -0.23183595339E+03  0.24508028253E+03  0.00000000000E+00 0. -1.
          1    1    1    2  502    0  0.44963990782E+02  0.20101300914E-01  0.79585257105E+02  0.91408829003E+02  0.00000000000E+00 0. -1.
         22    1    3    3    0    0 -0.72929309676E+02 -0.39629625199E+02  0.16229359487E+03  0.18228659396E+03  0.00000000000E+00 0. -1.
         22    1    3    3    0    0 -0.48284245354E+02  0.62024687357E+02  0.36837023829E+03  0.37666306249E+03  0.00000000000E+00 0. -1.
</event>
<event>
 7    1  0.6681656E-006  0.1224940E+03  0.7818608E-02  0.1302197E+00
          2   -1    0    0  502    0  0.00000000000E+00  0.00000000000E+00  0.38513812050E+04  0.38513812050E+04  0.00000000000E+00 0. -1.
          1   -1    0    0  501    0 -0.00000000000E+00 -0.00000000000E+00 -0.21065779972E+04  0.21065779972E+04  0.00000000000E+00 0. -1.
         25    2    1    2    0    0 -0.61458141529E+02  0.34097090522E+01  0.15627239699E+02  0.14020663804E+03  0.12499984582E+03 0.  0.
          2    1    1    2  501    0  0.12136055619E+03  0.25524598946E+02 -0.20421138468E+04  0.20458760601E+04  0.00000000000E+00 0. -1.
          1    1    1    2  502    0 -0.59902414657E+02 -0.28934307998E+02  0.37712898149E+04  0.37718765040E+04  0.00000000000E+00 0. -1.
         22    1    3    3    0    0 -0.47433884755E+01 -0.53693967732E+02  0.24551609016E+02  0.59231101714E+02  0.00000000000E+00 0.  1.
         22    1    3    3    0    0 -0.56714753054E+02  0.57103676784E+02 -0.89243693169E+01  0.80975536330E+02  0.00000000000E+00 0.  1.
</event>
<event>
 7    1  0.6681656E-006  0.7807146E+02  0.7818608E-02  0.1361835E+00
          2   -1    0    0  502    0  0.00000000000E+00  0.00000000000E+00  0.10622975656E+04  0.10622975656E+04  0.00000000000E+00 0. -1.
          1   -1    0    0  501    0 -0.00000000000E+00 -0.00000000000E+00 -0.83885750675E+03  0.83885750675E+03  0.00000000000E+00 0. -1.
         25    2    1    2    0    0 -0.37651088509E+02  0.83057009470E+02  0.19921243112E+03  0.25224077900E+03  0.12499498627E+03 0.  0.
          2    1    1    2  501    0  0.71592599879E+02 -0.31349195565E+02 -0.80931499263E+03  0.81307996515E+03  0.00000000000E+00 0. -1.
          1    1    1    2  502    0 -0.33941511371E+02 -0.51707813905E+02  0.83354262041E+03  0.83583432824E+03  0.00000000000E+00 0. -1.
         22    1    3    3    0    0  0.41785549937E+02  0.18417192691E+02  0.30620947022E+02  0.54980610825E+02  0.00000000000E+00 0. -1.
         22    1    3    3    0    0 -0.79436638446E+02  0.64639816780E+02  0.16859148409E+03  0.19726016818E+03  0.00000000000E+00 0. -1.
</event>
<event>
 7    1  0.6681656E-006  0.1037604E+03  0.7818608E-02  0.1381628E+00
          2   -1    0    0  502    0  0.00000000000E+00  0.00000000000E+00  0.10388215913E+04  0.10388215913E+04  0.00000000000E+00 0. -1.
          1   -1    0    0  501    0 -0.00000000000E+00 -0.00000000000E+00 -0.76303664405E+02  0.76303664405E+02  0.00000000000E+00 0. -1.
         25    2    1    2    0    0 -0.83973152721E+02  0.73217910400E+02  0.23021557984E+03  0.28466932442E+03  0.12500023313E+03 0.  0.
          2    1    1    2  501    0 -0.13185658094E+02 -0.37257672236E+02 -0.37042081192E+02  0.54167439471E+02  0.00000000000E+00 0. -1.
          1    1    1    2  502    0  0.97158810814E+02 -0.35960238165E+02  0.76934442823E+03  0.77628849180E+03  0.00000000000E+00 0. -1.
         22    1    3    3    0    0 -0.69921735530E+02 -0.23933795185E+01  0.42621230057E+02  0.81922808891E+02  0.00000000000E+00 0.  1.
         22    1    3    3    0    0 -0.14051417191E+02  0.75611289919E+02  0.18759434978E+03  0.20274651553E+03  0.00000000000E+00 0.  1.
</event>
<event>
 7    1  0.6681656E-006  0.9234960E+02  0.7818608E-02  0.1393531E+00
          2   -1    0    0  502    0  0.00000000000E+00  0.00000000000E+00  0.86718070705E+03  0.86718070705E+03  0.00000000000E+00 0. -1.
          1   -1    0    0  501    0 -0.00000000000E+00 -0.00000000000E+00 -0.56355635448E+03  0.56355635448E+03  0.00000000000E+00 0. -1.
         25    2    1    2    0    0 -0.48593225880E+02 -0.11624152409E+03 -0.10593147635E+03  0.20668801552E+03  0.12500025822E+03 0.  0.
          2    1    1    2  501    0  0.46824223782E+02  0.75939101031E+02 -0.40185346566E+03  0.41163753821E+03  0.00000000000E+00 0. -1.
          1    1    1    2  502    0  0.17690020976E+01  0.40302423060E+02  0.81140929458E+03  0.81241150780E+03  0.00000000000E+00 0. -1.
         22    1    3    3    0    0 -0.11447950748E+02 -0.68227454931E+02  0.15528622436E+02  0.70902604307E+02  0.00000000000E+00 0. -1.
         22    1    3    3    0    0 -0.37145275132E+02 -0.48014069160E+02 -0.12146009879E+03  0.13578541122E+03  0.00000000000E+00 0. -1.
</event>
<event>
 7    1  0.6681656E-006  0.1281962E+03  0.7818608E-02  0.1402148E+00
          2   -1    0    0  502    0  0.00000000000E+00  0.00000000000E+00  0.57955445675E+03  0.57955445675E+03  0.00000000000E+00 0. -1.
          1   -1    0    0  501    0 -0.00000000000E+00 -0.00000000000E+00 -0.21220383437E+04  0.21220383437E+04  0.00000000000E+00 0. -1.
         25    2    1    2    0    0 -0.90252622291E+02 -0.50867914139E+02 -0.12569792977E+03  0.20532193676E+03  0.12499619054E+03 0.  0.
          2    1    1    2  501    0  0.10818716771E+03  0.71235618748E+02 -0.19540415705E+04  0.19583302673E+04  0.00000000000E+00 0. -1.
          1    1    1    2  502    0 -0.17934545417E+02 -0.20367704608E+02  0.53725561326E+03  0.53794059643E+03  0.00000000000E+00 0. -1.
         22    1    3    3    0    0 -0.11888308963E+03 -0.36012030693E+02 -0.11971617707E+03  0.17251671921E+03  0.00000000000E+00 0. -1.
         22    1    3    3    0    0  0.28630467343E+02 -0.14855883446E+02 -0.59817526998E+01  0.32805217552E+02  0.00000000000E+00 0. -1.
</event>
<event>
 7    1  0.6681656E-006  0.8989900E+02  0.7818608E-02  0.1460095E+00
          2   -1    0    0  502    0  0.00000000000E+00  0.00000000000E+00  0.43540227400E+03  0.43540227400E+03  0.00000000000E+00 0. -1.
          1   -1    0    0  501    0 -0.00000000000E+00 -0.00000000000E+00 -0.10578964182E+04  0.10578964182E+04  0.00000000000E+00 0. -1.
         25    2    1    2    0    0 -0.58670667220E+02 -0.33612572527E+02  0.11527725840E+03  0.18299073963E+03  0.12499884905E+03 0.  0.
          2    1    1    2  501    0  0.71469187619E+02  0.55035906049E+02 -0.10215045052E+04  0.10254795219E+04  0.00000000000E+00 0. -1.
          1    1    1    2  502    0 -0.12798520399E+02 -0.21423333522E+02  0.28373310265E+03  0.28482843061E+03  0.00000000000E+00 0. -1.
         22    1    3    3    0    0  0.25610765008E+01 -0.56758620136E+02  0.80815560356E+01  0.57388253332E+02  0.00000000000E+00 0.  1.
         22    1    3    3    0    0 -0.61231743721E+02  0.23146047609E+02  0.10719570237E+03  0.12560248630E+03  0.00000000000E+00 0.  1.
</event>
<event>
 7    1  0.6681656E-006  0.2834521E+03  0.7818608E-02  0.1210963E+00
          2   -1    0    0  502    0  0.00000000000E+00  0.00000000000E+00  0.15711932145E+04  0.15711932145E+04  0.00000000000E+00 0. -1.
          1   -1    0    0  501    0 -0.00000000000E+00 -0.00000000000E+00 -0.63483450564E+03  0.63483450564E+03  0.00000000000E+00 0. -1.
         25    2    1    2    0    0  0.20841929006E+03  0.23423441459E+03 -0.94171855515E+02  0.35042565895E+03  0.12500177052E+03 0.  0.
          2    1    1    2  501    0 -0.21974420657E+03 -0.16423435454E+03 -0.36592803788E+03  0.45734425594E+03  0.00000000000E+00 0. -1.
          1    1    1    2  502    0  0.11324916513E+02 -0.70000060045E+02  0.13964586022E+04  0.13982578052E+04  0.00000000000E+00 0. -1.
         22    1    3    3    0    0  0.14922035499E+02  0.21584360439E+02  0.27698097073E+02  0.38154113021E+02  0.00000000000E+00 0.  1.
         22    1    3    3    0    0  0.19349725456E+03  0.21265005415E+03 -0.12186995259E+03  0.31227154593E+03  0.00000000000E+00 0.  1.
</event>
<event>
 7    1  0.6681656E-006  0.1128261E+03  0.7818608E-02  0.1430307E+00
          2   -1    0    0  502    0  0.00000000000E+00  0.00000000000E+00  0.18695407668E+03  0.18695407668E+03  0.00000000000E+00 0. -1.
          1   -1    0    0  501    0 -0.00000000000E+00 -0.00000000000E+00 -0.22124534441E+04  0.22124534441E+04  0.00000000000E+00 0. -1.
         25    2    1    2    0    0 -0.75047469808E+02 -0.11462743331E+03 -0.80938420951E+03  0.83036097734E+03  0.12499993159E+03 0.  0.
          2    1    1    2  501    0  0.11934951452E+02  0.21740885776E+02 -0.13745914343E+04  0.13748151586E+04  0.00000000000E+00 0. -1.
          1    1    1    2  502    0  0.63112518356E+02  0.92886547532E+02  0.15847627635E+03  0.19423138483E+03  0.00000000000E+00 0. -1.
         22    1    3    3    0    0  0.59528317387E+01 -0.17326854139E+02 -0.43039199683E+03  0.43078176263E+03  0.00000000000E+00 0. -1.
         22    1    3    3    0    0 -0.81000301546E+02 -0.97300579169E+02 -0.37899221268E+03  0.39957921471E+03  0.00000000000E+00 0. -1.
</event>
<event>
 7    1  0.6681656E-006  0.7318559E+02  0.7818608E-02  0.1354871E+00
          2   -1    0    0  502    0  0.00000000000E+00  0.00000000000E+00  0.19962031825E+03  0.19962031825E+03  0.00000000000E+00 0. -1.
          1   -1    0    0  501    0 -0.00000000000E+00 -0.00000000000E+00 -0.10330213398E+04  0.10330213398E+04  0.00000000000E+00 0. -1.
         25    2    1    2    0    0 -0.24866041397E+02  0.55488992053E+02 -0.88730865242E+01  0.13929235090E+03  0.12500511630E+03 0.  0.
          2    1    1    2  501    0  0.73123022209E+02  0.30255211307E+01 -0.94671287856E+03  0.94953746877E+03  0.00000000000E+00 0. -1.
          1    1    1    2  502    0 -0.48256980812E+02 -0.58514513183E+02  0.12218494350E+03  0.14381183841E+03  0.00000000000E+00 0. -1.
         22    1    3    3    0    0 -0.47568816356E+02 -0.12562210558E+02 -0.37695805365E+02  0.61980441800E+02  0.00000000000E+00 0. -1.
         22    1    3    3    0    0  0.22702774959E+02  0.68051202610E+02  0.28822718841E+02  0.77311909102E+02  0.00000000000E+00 0. -1.
</event>
<event>
 7    1  0.6681656E-006  0.9252165E+02  0.7818608E-02  0.1401762E+00
          2   -1    0    0  502    0  0.00000000000E+00  0.00000000000E+00  0.80037810294E+03  0.80037810294E+03  0.00000000000E+00 0. -1.
          1   -1    0    0  501    0 -0.00000000000E+00 -0.00000000000E+00 -0.15867710030E+04  0.15867710030E+04  0.00000000000E+00 0. -1.
         25    2    1    2    0    0  0.12559064909E+03  0.20970863581E+02 -0.11489257261E+03  0.21221841180E+03  0.12499425110E+03 0.  0.
          2    1    1    2  501    0 -0.33744325824E+02 -0.16849991587E+02 -0.14201530398E+04  0.14206538137E+04  0.00000000000E+00 0. -1.
          1    1    1    2  502    0 -0.91846323270E+02 -0.41208719933E+01  0.74865271238E+03  0.75427688048E+03  0.00000000000E+00 0. -1.
         22    1    3    3    0    0  0.90179175962E+02  0.37447248594E+02 -0.74868411757E+01  0.97931777249E+02  0.00000000000E+00 0. -1.
         22    1    3    3    0    0  0.35411473132E+02 -0.16476385013E+02 -0.10740573144E+03  0.11428663455E+03  0.00000000000E+00 0. -1.
</event>
<event>
 7    1  0.6681656E-006  0.4910103E+02  0.7818608E-02  0.1469863E+00
          2   -1    0    0  502    0  0.00000000000E+00  0.00000000000E+00  0.19877965219E+04  0.19877965219E+04  0.00000000000E+00 0. -1.
          1   -1    0    0  501    0 -0.00000000000E+00 -0.00000000000E+00 -0.33676030566E+03  0.33676030566E+03  0.00000000000E+00 0. -1.
         25    2    1    2    0    0 -0.58151747105E+01 -0.38649736219E+02 -0.15855777319E+03  0.20565276968E+03  0.12499950349E+03 0.  0.
          2    1    1    2  501    0  0.42209327836E+02  0.56205023722E+01 -0.15141023097E+03  0.15728405974E+03  0.00000000000E+00 0. -1.
          1    1    1    2  502    0 -0.36394153126E+02  0.33029233847E+02  0.19610042204E+04  0.19616199982E+04  0.00000000000E+00 0. -1.
         22    1    3    3    0    0  0.92405933388E-01 -0.84556730817E+02 -0.98124607663E+02  0.12953103062E+03  0.00000000000E+00 0. -1.
         22    1    3    3    0    0 -0.59075806439E+01  0.45906994598E+02 -0.60433165524E+02  0.76121739058E+02  0.00000000000E+00 0. -1.
</event>
<event>
 7    1  0.6681656E-006  0.6710754E+02  0.7818608E-02  0.1390398E+00
          2   -1    0    0  502    0  0.00000000000E+00  0.00000000000E+00  0.47939091442E+03  0.47939091442E+03  0.00000000000E+00 0. -1.
          1   -1    0    0  501    0 -0.00000000000E+00 -0.00000000000E+00 -0.87727995225E+03  0.87727995225E+03  0.00000000000E+00 0. -1.
         25    2    1    2    0    0  0.12101559227E+03 -0.22315076077E+02 -0.94451634958E+02  0.19922052731E+03  0.12499988385E+03 0.  0.
          2    1    1    2  501    0 -0.56002136972E+02  0.10217387406E+02 -0.72676381017E+03  0.72898989713E+03  0.00000000000E+00 0. -1.
          1    1    1    2  502    0 -0.65013455294E+02  0.12097688672E+02  0.42332640729E+03  0.42846044223E+03  0.00000000000E+00 0. -1.
         22    1    3    3    0    0 -0.12118404641E+02 -0.36238971276E+02 -0.57573891754E+01  0.38642803992E+02  0.00000000000E+00 0. -1.
         22    1    3    3    0    0  0.13313399691E+03  0.13923895199E+02 -0.88694245783E+02  0.16057772331E+03  0.00000000000E+00 0. -1.
</event>
<event>
 7    1  0.6681656E-006  0.1353165E+03  0.7818608E-02  0.1308306E+00
          2   -1    0    0  502    0  0.00000000000E+00  0.00000000000E+00  0.68046072181E+03  0.68046072181E+03  0.00000000000E+00 0. -1.
          1   -1    0    0  501    0 -0.00000000000E+00 -0.00000000000E+00 -0.42501791758E+03  0.42501791758E+03  0.00000000000E+00 0. -1.
         25    2    1    2    0    0 -0.89054913252E+02 -0.48619973408E+02  0.73519279227E+02  0.17698815385E+03  0.12500017118E+03 0.  0.
          2    1    1    2  501    0  0.91203370271E+02  0.10552909249E+03 -0.35870617233E+03  0.38486953916E+03  0.00000000000E+00 0. -1.
          1    1    1    2  502    0 -0.21484570193E+01 -0.56909119082E+02  0.54062969733E+03  0.54362094638E+03  0.00000000000E+00 0. -1.
         22    1    3    3    0    0 -0.38446064893E+02 -0.86815771123E+02  0.59504309524E+02  0.11205284857E+03  0.00000000000E+00 0.  1.
         22    1    3    3    0    0 -0.50608848358E+02  0.38195797714E+02  0.14014969704E+02  0.64935305274E+02  0.00000000000E+00 0.  1.
</event>
<event>
 7    1  0.6681656E-006  0.5856446E+02  0.7818608E-02  0.1540658E+00
          2   -1    0    0  502    0  0.00000000000E+00  0.00000000000E+00  0.55164028598E+03  0.55164028598E+03  0.00000000000E+00 0. -1.
          1   -1    0    0  501    0 -0.00000000000E+00 -0.00000000000E+00 -0.88777120795E+02  0.88777120795E+02  0.00000000000E+00 0. -1.
         25    2    1    2    0    0  0.80543068806E+01  0.69009425038E+02  0.87077820179E+02  0.16743485429E+03  0.12499884424E+03 0.  0.
          2    1    1    2  501    0  0.15368559520E+02 -0.15769656111E+02 -0.43991731401E+02  0.49194990672E+02  0.00000000000E+00 0. -1.
          1    1    1    2  502    0 -0.23422866401E+02 -0.53239768927E+02  0.41977707641E+03  0.42378756181E+03  0.00000000000E+00 0. -1.
         22    1    3    3    0    0  0.38639444274E+02 -0.22361407384E+01 -0.13007449233E+02  0.40831369249E+02  0.00000000000E+00 0. -1.
         22    1    3    3    0    0 -0.30585137394E+02  0.71245565777E+02  0.10008526941E+03  0.12660348505E+03  0.00000000000E+00 0. -1.
</event>
<event>
 7    1  0.6681656E-006  0.8937768E+02  0.7818608E-02  0.1411582E+00
          2   -1    0    0  502    0  0.00000000000E+00  0.00000000000E+00  0.43453071665E+02  0.43453071665E+02  0.00000000000E+00 0. -1.
          1   -1    0    0  501    0 -0.00000000000E+00 -0.00000000000E+00 -0.16634416123E+04  0.16634416123E+04  0.00000000000E+00 0. -1.
         25    2    1    2    0    0  0.14173148436E+02  0.11709823483E+03 -0.32342669971E+03  0.36625535239E+03  0.12500111334E+03 0.  0.
          2    1    1    2  501    0  0.31644019853E+01 -0.36011765449E+02 -0.12393985148E+04  0.12399256184E+04  0.00000000000E+00 0. -1.
          1    1    1    2  502    0 -0.17337550421E+02 -0.81086469376E+02 -0.57163326184E+02  0.10071371322E+03  0.00000000000E+00 0. -1.
         22    1    3    3    0    0 -0.67214556307E+01  0.84412071568E+02 -0.31549169054E+03  0.32665820454E+03  0.00000000000E+00 0. -1.
         22    1    3    3    0    0  0.20894604067E+02  0.32686163258E+02 -0.79350091647E+01  0.39597147853E+02  0.00000000000E+00 0. -1.
</event>
<event>
 7    1  0.6681656E-006  0.6202429E+02  0.7818608E-02  0.1413337E+00
          2   -1    0    0  502    0  0.00000000000E+00  0.00000000000E+00  0.30369590590E+03  0.30369590590E+03  0.00000000000E+00 0. -1.
          1   -1    0    0  501    0 -0.00000000000E+00 -0.00000000000E+00 -0.60509552288E+03  0.60509552288E+03  0.00000000000E+00 0. -1.
         25    2    1    2    0    0  0.51453860664E+02  0.76189007026E+01 -0.12109056829E+03  0.18163226749E+03  0.12498722911E+03 0.  0.
          2    1    1    2  501    0 -0.32450255292E+02 -0.55363077274E+02 -0.44901813881E+03  0.45358061949E+03  0.00000000000E+00 0. -1.
          1    1    1    2  502    0 -0.19003605371E+02  0.47744176572E+02  0.26870909013E+03  0.27357854180E+03  0.00000000000E+00 0. -1.
         22    1    3    3    0    0 -0.82919414620E+01  0.77816970634E+01  0.22993705246E+02  0.25651931376E+02  0.00000000000E+00 0. -1.
         22    1    3    3    0    0  0.59745802126E+02 -0.16279636086E+00 -0.14408427354E+03  0.15598033612E+03  0.00000000000E+00 0. -1.
</event>
<event>
 7    1  0.6681656E-006  0.7329208E+02  0.7818608E-02  0.1468332E+00
          2   -1    0    0  502    0  0.00000000000E+00  0.00000000000E+00  0.20836762353E+04  0.20836762353E+04  0.00000000000E+00 0. -1.
          1   -1    0    0  501    0 -0.00000000000E+00 -0.00000000000E+00 -0.31119502991E+03  0.31119502991E+03  0.00000000000E+00 0. -1.
         25    2    1    2    0    0 -0.61738357583E+02 -0.80448684857E+02 -0.81974294837E+02  0.18062847060E+03  0.12499297454E+03 0.  0.
          2    1    1    2  501    0  0.21198902247E+02  0.19556854499E+02 -0.17807536465E+03  0.18039595203E+03  0.00000000000E+00 0. -1.
          1    1    1    2  502    0  0.40539455336E+02  0.60891830358E+02  0.20325308649E+04  0.20338468426E+04  0.00000000000E+00 0. -1.
         22    1    3    3    0    0 -0.66733591713E+02 -0.49955399744E+02  0.96662242021E+01  0.83918711363E+02  0.00000000000E+00 0. -1.
         22    1    3    3    0    0  0.49952341306E+01 -0.30493285113E+02 -0.91640519039E+02  0.96709759232E+02  0.00000000000E+00 0. -1.
</event>
<event>
 7    1  0.6681656E-006  0.5545791E+02  0.7818608E-02  0.1489940E+00
          2   -1    0    0  502    0  0.00000000000E+00  0.00000000000E+00  0.17172687084E+03  0.17172687084E+03  0.00000000000E+00 0. -1.
          1   -1    0    0  501    0 -0.00000000000E+00 -0.00000000000E+00 -0.47552970395E+03  0.47552970395E+03  0.00000000000E+00 0. -1.
         25    2    1    2    0    0 -0.52946374447E+02  0.66817885717E+02  0.69290307372E+02  0.16641662678E+03  0.12500159420E+03 0.  0.
          2    1    1    2  501    0  0.41450981104E+02 -0.36188596744E+02 -0.42003423697E+03  0.42362313274E+03  0.00000000000E+00 0. -1.
          1    1    1    2  502    0  0.11495393342E+02 -0.30629288973E+02  0.46941096481E+02  0.57216815272E+02  0.00000000000E+00 0. -1.
         22    1    3    3    0    0  0.21470964932E+01  0.89028337700E+02  0.25546667989E+02  0.92646031660E+02  0.00000000000E+00 0. -1.
         22    1    3    3    0    0 -0.55093470940E+02 -0.22210451983E+02  0.43743639382E+02  0.73770595117E+02  0.00000000000E+00 0. -1.
</event>
<event>
 7    1  0.6681656E-006  0.1786719E+03  0.7818608E-02  0.1294768E+00
          2   -1    0    0  502    0  0.00000000000E+00  0.00000000000E+00  0.19850502988E+04  0.19850502988E+04  0.00000000000E+00 0. -1.
          1   -1    0    0  501    0 -0.00000000000E+00 -0.00000000000E+00 -0.49068394424E+03  0.49068394424E+03  0.00000000000E+00 0. -1.
         25    2    1    2    0    0 -0.65489143412E+02  0.18449374061E+03  0.23388221042E+03  0.32962561610E+03  0.12500156081E+03 0.  0.
          2    1    1    2  501    0  0.17203965450E+02 -0.17709770739E+03 -0.42456984640E+03  0.46034674851E+03  0.00000000000E+00 0. -1.
          1    1    1    2  502    0  0.48285177962E+02 -0.73960332241E+01  0.16850539905E+04  0.16857618784E+04  0.00000000000E+00 0. -1.
         22    1    3    3    0    0 -0.81613884682E+02  0.18751936276E+03  0.23687978658E+03  0.31294787245E+03  0.00000000000E+00 0. -1.
         22    1    3    3    0    0  0.16124741270E+02 -0.30256221409E+01 -0.29975761589E+01  0.16677743648E+02  0.00000000000E+00 0. -1.
</event>
<event>
 7    1  0.6681656E-006  0.6082784E+02  0.7818608E-02  0.1504065E+00
          2   -1    0    0  502    0  0.00000000000E+00  0.00000000000E+00  0.12672808021E+04  0.12672808021E+04  0.00000000000E+00 0. -1.
          1   -1    0    0  501    0 -0.00000000000E+00 -0.00000000000E+00 -0.27205851723E+03  0.27205851723E+03  0.00000000000E+00 0. -1.
         25    2    1    2    0    0  0.10724330114E+02 -0.85829095464E+02  0.16990937462E+03  0.22798271531E+03  0.12500111205E+03 0.  0.
          2    1    1    2  501    0 -0.16798212219E+01  0.60328063422E+02 -0.23910038924E+03  0.24659945898E+03  0.00000000000E+00 0. -1.
          1    1    1    2  502    0 -0.90445088920E+01  0.25501032042E+02  0.10644132995E+04  0.10647571450E+04  0.00000000000E+00 0. -1.
         22    1    3    3    0    0 -0.10855304568E+02 -0.42802060742E+02  0.17414998514E+03  0.17966099010E+03  0.00000000000E+00 0.  1.
         22    1    3    3    0    0  0.21579634682E+02 -0.43027034722E+02 -0.42406105184E+01  0.48321725213E+02  0.00000000000E+00 0.  1.
</event>
<event>
 7    1  0.6681656E-006  0.7666926E+02  0.7818608E-02  0.1375603E+00
          2   -1    0    0  502    0  0.00000000000E+00  0.00000000000E+00  0.20535184484E+04  0.20535184484E+04  0.00000000000E+00 0. -1.
          1   -1    0    0  501    0 -0.00000000000E+00 -0.00000000000E+00 -0.30795704586E+03  0.30795704586E+03  0.00000000000E+00 0. -1.
         25    2    1    2    0    0 -0.29110319844E+02 -0.10368787895E+03  0.39673845421E+03  0.42968013454E+03  0.12500012003E+03 0.  0.
          2    1    1    2  501    0 -0.24733836736E+02  0.50449832260E+02 -0.28789512869E+03  0.29332670075E+03  0.00000000000E+00 0. -1.
          1    1    1    2  502    0  0.53844156580E+02  0.53238046685E+02  0.16367180770E+04  0.16384686590E+04  0.00000000000E+00 0. -1.
         22    1    3    3    0    0  0.28177652762E+02  0.15424046212E+02  0.62868898578E+02  0.70600139696E+02  0.00000000000E+00 0.  1.
         22    1    3    3    0    0 -0.57287972606E+02 -0.11911192516E+03  0.33386955564E+03  0.35907999485E+03  0.00000000000E+00 0.  1.
</event>
<event>
 7    1  0.6681656E-006  0.4485948E+02  0.7818608E-02  0.1527704E+00
          2   -1    0    0  502    0  0.00000000000E+00  0.00000000000E+00  0.14582112933E+04  0.14582112933E+04  0.00000000000E+00 0. -1.
          1   -1    0    0  501    0 -0.00000000000E+00 -0.00000000000E+00 -0.14697607920E+02  0.14697607920E+02  0.00000000000E+00 0. -1.
         25    2    1    2    0    0 -0.34990747379E+02  0.25227434453E+02  0.59568762614E+03  0.61018872937E+03  0.12500304661E+03 0.  0.
          2    1    1    2  501    0 -0.10704414504E+02 -0.29409500496E+02  0.29182424726E+02  0.42791554332E+02  0.00000000000E+00 0. -1.
          1    1    1    2  502    0  0.45695161883E+02  0.41820660423E+01  0.81864363453E+03  0.81992861754E+03  0.00000000000E+00 0. -1.
         22    1    3    3    0    0 -0.19314441967E+02  0.31300323876E+02  0.59178933757E+03  0.59293117476E+03  0.00000000000E+00 0.  1.
         22    1    3    3    0    0 -0.15676305412E+02 -0.60728894231E+01  0.38982885734E+01  0.17257554610E+02  0.00000000000E+00 0.  1.
</event>
<event>
 7    1  0.6681656E-006  0.1023864E+03  0.7818608E-02  0.1289522E+00
          2   -1    0    0  502    0  0.00000000000E+00  0.00000000000E+00  0.94089186879E+03  0.94089186879E+03  0.00000000000E+00 0. -1.
          1   -1    0    0  501    0 -0.00000000000E+00 -0.00000000000E+00 -0.67008704017E+02  0.67008704017E+02  0.00000000000E+00 0. -1.
         25    2    1    2    0    0  0.72115319769E+02  0.12157618799E+03  0.57056702575E+03  0.60095936224E+03  0.12499614139E+03 0.  0.
          2    1    1    2  501    0  0.14725414805E+02 -0.88302249132E+02 -0.17455926962E+00  0.89521815854E+02  0.00000000000E+00 0. -1.
          1    1    1    2  502    0 -0.86840734574E+02 -0.33273938856E+02  0.30349069829E+03  0.31741939471E+03  0.00000000000E+00 0. -1.
         22    1    3    3    0    0  0.42816598230E+02  0.14152399633E+03  0.50765726892E+03  0.52875155348E+03  0.00000000000E+00 0.  1.
         22    1    3    3    0    0  0.29298721539E+02 -0.19947808344E+02  0.62909756830E+02  0.72207808761E+02  0.00000000000E+00 0.  1.
</event>
<event>
 7    1  0.6681656E-006  0.4918849E+02  0.7818608E-02  0.1510114E+00
          2   -1    0    0  502    0  0.00000000000E+00  0.00000000000E+00  0.69101298888E+03  0.69101298888E+03  0.00000000000E+00 0. -1.
          1   -1    0    0  501    0 -0.00000000000E+00 -0.00000000000E+00 -0.34289611714E+02  0.34289611714E+02  0.00000000000E+00 0. -1.
         25    2    1    2    0    0 -0.14505409287E+02  0.12505382371E+02  0.13460532346E+03  0.18468991263E+03  0.12499991695E+03 0.  0.
          2    1    1    2  501    0 -0.29324628517E+02  0.13082865343E+02  0.24440175282E+02  0.40353653751E+02  0.00000000000E+00 0. -1.
          1    1    1    2  502    0  0.43830037804E+02 -0.25588247714E+02  0.49767787843E+03  0.50025903422E+03  0.00000000000E+00 0. -1.
         22    1    3    3    0    0  0.11019614656E+02 -0.44637960277E+02  0.10666253931E+03  0.11615023331E+03  0.00000000000E+00 0.  1.
         22    1    3    3    0    0 -0.25525023943E+02  0.57143342648E+02  0.27942784148E+02  0.68539679326E+02  0.00000000000E+00 0.  1.
</event>
<event>
 7    1  0.6681656E-006  0.2692829E+02  0.7818608E-02  0.1643204E+00
          2   -1    0    0  502    0  0.00000000000E+00  0.00000000000E+00  0.39157048340E+03  0.39157048340E+03  0.00000000000E+00 0. -1.
          1   -1    0    0  501    0 -0.00000000000E+00 -0.00000000000E+00 -0.53679893670E+03  0.53679893670E+03  0.00000000000E+00 0. -1.
         25    2    1    2    0    0 -0.35817624420E+02  0.30213105908E+02 -0.16282025716E+03  0.21055202507E+03  0.12500394046E+03 0.  0.
          2    1    1    2  501    0  0.25043266175E+02 -0.55777711729E+01 -0.34914990375E+03  0.35009131952E+03  0.00000000000E+00 0. -1.
          1    1    1    2  502    0  0.10774358246E+02 -0.24635334736E+02  0.36674170761E+03  0.36772607551E+03  0.00000000000E+00 0. -1.
         22    1    3    3    0    0 -0.23462765688E+02 -0.43633376911E+02 -0.10448983356E+03  0.11563951864E+03  0.00000000000E+00 0. -1.
         22    1    3    3    0    0 -0.12354858733E+02  0.73846482820E+02 -0.58330423600E+02  0.94912506428E+02  0.00000000000E+00 0. -1.
</event>
<event>
 7    1  0.6681656E-006  0.1295310E+03  0.7818608E-02  0.1381945E+00
          2   -1    0    0  502    0  0.00000000000E+00  0.00000000000E+00  0.20897887637E+04  0.20897887637E+04  0.00000000000E+00 0. -1.
          1   -1    0    0  501    0 -0.00000000000E+00 -0.00000000000E+00 -0.39576273183E+03  0.39576273183E+03  0.00000000000E+00 0. -1.
         25    2    1    2    0    0 -0.12359435484E+03 -0.90255723709E+02  0.94468916652E+03  0.96513428391E+03  0.12499961769E+03 0.  0.
          2    1    1    2  501    0  0.11450967388E+03  0.60013073863E+02 -0.37447409280E+03  0.39616269464E+03  0.00000000000E+00 0. -1.
          1    1    1    2  502    0  0.90846809579E+01  0.30242649845E+02  0.11238109581E+04  0.11242545170E+04  0.00000000000E+00 0. -1.
         22    1    3    3    0    0 -0.12372765663E+03 -0.58113336135E+02  0.47313628707E+03  0.49248719679E+03  0.00000000000E+00 0.  1.
         22    1    3    3    0    0  0.13330179960E+00 -0.32142387574E+02  0.47155287945E+03  0.47264708712E+03  0.00000000000E+00 0.  1.
</event>
<event>
 7    1  0.6681656E-006  0.7604891E+02  0.7818608E-02  0.1362664E+00
          2   -1    0    0  502    0  0.00000000000E+00  0.00000000000E+00  0.20295115434E+03  0.20295115434E+03  0.00000000000E+00 0. -1.
          1   -1    0    0  501    0 -0.00000000000E+00 -0.00000000000E+00 -0.19862667860E+03  0.19862667860E+03  0.00000000000E+00 0. -1.
         25    2    1    2    0    0 -0.46808685018E+02 -0.29799093876E+02  0.10387166640E+02  0.13715690673E+03  0.12500033938E+03 0.  0.
          2    1    1    2  501    0  0.32991708154E+02 -0.53738592872E+02 -0.11216451124E+03  0.12867465467E+03  0.00000000000E+00 0. -1.
          1    1    1    2  502    0  0.13816976864E+02  0.83537686748E+02  0.10610182035E+03  0.13574627154E+03  0.00000000000E+00 0. -1.
         22    1    3    3    0    0 -0.81985798518E+02  0.99796468178E+01  0.14666891180E+02  0.83883146139E+02  0.00000000000E+00 0. -1.
         22    1    3    3    0    0  0.35177113500E+02 -0.39778740694E+02 -0.42797245399E+01  0.53273760591E+02  0.00000000000E+00 0. -1.
</event>
<event>
 7    1  0.6681656E-006  0.7287260E+02  0.7818608E-02  0.1504415E+00
          2   -1    0    0  502    0  0.00000000000E+00  0.00000000000E+00  0.10135845757E+04  0.10135845757E+04  0.00000000000E+00 0. -1.
          1   -1    0    0  501    0 -0.00000000000E+00 -0.00000000000E+00 -0.31710713807E+03  0.31710713807E+03  0.00000000000E+00 0. -1.
         25    2    1    2    0    0  0.51126845825E+02  0.86101806802E+01  0.19528855443E+03  0.23759082150E+03  0.12499475747E+03 0.  0.
          2    1    1    2  501    0 -0.73205051415E+02 -0.41138312637E+01 -0.29125228652E+03  0.30033947054E+03  0.00000000000E+00 0. -1.
          1    1    1    2  502    0  0.22078205591E+02 -0.44963494165E+01  0.79244116973E+03  0.79276142174E+03  0.00000000000E+00 0. -1.
         22    1    3    3    0    0  0.20691405079E+02 -0.29436403253E+02  0.18412273289E+03  0.18760548192E+03  0.00000000000E+00 0.  1.
         22    1    3    3    0    0  0.30435440745E+02  0.38046583933E+02  0.11165821542E+02  0.49985339581E+02  0.00000000000E+00 0.  1.
</event>
<event>
 7    1  0.6681656E-006  0.7169268E+02  0.7818608E-02  0.1358743E+00
          2   -1    0    0  502    0  0.00000000000E+00  0.00000000000E+00  0.53931486719E+03  0.53931486719E+03  0.00000000000E+00 0. -1.
          1   -1    0    0  501    0 -0.00000000000E+00 -0.00000000000E+00 -0.40636514677E+03  0.40636514677E+03  0.00000000000E+00 0. -1.
         25    2    1    2    0    0 -0.37262308594E+02 -0.46755789930E+02 -0.28385423313E+03  0.31588123814E+03  0.12503258540E+03 0.  0.
          2    1    1    2  501    0 -0.14311656433E+02  0.96555047183E+02 -0.81010784344E+02  0.12684812898E+03  0.00000000000E+00 0. -1.
          1    1    1    2  502    0  0.51573965026E+02 -0.49799257253E+02  0.49781473789E+03  0.50295064683E+03  0.00000000000E+00 0. -1.
         22    1    3    3    0    0 -0.81491874971E+02 -0.34007410377E+02 -0.14688604493E+03  0.17138535480E+03  0.00000000000E+00 0. -1.
         22    1    3    3    0    0  0.44229566378E+02 -0.12748379553E+02 -0.13696818820E+03  0.14449588334E+03  0.00000000000E+00 0. -1.
</event>
<event>
 7    1  0.6681656E-006  0.8891261E+02  0.7818608E-02  0.1320107E+00
          2   -1    0    0  502    0  0.00000000000E+00  0.00000000000E+00  0.37543411956E+03  0.37543411956E+03  0.00000000000E+00 0. -1.
          1   -1    0    0  501    0 -0.00000000000E+00 -0.00000000000E+00 -0.11916857036E+03  0.11916857036E+03  0.00000000000E+00 0. -1.
         25    2    1    2    0    0 -0.29952246227E+02 -0.10164988231E+02  0.51940196517E+01  0.12904319251E+03  0.12499881460E+03 0.  0.
          2    1    1    2  501    0 -0.16689953267E+02 -0.76116112781E+02 -0.17304353110E+02  0.79822664710E+02  0.00000000000E+00 0. -1.
          1    1    1    2  502    0  0.46642199493E+02  0.86281101012E+02  0.26837588266E+03  0.28573683270E+03  0.00000000000E+00 0. -1.
         22    1    3    3    0    0 -0.50600943072E+02 -0.37154514442E+02 -0.38536509702E+02  0.73661224285E+02  0.00000000000E+00 0.  1.
         22    1    3    3    0    0  0.20648696846E+02  0.26989526211E+02  0.43730529354E+02  0.55381968221E+02  0.00000000000E+00 0.  1.
</event>
<event>
 7    1  0.6681656E-006  0.9460868E+02  0.7818608E-02  0.1374436E+00
          2   -1    0    0  502    0  0.00000000000E+00  0.00000000000E+00  0.35157546671E+03  0.35157546671E+03  0.00000000000E+00 0. -1.
          1   -1    0    0  501    0 -0.00000000000E+00 -0.00000000000E+00 -0.39277536248E+03  0.39277536248E+03  0.00000000000E+00 0. -1.
         25    2    1    2    0    0  0.16051015007E+02  0.10363325054E+03  0.17536296748E+03  0.23953412456E+03  0.12500776282E+03 0.  0.
          2    1    1    2  501    0 -0.53999531071E+02 -0.77685228049E+02 -0.35058651031E+03  0.36312786346E+03  0.00000000000E+00 0. -1.
          1    1    1    2  502    0  0.37948516064E+02 -0.25948022490E+02  0.13402364706E+03  0.14168884117E+03  0.00000000000E+00 0. -1.
         22    1    3    3    0    0  0.34643598589E+02  0.81231791082E+02  0.18806842066E+03  0.20777033872E+03  0.00000000000E+00 0. -1.
         22    1    3    3    0    0 -0.18592583582E+02  0.22401459457E+02 -0.12705453178E+02  0.31763785834E+02  0.00000000000E+00 0. -1.
</event>
<event>
 7    1  0.6681656E-006  0.5850569E+02  0.7818608E-02  0.1410812E+00
          2   -1    0    0  502    0  0.00000000000E+00  0.00000000000E+00  0.59029117828E+03  0.59029117828E+03  0.00000000000E+00 0. -1.
          1   -1    0    0  501    0 -0.00000000000E+00 -0.00000000000E+00 -0.12033087582E+03  0.12033087582E+03  0.00000000000E+00 0. -1.
         25    2    1    2    0    0  0.37826568032E+02 -0.82739325069E+01  0.19122938332E+03  0.23171784343E+03  0.12500069885E+03 0.  0.
          2    1    1    2  501    0 -0.37434881771E+02 -0.47282984181E+02 -0.88720079835E+02  0.10727676138E+03  0.00000000000E+00 0. -1.
          1    1    1    2  502    0 -0.39168626084E+00  0.55556916688E+02  0.36745099898E+03  0.37162744929E+03  0.00000000000E+00 0. -1.
         22    1    3    3    0    0  0.33828218084E+02  0.19032647338E+02  0.31197213935E+00  0.38816070513E+02  0.00000000000E+00 0.  1.
         22    1    3    3    0    0  0.39983499476E+01 -0.27306579845E+02  0.19091741118E+03  0.19290177292E+03  0.00000000000E+00 0.  1.
</event>
<event>
 7    1  0.6681656E-006  0.1179266E+03  0.7818608E-02  0.1347257E+00
          2   -1    0    0  502    0  0.00000000000E+00  0.00000000000E+00  0.34240544980E+04  0.34240544980E+04  0.00000000000E+00 0. -1.
          1   -1    0    0  501    0 -0.00000000000E+00 -0.00000000000E+00 -0.72941641802E+03  0.72941641802E+03  0.00000000000E+00 0. -1.
         25    2    1    2    0    0 -0.14835993242E+03  0.34339290462E+02  0.29604488435E+03  0.35560841715E+03  0.12499966554E+03 0.  0.
          2    1    1    2  501    0  0.43259357761E+02  0.16591293484E+02 -0.69776547750E+03  0.69930201247E+03  0.00000000000E+00 0. -1.
          1    1    1    2  502    0  0.10510057465E+03 -0.50930583946E+02  0.30963586731E+04  0.30985604864E+04  0.00000000000E+00 0. -1.
         22    1    3    3    0    0 -0.61076445508E+02  0.18906296927E+02  0.22046997769E+02  0.67630247449E+02  0.00000000000E+00 0. -1.
         22    1    3    3    0    0 -0.87283486908E+02  0.15432993535E+02  0.27399788658E+03  0.28797816970E+03  0.00000000000E+00 0. -1.
</event>
<event>
 7    1  0.6681656E-006  0.2064969E+03  0.7818608E-02  0.1328779E+00
          2   -1    0    0  502    0  0.00000000000E+00  0.00000000000E+00  0.11060784707E+04  0.11060784707E+04  0.00000000000E+00 0. -1.
          1   -1    0    0  501    0 -0.00000000000E+00 -0.00000000000E+00 -0.14182345086E+04  0.14182345086E+04  0.00000000000E+00 0. -1.
         25    2    1    2    0    0  0.53286371218E+02 -0.16874822786E+03  0.79948945299E+02  0.23093913703E+03  0.12500259754E+03 0.  0.
          2    1    1    2  501    0 -0.62366116423E+02  0.19845955521E+03 -0.13344245165E+04  0.13505423051E+04  0.00000000000E+00 0. -1.
          1    1    1    2  502    0  0.90797452047E+01 -0.29711327344E+02  0.94231953331E+03  0.94283153723E+03  0.00000000000E+00 0. -1.
         22    1    3    3    0    0  0.34185867717E+02 -0.17786047414E+03  0.39626151161E+02  0.18540025262E+03  0.00000000000E+00 0.  1.
         22    1    3    3    0    0  0.19100503501E+02  0.91122462828E+01  0.40322794138E+02  0.45538884411E+02  0.00000000000E+00 0.  1.
</event>
<event>
 7    1  0.6681656E-006  0.7233501E+02  0.7818608E-02  0.1450012E+00
          2   -1    0    0  502    0  0.00000000000E+00  0.00000000000E+00  0.32666553027E+03  0.32666553027E+03  0.00000000000E+00 0. -1.
          1   -1    0    0  501    0 -0.00000000000E+00 -0.00000000000E+00 -0.13702653705E+03  0.13702653705E+03  0.00000000000E+00 0. -1.
         25    2    1    2    0    0  0.79971779493E+02 -0.50432716075E+02  0.42045514038E+02  0.16227015693E+03  0.12499933685E+03 0.  0.
          2    1    1    2  501    0 -0.33295343918E+02 -0.24950055991E+01 -0.67359931269E+02  0.75180884008E+02  0.00000000000E+00 0. -1.
          1    1    1    2  502    0 -0.46676435575E+02  0.52927721674E+02  0.21495341045E+03  0.22624102639E+03  0.00000000000E+00 0. -1.
         22    1    3    3    0    0  0.98887706340E+02 -0.25229770740E+01  0.48831682556E+02  0.11031625945E+03  0.00000000000E+00 0. -1.
         22    1    3    3    0    0 -0.18915926847E+02 -0.47909739001E+02 -0.67861685177E+01  0.51953897474E+02  0.00000000000E+00 0. -1.
</event>
<event>
 7    1  0.6681656E-006  0.9027268E+02  0.7818608E-02  0.1380410E+00
          2   -1    0    0  502    0  0.00000000000E+00  0.00000000000E+00  0.22822603430E+04  0.22822603430E+04  0.00000000000E+00 0. -1.
          1   -1    0    0  501    0 -0.00000000000E+00 -0.00000000000E+00 -0.37011833184E+03  0.37011833184E+03  0.00000000000E+00 0. -1.
         25    2    1    2    0    0 -0.89675348890E+02 -0.10080713651E+03  0.12300371007E+03  0.22126493580E+03  0.12499804861E+03 0.  0.
          2    1    1    2  501    0  0.26776834014E+02  0.37255743053E+02 -0.31839544312E+03  0.32168408016E+03  0.00000000000E+00 0. -1.
          1    1    1    2  502    0  0.62898514876E+02  0.63551393452E+02  0.21075337442E+04  0.21094296589E+04  0.00000000000E+00 0. -1.
         22    1    3    3    0    0 -0.12088709653E+03 -0.68323510585E+02  0.91562694391E+02  0.16632955002E+03  0.00000000000E+00 0. -1.
         22    1    3    3    0    0  0.31211747642E+02 -0.32483625921E+02  0.31441015677E+02  0.54935385779E+02  0.00000000000E+00 0. -1.
</event>
<event>
 7    1  0.1408013E-005  0.1040885E+03  0.7818608E-02  0.1304663E+00
          2   -1    0    0  502    0  0.00000000000E+00  0.00000000000E+00  0.87435182899E+03  0.87435182899E+03  0.00000000000E+00 0. -1.
          1   -1    0    0  501    0 -0.00000000000E+00 -0.00000000000E+00 -0.15885339512E+04  0.15885339512E+04  0.00000000000E+00 0. -1.
         25    2    1    2    0    0 -0.98247905377E+01 -0.29626805260E+02 -0.31043592324E+03  0.33610923760E+03  0.12499873222E+03 0.  0.
          2    1    1    2  501    0 -0.56777896800E+02 -0.51324962563E+02 -0.12609077871E+04  0.12632285735E+04  0.00000000000E+00 0. -1.
          1    1    1    2  502    0  0.66602687338E+02  0.80951767823E+02  0.85716158816E+03  0.86354796907E+03  0.00000000000E+00 0. -1.
         22    1    3    3    0    0 -0.12215594293E+02  0.37278710680E+02 -0.22065552891E+03  0.22411556272E+03  0.00000000000E+00 0. -1.
         22    1    3    3    0    0  0.23908037552E+01 -0.66905515941E+02 -0.89780394336E+02  0.11199367488E+03  0.00000000000E+00 0. -1.
</event>
<event>
 7    1  0.6681656E-006  0.7341267E+02  0.7818608E-02  0.1408575E+00
          2   -1    0    0  502    0  0.00000000000E+00  0.00000000000E+00  0.59943188406E+03  0.59943188406E+03  0.00000000000E+00 0. -1.
          1   -1    0    0  501    0 -0.00000000000E+00 -0.00000000000E+00 -0.71442077927E+03  0.71442077927E+03  0.00000000000E+00 0. -1.
         25    2    1    2    0    0 -0.62189852811E+01 -0.49896472322E+02  0.11761114467E+03  0.17883939671E+03  0.12499125864E+03 0.  0.
          2    1    1    2  501    0  0.51148581070E+02  0.53280375517E+02 -0.68067918102E+03  0.68467446515E+03  0.00000000000E+00 0. -1.
          1    1    1    2  502    0 -0.44929595789E+02 -0.33839031948E+01  0.44807914114E+03  0.45033880146E+03  0.00000000000E+00 0. -1.
         22    1    3    3    0    0  0.42348502352E+02  0.14988585315E+00  0.97436249218E+02  0.10624142685E+03  0.00000000000E+00 0. -1.
         22    1    3    3    0    0 -0.48567487633E+02 -0.50046358176E+02  0.20174895454E+02  0.72597969863E+02  0.00000000000E+00 0. -1.
</event>
<event>
 7    1  0.6681656E-006  0.4981489E+02  0.7818608E-02  0.1531728E+00
          2   -1    0    0  502    0  0.00000000000E+00  0.00000000000E+00  0.30158522467E+04  0.30158522467E+04  0.00000000000E+00 0. -1.
          1   -1    0    0  501    0 -0.00000000000E+00 -0.00000000000E+00 -0.21430631545E+02  0.21430631545E+02  0.00000000000E+00 0. -1.
         25    2    1    2    0    0 -0.54989294742E+02 -0.19009562857E+01  0.39074027054E+03  0.41392379650E+03  0.12501005606E+03 0.  0.
          2    1    1    2  501    0  0.10905963886E+02  0.25185119077E+02  0.10017449643E+02  0.29216084072E+02  0.00000000000E+00 0. -1.
          1    1    1    2  502    0  0.44083330856E+02 -0.23284162791E+02  0.25936638950E+04  0.25941429977E+04  0.00000000000E+00 0. -1.
         22    1    3    3    0    0 -0.74087464380E+01  0.19884182237E+02  0.34121267191E+03  0.34187184397E+03  0.00000000000E+00 0.  1.
         22    1    3    3    0    0 -0.47580548304E+02 -0.21785138523E+02  0.49527598631E+02  0.72051952531E+02  0.00000000000E+00 0.  1.
</event>
<event>
 7    1  0.6681656E-006  0.6833266E+02  0.7818608E-02  0.1373788E+00
          2   -1    0    0  502    0  0.00000000000E+00  0.00000000000E+00  0.19829302011E+03  0.19829302011E+03  0.00000000000E+00 0. -1.
          1   -1    0    0  501    0 -0.00000000000E+00 -0.00000000000E+00 -0.15279851667E+04  0.15279851667E+04  0.00000000000E+00 0. -1.
         25    2    1    2    0    0 -0.86882500478E+02  0.27339645875E+02 -0.71629236625E+02  0.17044765067E+03  0.12500251579E+03 0.  0.
          2    1    1    2  501    0  0.25947751972E+02 -0.58492118554E+02 -0.13983118144E+04  0.13997751763E+04  0.00000000000E+00 0. -1.
          1    1    1    2  502    0  0.60934748507E+02  0.31152472678E+02  0.14024890448E+03  0.15605535985E+03  0.00000000000E+00 0. -1.
         22    1    3    3    0    0 -0.16544354234E+02 -0.48414145532E+02 -0.20449139019E+02  0.55098207151E+02  0.00000000000E+00 0.  1.
         22    1    3    3    0    0 -0.70338146244E+02  0.75753791407E+02 -0.51180097606E+02  0.11534944352E+03  0.00000000000E+00 0.  1.
</event>
<event>
 7    1  0.6681656E-006  0.9888390E+02  0.7818608E-02  0.1349839E+00
          2   -1    0    0  502    0  0.00000000000E+00  0.00000000000E+00  0.17328397004E+04  0.17328397004E+04  0.00000000000E+00 0. -1.
          1   -1    0    0  501    0 -0.00000000000E+00 -0.00000000000E+00 -0.61997887168E+03  0.61997887168E+03  0.00000000000E+00 0. -1.
         25    2    1    2    0    0 -0.88760922689E+02  0.10300174360E+03  0.66031387515E+01  0.18479865885E+03  0.12497632691E+03 0.  0.
          2    1    1    2  501    0  0.36175796957E+02 -0.90511711739E+02 -0.52595583954E+03  0.53491177160E+03  0.00000000000E+00 0. -1.
          1    1    1    2  502    0  0.52585125732E+02 -0.12490031858E+02  0.16322135296E+04  0.16331081417E+04  0.00000000000E+00 0. -1.
         22    1    3    3    0    0 -0.55531958573E+02  0.80305478567E+02 -0.54362610382E+02  0.11174999650E+03  0.00000000000E+00 0. -1.
         22    1    3    3    0    0 -0.33228964116E+02  0.22696265031E+02  0.60965749134E+02  0.73048662342E+02  0.00000000000E+00 0. -1.
</event>
<event>
 7    1  0.6681656E-006  0.4743899E+02  0.7818608E-02  0.1478651E+00
          2   -1    0    0  502    0  0.00000000000E+00  0.00000000000E+00  0.21436467369E+02  0.21436467369E+02  0.00000000000E+00 0. -1.
          1   -1    0    0  501    0 -0.00000000000E+00 -0.00000000000E+00 -0.14347922887E+04  0.14347922887E+04  0.00000000000E+00 0. -1.
         25    2    1    2    0    0 -0.26409654109E+02 -0.40263643762E+02 -0.62297947709E+03  0.63721786325E+03  0.12499818210E+03 0.  0.
          2    1    1    2  501    0 -0.14448783670E+02  0.46941363113E+02 -0.77225979885E+03  0.77382004099E+03  0.00000000000E+00 0. -1.
          1    1    1    2  502    0  0.40858437778E+02 -0.66777193517E+01 -0.18116545414E+02  0.45190851853E+02  0.00000000000E+00 0. -1.
         22    1    3    3    0    0  0.46858731963E+02  0.28783961665E+01 -0.17193966210E+03  0.17823376035E+03  0.00000000000E+00 0.  1.
         22    1    3    3    0    0 -0.73268386071E+02 -0.43142039928E+02 -0.45103981499E+03  0.45898410290E+03  0.00000000000E+00 0.  1.
</event>
<event>
 7    1  0.6681656E-006  0.9835410E+02  0.7818608E-02  0.1468752E+00
          2   -1    0    0  502    0  0.00000000000E+00  0.00000000000E+00  0.14417340320E+04  0.14417340320E+04  0.00000000000E+00 0. -1.
          1   -1    0    0  501    0 -0.00000000000E+00 -0.00000000000E+00 -0.20050656213E+04  0.20050656213E+04  0.00000000000E+00 0. -1.
         25    2    1    2    0    0  0.63386897417E+02  0.10053430618E+03  0.55700468933E+03  0.58309251751E+03  0.12497045474E+03 0.  0.
          2    1    1    2  501    0 -0.57049628073E+02 -0.80064792846E+02 -0.19906767879E+04  0.19931028837E+04  0.00000000000E+00 0. -1.
          1    1    1    2  502    0 -0.63372693441E+01 -0.20469513331E+02  0.87034050915E+03  0.87060425213E+03  0.00000000000E+00 0. -1.
         22    1    3    3    0    0  0.26775492857E+02 -0.21665620006E+02  0.53107802922E+02  0.63299011360E+02  0.00000000000E+00 0.  1.
         22    1    3    3    0    0  0.36611404561E+02  0.12219992618E+03  0.50389688641E+03  0.51979350615E+03  0.00000000000E+00 0.  1.
</event>
<event>
 7    1  0.6681656E-006  0.8924004E+02  0.7818608E-02  0.1305234E+00
          2   -1    0    0  502    0  0.00000000000E+00  0.00000000000E+00  0.81450907842E+03  0.81450907842E+03  0.00000000000E+00 0. -1.
          1   -1    0    0  501    0 -0.00000000000E+00 -0.00000000000E+00 -0.10268814533E+03  0.10268814533E+03  0.00000000000E+00 0. -1.
         25    2    1    2    0    0  0.90701025551E+02  0.50446694002E+02  0.37283369638E+03  0.40669630701E+03  0.12500150402E+03 0.  0.
          2    1    1    2  501    0 -0.39113079994E+01 -0.88721326796E+02 -0.55530912532E+02  0.10473993701E+03  0.00000000000E+00 0. -1.
          1    1    1    2  502    0 -0.86789717552E+02  0.38274632794E+02  0.39451814924E+03  0.40576097972E+03  0.00000000000E+00 0. -1.
         22    1    3    3    0    0  0.79400252288E+02 -0.22632858207E+02  0.14144276064E+03  0.16377637458E+03  0.00000000000E+00 0.  1.
         22    1    3    3    0    0  0.11300773264E+02  0.73079552209E+02  0.23139093574E+03  0.24291993243E+03  0.00000000000E+00 0.  1.
</event>
<event>
 7    1  0.6681656E-006  0.1913368E+03  0.7818608E-02  0.1277482E+00
          2   -1    0    0  502    0  0.00000000000E+00  0.00000000000E+00  0.70313666159E+03  0.70313666159E+03  0.00000000000E+00 0. -1.
          1   -1    0    0  501    0 -0.00000000000E+00 -0.00000000000E+00 -0.31280961883E+03  0.31280961883E+03  0.00000000000E+00 0. -1.
         25    2    1    2    0    0  0.79288590668E+02 -0.14255947699E+03  0.23587156783E+02  0.20683717842E+03  0.12496151137E+03 0.  0.
          2    1    1    2  501    0 -0.13128173208E+03  0.15592881835E+03 -0.17260580906E+03  0.26709821207E+03  0.00000000000E+00 0. -1.
          1    1    1    2  502    0  0.51993141408E+02 -0.13369341367E+02  0.53934569504E+03  0.54201088993E+03  0.00000000000E+00 0. -1.
         22    1    3    3    0    0  0.64667893719E+02 -0.16468163039E+03  0.10418106015E+02  0.17723011256E+03  0.00000000000E+00 0.  1.
         22    1    3    3    0    0  0.14620696948E+02  0.22122153405E+02  0.13169050768E+02  0.29607065857E+02  0.00000000000E+00 0.  1.
</event>
<event>
 7    1  0.6681656E-006  0.1100085E+03  0.7818608E-02  0.1325349E+00
          2   -1    0    0  502    0  0.00000000000E+00  0.00000000000E+00  0.43509784043E+03  0.43509784043E+03  0.00000000000E+00 0. -1.
          1   -1    0    0  501    0 -0.00000000000E+00 -0.00000000000E+00 -0.37122309626E+04  0.37122309626E+04  0.00000000000E+00 0. -1.
         25    2    1    2    0    0  0.11366877879E+03  0.89125866227E+02 -0.16707297599E+03  0.25377434938E+03  0.12499611913E+03 0.  0.
          2    1    1    2  501    0 -0.10547010203E+03 -0.29575790743E+02 -0.34986391014E+04  0.35003534438E+04  0.00000000000E+00 0. -1.
          1    1    1    2  502    0 -0.81986767591E+01 -0.59550075484E+02  0.38857895516E+03  0.39320100990E+03  0.00000000000E+00 0. -1.
         22    1    3    3    0    0  0.86376108118E+02  0.78158331801E+02 -0.39728238528E+02  0.12307676393E+03  0.00000000000E+00 0. -1.
         22    1    3    3    0    0  0.27292670668E+02  0.10967534427E+02 -0.12734473746E+03  0.13069758545E+03  0.00000000000E+00 0. -1.
</event>
<event>
 7    1  0.6681656E-006  0.6293059E+02  0.7818608E-02  0.1423722E+00
          2   -1    0    0  502    0  0.00000000000E+00  0.00000000000E+00  0.24740280269E+02  0.24740280269E+02  0.00000000000E+00 0. -1.
          1   -1    0    0  501    0 -0.00000000000E+00 -0.00000000000E+00 -0.12431413202E+04  0.12431413202E+04  0.00000000000E+00 0. -1.
         25    2    1    2    0    0  0.31897867385E+02 -0.25701524011E+02 -0.62295198718E+03  0.63668779540E+03  0.12499651272E+03 0.  0.
          2    1    1    2  501    0 -0.17847189837E+02  0.70291667317E+02 -0.57601747651E+03  0.58056487486E+03  0.00000000000E+00 0. -1.
          1    1    1    2  502    0 -0.14050677548E+02 -0.44590143305E+02 -0.19431576245E+02  0.50628930217E+02  0.00000000000E+00 0. -1.
         22    1    3    3    0    0 -0.24847663469E+02 -0.32524294732E+02 -0.49332523576E+03  0.49502022622E+03  0.00000000000E+00 0. -1.
         22    1    3    3    0    0  0.56745530855E+02  0.68227707205E+01 -0.12962675142E+03  0.14166756918E+03  0.00000000000E+00 0. -1.
</event>
<event>
 7    1  0.6681656E-006  0.4077204E+02  0.7818608E-02  0.1535432E+00
          2   -1    0    0  502    0  0.00000000000E+00  0.00000000000E+00  0.86101607354E+02  0.86101607354E+02  0.00000000000E+00 0. -1.
          1   -1    0    0  501    0 -0.00000000000E+00 -0.00000000000E+00 -0.85499017378E+03  0.85499017378E+03  0.00000000000E+00 0. -1.
         25    2    1    2    0    0  0.50338623302E+02  0.40306369616E+02 -0.34289535025E+03  0.37062284676E+03  0.12500197154E+03 0.  0.
          2    1    1    2  501    0 -0.10975203337E+02 -0.30831402708E+02 -0.49197129064E+03  0.49305859824E+03  0.00000000000E+00 0. -1.
          1    1    1    2  502    0 -0.39363419965E+02 -0.94749669080E+01  0.65978074470E+02  0.77410336132E+02  0.00000000000E+00 0. -1.
         22    1    3    3    0    0  0.45921635035E+01  0.25451862080E+02 -0.15539906282E+01  0.25909460355E+02  0.00000000000E+00 0. -1.
         22    1    3    3    0    0  0.45746459799E+02  0.14854507536E+02 -0.34134135962E+03  0.34471338640E+03  0.00000000000E+00 0. -1.
</event>
<event>
 7    1  0.6681656E-006  0.6969780E+02  0.7818608E-02  0.1475149E+00
          2   -1    0    0  502    0  0.00000000000E+00  0.00000000000E+00  0.16974373322E+04  0.16974373322E+04  0.00000000000E+00 0. -1.
          1   -1    0    0  501    0 -0.00000000000E+00 -0.00000000000E+00 -0.19460888301E+02  0.19460888301E+02  0.00000000000E+00 0. -1.
         25    2    1    2    0    0 -0.11133167014E+01 -0.85343969787E+01  0.23759176045E+03  0.26860429386E+03  0.12499738652E+03 0.  0.
          2    1    1    2  501    0 -0.22234609974E+01  0.78152273688E+02  0.61014330098E+03  0.61513215603E+03  0.00000000000E+00 0. -1.
          1    1    1    2  502    0  0.33367776987E+01 -0.69617876709E+02  0.83024138248E+03  0.83316177063E+03  0.00000000000E+00 0. -1.
         22    1    3    3    0    0 -0.37456039982E+01 -0.56209594787E+02  0.50967261193E+02  0.75968479048E+02  0.00000000000E+00 0.  1.
         22    1    3    3    0    0  0.26322872968E+01  0.47675197808E+02  0.18662449926E+03  0.19263581481E+03  0.00000000000E+00 0.  1.
</event>
<event>
 7    1  0.6681656E-006  0.8711142E+02  0.7818608E-02  0.1481721E+00
          2   -1    0    0  502    0  0.00000000000E+00  0.00000000000E+00  0.56896418338E+02  0.56896418338E+02  0.00000000000E+00 0. -1.
          1   -1    0    0  501    0 -0.00000000000E+00 -0.00000000000E+00 -0.15893290439E+04  0.15893290439E+04  0.00000000000E+00 0. -1.
         25    2    1    2    0    0  0.90324963546E+02  0.25925319880E+02 -0.67274290152E+03  0.69067977042E+03  0.12499924991E+03 0.  0.
          2    1    1    2  501    0 -0.85890011047E+02 -0.43134083347E+01 -0.90292263843E+03  0.90700881500E+03  0.00000000000E+00 0. -1.
          1    1    1    2  502    0 -0.44349524989E+01 -0.21611911546E+02  0.43232914391E+02  0.48536876816E+02  0.00000000000E+00 0. -1.
         22    1    3    3    0    0  0.54537916059E+02  0.51317211228E+02 -0.60722466104E+03  0.61182483558E+03  0.00000000000E+00 0.  1.
         22    1    3    3    0    0  0.35787047487E+02 -0.25391891347E+02 -0.65518240482E+02  0.78854934848E+02  0.00000000000E+00 0.  1.
</event>
<event>
 7    1  0.6681656E-006  0.7404718E+02  0.7818608E-02  0.1373867E+00
          2   -1    0    0  502    0  0.00000000000E+00  0.00000000000E+00  0.77746718840E+02  0.77746718840E+02  0.00000000000E+00 0. -1.
          1   -1    0    0  501    0 -0.00000000000E+00 -0.00000000000E+00 -0.19998024720E+04  0.19998024720E+04  0.00000000000E+00 0. -1.
         25    2    1    2    0    0  0.37532264356E+02 -0.26870081662E+02 -0.38527679709E+03  0.40766989733E+03  0.12500345057E+03 0.  0.
          2    1    1    2  501    0  0.36448485472E+02  0.46410829932E+02 -0.15806003516E+04  0.15817015928E+04  0.00000000000E+00 0. -1.
          1    1    1    2  502    0 -0.73980749828E+02 -0.19540748270E+02  0.43821395555E+02  0.88177700675E+02  0.00000000000E+00 0. -1.
         22    1    3    3    0    0  0.77142395931E+02 -0.34394464289E+02 -0.18491331413E+03  0.20329009363E+03  0.00000000000E+00 0.  1.
         22    1    3    3    0    0 -0.39610131575E+02  0.75243826269E+01 -0.20036348296E+03  0.20437980370E+03  0.00000000000E+00 0.  1.
</event>
<event>
 7    1  0.6681656E-006  0.1808409E+03  0.7818608E-02  0.1311080E+00
          2   -1    0    0  502    0  0.00000000000E+00  0.00000000000E+00  0.34426891767E+03  0.34426891767E+03  0.00000000000E+00 0. -1.
          1   -1    0    0  501    0 -0.00000000000E+00 -0.00000000000E+00 -0.59138302355E+03  0.59138302355E+03  0.00000000000E+00 0. -1.
         25    2    1    2    0    0 -0.16952561430E+03  0.80195343362E+02  0.32032011887E+02  0.22764303315E+03  0.12500029502E+03 0.  0.
          2    1    1    2  501    0  0.17620646412E+03 -0.39182605641E+02 -0.47481848906E+03  0.50797302304E+03  0.00000000000E+00 0. -1.
          1    1    1    2  502    0 -0.66808498128E+01 -0.41012737721E+02  0.19567237130E+03  0.20003588503E+03  0.00000000000E+00 0. -1.
         22    1    3    3    0    0 -0.78087342177E+02  0.10240519580E+03  0.35159937450E+02  0.13349411349E+03  0.00000000000E+00 0. -1.
         22    1    3    3    0    0 -0.91438272126E+02 -0.22209852438E+02 -0.31279255627E+01  0.94148919659E+02  0.00000000000E+00 0. -1.
</event>
<event>
 7    1  0.6681656E-006  0.1182928E+03  0.7818608E-02  0.1319962E+00
          2   -1    0    0  502    0  0.00000000000E+00  0.00000000000E+00  0.25726458687E+04  0.25726458687E+04  0.00000000000E+00 0. -1.
          1   -1    0    0  501    0 -0.00000000000E+00 -0.00000000000E+00 -0.82721294122E+03  0.82721294122E+03  0.00000000000E+00 0. -1.
         25    2    1    2    0    0 -0.87626907765E+02  0.11045621894E+03  0.49713661939E+03  0.53164702478E+03  0.12499875742E+03 0.  0.
          2    1    1    2  501    0  0.58567462994E+02  0.30466364403E+01 -0.80722572387E+03  0.80935332148E+03  0.00000000000E+00 0. -1.
          1    1    1    2  502    0  0.29059444770E+02 -0.11350285538E+03  0.20555220320E+04  0.20588584637E+04  0.00000000000E+00 0. -1.
         22    1    3    3    0    0 -0.17928504260E+02 -0.21019678689E+02  0.27428026761E+02  0.38930127269E+02  0.00000000000E+00 0. -1.
         22    1    3    3    0    0 -0.69698403505E+02  0.13147589763E+03  0.46970859263E+03  0.49271689752E+03  0.00000000000E+00 0. -1.
</event>
<event>
 7    1  0.6681656E-006  0.7910020E+02  0.7818608E-02  0.1377223E+00
          2   -1    0    0  502    0  0.00000000000E+00  0.00000000000E+00  0.12852320874E+03  0.12852320874E+03  0.00000000000E+00 0. -1.
          1   -1    0    0  501    0 -0.00000000000E+00 -0.00000000000E+00 -0.95791634905E+03  0.95791634905E+03  0.00000000000E+00 0. -1.
         25    2    1    2    0    0  0.30460350598E+02 -0.12140055397E+02 -0.16187775036E+03  0.20713437516E+03  0.12500011763E+03 0.  0.
          2    1    1    2  501    0 -0.64574035505E+02  0.53665894603E+02 -0.76414098981E+03  0.76874006440E+03  0.00000000000E+00 0. -1.
          1    1    1    2  502    0  0.34113684907E+02 -0.41525839206E+02  0.96625599866E+02  0.11056511823E+03  0.00000000000E+00 0. -1.
         22    1    3    3    0    0 -0.82136652414E+01  0.50034758608E+02 -0.96330907862E+02  0.10886039305E+03  0.00000000000E+00 0.  1.
         22    1    3    3    0    0  0.38674015840E+02 -0.62174814004E+02 -0.65546842503E+02  0.98273982110E+02  0.00000000000E+00 0.  1.
</event>
<event>
 7    1  0.6681656E-006  0.5500606E+02  0.7818608E-02  0.1472285E+00
          2   -1    0    0  502    0  0.00000000000E+00  0.00000000000E+00  0.46419272162E+03  0.46419272162E+03  0.00000000000E+00 0. -1.
          1   -1    0    0  501    0 -0.00000000000E+00 -0.00000000000E+00 -0.15308093725E+04  0.15308093725E+04  0.00000000000E+00 0. -1.
         25    2    1    2    0    0 -0.22784592455E+02  0.46365090446E+02 -0.66771131573E+03  0.68127291606E+03  0.12500210290E+03 0.  0.
          2    1    1    2  501    0  0.52062194643E+02 -0.23160836815E+02 -0.85460412157E+03  0.85650166438E+03  0.00000000000E+00 0. -1.
          1    1    1    2  502    0 -0.29277602188E+02 -0.23204253631E+02  0.45569878640E+03  0.45722751372E+03  0.00000000000E+00 0. -1.
         22    1    3    3    0    0 -0.98553089774E+01 -0.37141529148E+02 -0.96907158404E+02  0.10424786642E+03  0.00000000000E+00 0. -1.
         22    1    3    3    0    0 -0.12929283478E+02  0.83506619594E+02 -0.57080415733E+03  0.57702504964E+03  0.00000000000E+00 0. -1.
</event>
<event>
 7    1  0.6681656E-006  0.4954133E+02  0.7818608E-02  0.1463800E+00
          2   -1    0    0  502    0  0.00000000000E+00  0.00000000000E+00  0.30781291932E+03  0.30781291932E+03  0.00000000000E+00 0. -1.
          1   -1    0    0  501    0 -0.00000000000E+00 -0.00000000000E+00 -0.27523323510E+03  0.27523323510E+03  0.00000000000E+00 0. -1.
         25    2    1    2    0    0  0.48062056276E+01 -0.69804966209E+02 -0.61216613768E+02  0.15578456647E+03  0.12500209770E+03 0.  0.
          2    1    1    2  501    0  0.27949144931E+02  0.40299288847E+02 -0.16119347468E+03  0.16848894226E+03  0.00000000000E+00 0. -1.
          1    1    1    2  502    0 -0.32755350559E+02  0.29505677362E+02  0.25498977267E+03  0.25877264569E+03  0.00000000000E+00 0. -1.
         22    1    3    3    0    0 -0.12520273960E+02 -0.22128120663E+02  0.37203124542E+02  0.45060886141E+02  0.00000000000E+00 0.  1.
         22    1    3    3    0    0  0.17326479588E+02 -0.47676845546E+02 -0.98419738310E+02  0.11072368033E+03  0.00000000000E+00 0.  1.
</event>
<event>
 7    1  0.6681656E-006  0.3650978E+02  0.7818608E-02  0.1571873E+00
          2   -1    0    0  502    0  0.00000000000E+00  0.00000000000E+00  0.31891080820E+03  0.31891080820E+03  0.00000000000E+00 0. -1.
          1   -1    0    0  501    0 -0.00000000000E+00 -0.00000000000E+00 -0.45392678661E+03  0.45392678661E+03  0.00000000000E+00 0. -1.
         25    2    1    2    0    0 -0.42358384489E+02 -0.85012639476E+01  0.21008601448E+03  0.24824835420E+03  0.12499843063E+03 0.  0.
          2    1    1    2  501    0  0.31570223649E+02 -0.18365741267E+02 -0.43171923426E+03  0.43326144152E+03  0.00000000000E+00 0. -1.
          1    1    1    2  502    0  0.10788160839E+02  0.26867005214E+02  0.86617241371E+02  0.91327799088E+02  0.00000000000E+00 0. -1.
         22    1    3    3    0    0  0.45419356580E+01  0.11788541528E+02 -0.13738807440E+02  0.18664236410E+02  0.00000000000E+00 0. -1.
         22    1    3    3    0    0 -0.46900320147E+02 -0.20289805476E+02  0.22382482192E+03  0.22958411779E+03  0.00000000000E+00 0. -1.
</event>
<event>
 7    1  0.6681656E-006  0.1412105E+03  0.7818608E-02  0.1273933E+00
          2   -1    0    0  502    0  0.00000000000E+00  0.00000000000E+00  0.75425888981E+03  0.75425888981E+03  0.00000000000E+00 0. -1.
          1   -1    0    0  501    0 -0.00000000000E+00 -0.00000000000E+00 -0.90743500825E+03  0.90743500825E+03  0.00000000000E+00 0. -1.
         25    2    1    2    0    0 -0.92498218148E+02 -0.36358961176E+02  0.27057879246E+03  0.31419044153E+03  0.12499942479E+03 0.  0.
          2    1    1    2  501    0 -0.75048727633E+02 -0.56038518710E+01 -0.86779574799E+03  0.87105291166E+03  0.00000000000E+00 0. -1.
          1    1    1    2  502    0  0.16754694578E+03  0.41962813047E+02  0.44404083708E+03  0.47645054488E+03  0.00000000000E+00 0. -1.
         22    1    3    3    0    0 -0.19612373753E+02 -0.43871252557E+02  0.21992520844E+03  0.22511425835E+03  0.00000000000E+00 0.  1.
         22    1    3    3    0    0 -0.72885844395E+02  0.75122913805E+01  0.50653584016E+02  0.89076183173E+02  0.00000000000E+00 0.  1.
</event>
<event>
 7    1  0.6681656E-006  0.9846048E+02  0.7818608E-02  0.1417133E+00
          2   -1    0    0  502    0  0.00000000000E+00  0.00000000000E+00  0.66333829952E+03  0.66333829952E+03  0.00000000000E+00 0. -1.
          1   -1    0    0  501    0 -0.00000000000E+00 -0.00000000000E+00 -0.52890341283E+02  0.52890341283E+02  0.00000000000E+00 0. -1.
         25    2    1    2    0    0 -0.10018940157E+03  0.48645414707E+02  0.42880292511E+03  0.46032694187E+03  0.12499860908E+03 0.  0.
          2    1    1    2  501    0  0.10758845079E+02 -0.29534726095E+02 -0.18061283061E+02  0.36252761809E+02  0.00000000000E+00 0. -1.
          1    1    1    2  502    0  0.89430556493E+02 -0.19110688612E+02  0.19970631618E+03  0.21964893712E+03  0.00000000000E+00 0. -1.
         22    1    3    3    0    0 -0.12325515090E+03  0.60412006277E+02  0.39191961009E+03  0.41526187340E+03  0.00000000000E+00 0. -1.
         22    1    3    3    0    0  0.23065749333E+02 -0.11766591570E+02  0.36883315020E+02  0.45065068471E+02  0.00000000000E+00 0. -1.
</event>
<event>
 7    1  0.6681656E-006  0.8236598E+02  0.7818608E-02  0.1331134E+00
          2   -1    0    0  502    0  0.00000000000E+00  0.00000000000E+00  0.31343220023E+03  0.31343220023E+03  0.00000000000E+00 0. -1.
          1   -1    0    0  501    0 -0.00000000000E+00 -0.00000000000E+00 -0.24776250663E+03  0.24776250663E+03  0.00000000000E+00 0. -1.
         25    2    1    2    0    0 -0.85976078462E+02 -0.80449856279E+02  0.81546673987E+02  0.19010078742E+03  0.12499753556E+03 0.  0.
          2    1    1    2  501    0  0.76286054140E+02  0.94693056243E+00 -0.17612891806E+03  0.19194232080E+03  0.00000000000E+00 0. -1.
          1    1    1    2  502    0  0.96900243219E+01  0.79502925717E+02  0.16025193768E+03  0.17915159865E+03  0.00000000000E+00 0. -1.
         22    1    3    3    0    0 -0.81218747541E+02 -0.11034778818E+03  0.48654871853E+02  0.14539744105E+03  0.00000000000E+00 0.  1.
         22    1    3    3    0    0 -0.47573309217E+01  0.29897931900E+02  0.32891802134E+02  0.44703346374E+02  0.00000000000E+00 0.  1.
</event>
<event>
 7    1  0.6681656E-006  0.1359494E+03  0.7818608E-02  0.1306703E+00
          2   -1    0    0  502    0  0.00000000000E+00  0.00000000000E+00  0.51715484167E+03  0.51715484167E+03  0.00000000000E+00 0. -1.
          1   -1    0    0  501    0 -0.00000000000E+00 -0.00000000000E+00 -0.13872419648E+04  0.13872419648E+04  0.00000000000E+00 0. -1.
         25    2    1    2    0    0 -0.68993139993E+02  0.80265617992E+02  0.37137124994E+03  0.40588672542E+03  0.12499922318E+03 0.  0.
          2    1    1    2  501    0  0.12262456084E+03 -0.59481142788E+02 -0.13599678825E+04  0.13667799496E+04  0.00000000000E+00 0. -1.
          1    1    1    2  502    0 -0.53631420851E+02 -0.20784475204E+02  0.11850950941E+03  0.13173013145E+03  0.00000000000E+00 0. -1.
         22    1    3    3    0    0 -0.20040281385E+02 -0.28392892647E+02  0.36307189493E+02  0.50259140858E+02  0.00000000000E+00 0. -1.
         22    1    3    3    0    0 -0.48952858608E+02  0.10865851064E+03  0.33506406045E+03  0.35562758456E+03  0.00000000000E+00 0. -1.
</event>
<event>
 7    1  0.6681656E-006  0.5491161E+02  0.7818608E-02  0.1421488E+00
          2   -1    0    0  502    0  0.00000000000E+00  0.00000000000E+00  0.34837870084E+04  0.34837870084E+04  0.00000000000E+00 0. -1.
          1   -1    0    0  501    0 -0.00000000000E+00 -0.00000000000E+00 -0.12515348234E+03  0.12515348234E+03  0.00000000000E+00 0. -1.
         25    2    1    2    0    0 -0.13665091757E+02 -0.23275623026E+02  0.54009789381E+03  0.55503071327E+03  0.12499947365E+03 0.  0.
          2    1    1    2  501    0 -0.40907652936E+02  0.36631258416E+02 -0.11099772785E+03  0.12383771942E+03  0.00000000000E+00 0. -1.
          1    1    1    2  502    0  0.54572744692E+02 -0.13355635390E+02  0.29295333601E+04  0.29300720580E+04  0.00000000000E+00 0. -1.
         22    1    3    3    0    0  0.18439278804E+02  0.14523275092E+02  0.46148910852E+03  0.46208563038E+03  0.00000000000E+00 0.  1.
         22    1    3    3    0    0 -0.32104370561E+02 -0.37798898118E+02  0.78608785289E+02  0.92945082886E+02  0.00000000000E+00 0.  1.
</event>
<event>
 7    1  0.6681656E-006  0.1015354E+03  0.7818608E-02  0.1431592E+00
          2   -1    0    0  502    0  0.00000000000E+00  0.00000000000E+00  0.14321288663E+04  0.14321288663E+04  0.00000000000E+00 0. -1.
          1   -1    0    0  501    0 -0.00000000000E+00 -0.00000000000E+00 -0.45282338798E+03  0.45282338798E+03  0.00000000000E+00 0. -1.
         25    2    1    2    0    0 -0.87617541973E+02  0.94020279854E+02  0.59817027354E+03  0.62445894278E+03  0.12499859354E+03 0.  0.
          2    1    1    2  501    0  0.70146417046E+02 -0.73052802324E+02 -0.43361529886E+03  0.44528581737E+03  0.00000000000E+00 0. -1.
          1    1    1    2  502    0  0.17471124927E+02 -0.20967477530E+02  0.81475050359E+03  0.81520749409E+03  0.00000000000E+00 0. -1.
         22    1    3    3    0    0  0.28455204658E+02  0.13119826895E+01  0.64730050008E+02  0.70720572288E+02  0.00000000000E+00 0. -1.
         22    1    3    3    0    0 -0.11607274663E+03  0.92708297165E+02  0.53344022354E+03  0.55373837050E+03  0.00000000000E+00 0. -1.
</event>
<event>
 7    1  0.6681656E-006  0.6161577E+02  0.7818608E-02  0.1405095E+00
          2   -1    0    0  502    0  0.00000000000E+00  0.00000000000E+00  0.56045589609E+03  0.56045589609E+03  0.00000000000E+00 0. -1.
          1   -1    0    0  501    0 -0.00000000000E+00 -0.00000000000E+00 -0.91088367211E+02  0.91088367211E+02  0.00000000000E+00 0. -1.
         25    2    1    2    0    0 -0.81760825610E+02 -0.62630332366E+02  0.28553876033E+03  0.32827461269E+03  0.12499778617E+03 0.  0.
          2    1    1    2  501    0  0.53324471121E+02  0.14142663212E+02 -0.55008586317E+02  0.77906730849E+02  0.00000000000E+00 0. -1.
          1    1    1    2  502    0  0.28436354490E+02  0.48487669153E+02  0.23883735486E+03  0.24536291976E+03  0.00000000000E+00 0. -1.
         22    1    3    3    0    0 -0.74787429838E+02 -0.32596207273E+02  0.28603055484E+03  0.29743764169E+03  0.00000000000E+00 0. -1.
         22    1    3    3    0    0 -0.69733957726E+01 -0.30034125093E+02 -0.49179450755E+00  0.30836971001E+02  0.00000000000E+00 0. -1.
</event>
<event>
 7    1  0.6681656E-006  0.1056805E+03  0.7818608E-02  0.1312489E+00
          2   -1    0    0  502    0  0.00000000000E+00  0.00000000000E+00  0.30872138226E+03  0.30872138226E+03  0.00000000000E+00 0. -1.
          1   -1    0    0  501    0 -0.00000000000E+00 -0.00000000000E+00 -0.20340490547E+04  0.20340490547E+04  0.00000000000E+00 0. -1.
         25    2    1    2    0    0  0.85589820808E+02 -0.45602932189E+01  0.27649552400E+02  0.15406798149E+03  0.12500412582E+03 0.  0.
          2    1    1    2  501    0 -0.83665026858E+02 -0.65618811644E+02 -0.19637081095E+04  0.19665846548E+04  0.00000000000E+00 0. -1.
          1    1    1    2  502    0 -0.19247939505E+01  0.70179104863E+02  0.21073088470E+03  0.22211780063E+03  0.00000000000E+00 0. -1.
         22    1    3    3    0    0  0.11234963136E+03 -0.26768986748E+01  0.46142369212E+02  0.12148548757E+03  0.00000000000E+00 0. -1.
         22    1    3    3    0    0 -0.26759810556E+02 -0.18833945441E+01 -0.18492816812E+02  0.32582493914E+02  0.00000000000E+00 0. -1.
</event>
<event>
 7    1  0.6681656E-006  0.6237793E+02  0.7818608E-02  0.1460088E+00
          2   -1    0    0  502    0  0.00000000000E+00  0.00000000000E+00  0.21654260379E+03  0.21654260379E+03  0.00000000000E+00 0. -1.
          1   -1    0    0  501    0 -0.00000000000E+00 -0.00000000000E+00 -0.71629433360E+03  0.71629433360E+03  0.00000000000E+00 0. -1.
         25    2    1    2    0    0 -0.15464952798E+02 -0.22874198756E+02  0.13817500488E+03  0.18836163059E+03  0.12500151268E+03 0.  0.
          2    1    1    2  501    0  0.24582851241E+02  0.57666631184E+02 -0.68352805850E+03  0.68639665186E+03  0.00000000000E+00 0. -1.
          1    1    1    2  502    0 -0.91178984428E+01 -0.34792432428E+02  0.45601323810E+02  0.58078654939E+02  0.00000000000E+00 0. -1.
         22    1    3    3    0    0  0.38347432175E+02 -0.43005340993E+02  0.11043076651E+03  0.12455897840E+03  0.00000000000E+00 0.  1.
         22    1    3    3    0    0 -0.53812384973E+02  0.20131142236E+02  0.27744238367E+02  0.63802652192E+02  0.00000000000E+00 0.  1.
</event>
<event>
 7    1  0.6681656E-006  0.1332183E+03  0.7818608E-02  0.1364872E+00
          2   -1    0    0  502    0  0.00000000000E+00  0.00000000000E+00  0.47308090838E+03  0.47308090838E+03  0.00000000000E+00 0. -1.
          1   -1    0    0  501    0 -0.00000000000E+00 -0.00000000000E+00 -0.79043955962E+03  0.79043955962E+03  0.00000000000E+00 0. -1.
         25    2    1    2    0    0  0.64733313973E+02 -0.75554531913E+02 -0.25487163776E+03  0.30080450630E+03  0.12499964018E+03 0.  0.
          2    1    1    2  501    0  0.18027246277E+02 -0.30395317290E+02 -0.50192741512E+03  0.50316993846E+03  0.00000000000E+00 0. -1.
          1    1    1    2  502    0 -0.82760560249E+02  0.10594984920E+03  0.43944040164E+03  0.45954602324E+03  0.00000000000E+00 0. -1.
         22    1    3    3    0    0  0.88607953016E+02 -0.78480625564E+02 -0.24950741821E+03  0.27616033326E+03  0.00000000000E+00 0.  1.
         22    1    3    3    0    0 -0.23874639043E+02  0.29260936510E+01 -0.53642195565E+01  0.24644173043E+02  0.00000000000E+00 0.  1.
</event>
<event>
 7    1  0.6681656E-006  0.4358519E+02  0.7818608E-02  0.1590022E+00
          2   -1    0    0  502    0  0.00000000000E+00  0.00000000000E+00  0.27750869597E+03  0.27750869597E+03  0.00000000000E+00 0. -1.
          1   -1    0    0  501    0 -0.00000000000E+00 -0.00000000000E+00 -0.17737434668E+03  0.17737434668E+03  0.00000000000E+00 0. -1.
         25    2    1    2    0    0  0.14571353128E+02  0.34057541631E+02 -0.80174815272E+02  0.15305165927E+03  0.12499827570E+03 0.  0.
          2    1    1    2  501    0  0.36045123117E+01 -0.45883120831E+02 -0.51466337524E+02  0.69043733853E+02  0.00000000000E+00 0. -1.
          1    1    1    2  502    0 -0.18175865440E+02  0.11825579201E+02  0.23177550208E+03  0.23278764953E+03  0.00000000000E+00 0. -1.
         22    1    3    3    0    0 -0.52815505564E+02  0.19769008000E+02 -0.57478990529E+02  0.80524068808E+02  0.00000000000E+00 0.  1.
         22    1    3    3    0    0  0.67386858692E+02  0.14288533631E+02 -0.22695824743E+02  0.72527590464E+02  0.00000000000E+00 0.  1.
</event>
<event>
 7    1  0.6681656E-006  0.1667995E+03  0.7818608E-02  0.1317752E+00
          2   -1    0    0  502    0  0.00000000000E+00  0.00000000000E+00  0.40174072052E+03  0.40174072052E+03  0.00000000000E+00 0. -1.
          1   -1    0    0  501    0 -0.00000000000E+00 -0.00000000000E+00 -0.11105877107E+04  0.11105877107E+04  0.00000000000E+00 0. -1.
         25    2    1    2    0    0 -0.15062430460E+02  0.20315231758E+03 -0.66821206718E+03  0.70967028858E+03  0.12500724304E+03 0.  0.
          2    1    1    2  501    0 -0.14347284889E+02 -0.39922838845E+02 -0.40242879923E+03  0.40465864144E+03  0.00000000000E+00 0. -1.
          1    1    1    2  502    0  0.29409715349E+02 -0.16322947874E+03  0.36179387622E+03  0.39799950120E+03  0.00000000000E+00 0. -1.
         22    1    3    3    0    0 -0.69049946748E+02  0.13794953231E+03 -0.44064294099E+03  0.46686632997E+03  0.00000000000E+00 0. -1.
         22    1    3    3    0    0  0.53987516288E+02  0.65202785268E+02 -0.22756912619E+03  0.24280395861E+03  0.00000000000E+00 0. -1.
</event>
<event>
 7    1  0.6681656E-006  0.6522869E+02  0.7818608E-02  0.1453830E+00
          2   -1    0    0  502    0  0.00000000000E+00  0.00000000000E+00  0.36576099690E+03  0.36576099690E+03  0.00000000000E+00 0. -1.
          1   -1    0    0  501    0 -0.00000000000E+00 -0.00000000000E+00 -0.18895510130E+04  0.18895510130E+04  0.00000000000E+00 0. -1.
         25    2    1    2    0    0 -0.25314205793E+02  0.15809291163E+02 -0.73331314764E+02  0.14796167210E+03  0.12499772792E+03 0.  0.
          2    1    1    2  501    0  0.57120371973E+02 -0.32676479661E+02 -0.17773071932E+04  0.17785250485E+04  0.00000000000E+00 0. -1.
          1    1    1    2  502    0 -0.31806166181E+02  0.16867188499E+02  0.32684849185E+03  0.32882528929E+03  0.00000000000E+00 0. -1.
         22    1    3    3    0    0 -0.21960193810E+02  0.22506373576E+02  0.30531728337E+02  0.43828910539E+02  0.00000000000E+00 0.  1.
         22    1    3    3    0    0 -0.33540119824E+01 -0.66970824133E+01 -0.10386304310E+03  0.10413276157E+03  0.00000000000E+00 0.  1.
</event>
<event>
 7    1  0.6681656E-006  0.3299616E+02  0.7818608E-02  0.1636710E+00
          2   -1    0    0  502    0  0.00000000000E+00  0.00000000000E+00  0.65131829488E+02  0.65131829488E+02  0.00000000000E+00 0. -1.
          1   -1    0    0  501    0 -0.00000000000E+00 -0.00000000000E+00 -0.12944863109E+04  0.12944863109E+04  0.00000000000E+00 0. -1.
         25    2    1    2    0    0  0.60108964685E+01 -0.32464105650E+02 -0.91344236097E+02  0.15830205425E+03  0.12500288748E+03 0.  0.
          2    1    1    2  501    0 -0.21546767712E+02  0.28223093586E+01 -0.11606870065E+04  0.11608904150E+04  0.00000000000E+00 0. -1.
          1    1    1    2  502    0  0.15535871244E+02  0.29641796292E+02  0.22676761223E+02  0.40425671080E+02  0.00000000000E+00 0. -1.
         22    1    3    3    0    0  0.58412965072E+02 -0.46101096257E+02 -0.44504373033E+02  0.86706544065E+02  0.00000000000E+00 0.  1.
         22    1    3    3    0    0 -0.52402068604E+02  0.13636990607E+02 -0.46839863064E+02  0.71595510185E+02  0.00000000000E+00 0.  1.
</event>
<event>
 7    1  0.6681656E-006  0.1375243E+03  0.7818608E-02  0.1235763E+00
          2   -1    0    0  502    0  0.00000000000E+00  0.00000000000E+00  0.30597072251E+03  0.30597072251E+03  0.00000000000E+00 0. -1.
          1   -1    0    0  501    0 -0.00000000000E+00 -0.00000000000E+00 -0.49641776562E+03  0.49641776562E+03  0.00000000000E+00 0. -1.
         25    2    1    2    0    0 -0.11988292747E+03 -0.19716405797E+03  0.35059823826E+02  0.26476433722E+03  0.12500152385E+03 0.  0.
          2    1    1    2  501    0  0.53135738648E+02  0.99515252928E+02 -0.34890672208E+03  0.36669141386E+03  0.00000000000E+00 0. -1.
          1    1    1    2  502    0  0.66747188819E+02  0.97648805039E+02  0.12339985516E+03  0.17093273704E+03  0.00000000000E+00 0. -1.
         22    1    3    3    0    0 -0.36325561047E+02  0.80213235646E+01  0.21124275704E+02  0.42779937367E+02  0.00000000000E+00 0.  1.
         22    1    3    3    0    0 -0.83557366420E+02 -0.20518538153E+03  0.13935548122E+02  0.22198439985E+03  0.00000000000E+00 0.  1.
</event>
<event>
 7    1  0.6681656E-006  0.7999421E+02  0.7818608E-02  0.1408525E+00
          2   -1    0    0  502    0  0.00000000000E+00  0.00000000000E+00  0.11205945165E+04  0.11205945165E+04  0.00000000000E+00 0. -1.
          1   -1    0    0  501    0 -0.00000000000E+00 -0.00000000000E+00 -0.81585739117E+03  0.81585739117E+03  0.00000000000E+00 0. -1.
         25    2    1    2    0    0  0.91115117291E+02 -0.78970654808E+02 -0.38770804584E+03  0.42483094856E+03  0.12500190848E+03 0.  0.
          2    1    1    2  501    0 -0.34805215098E+02  0.22354938220E+02 -0.40709192995E+03  0.40918820326E+03  0.00000000000E+00 0. -1.
          1    1    1    2  502    0 -0.56309902193E+02  0.56615716588E+02  0.10995371011E+04  0.11024327559E+04  0.00000000000E+00 0. -1.
         22    1    3    3    0    0  0.72428383019E+02 -0.89927875717E+02 -0.16682278063E+03  0.20288601143E+03  0.00000000000E+00 0. -1.
         22    1    3    3    0    0  0.18686734272E+02  0.10957220909E+02 -0.22088526521E+03  0.22194493713E+03  0.00000000000E+00 0. -1.
</event>
<event>
 7    1  0.6681656E-006  0.6569398E+02  0.7818608E-02  0.1393256E+00
          2   -1    0    0  502    0  0.00000000000E+00  0.00000000000E+00  0.12006222562E+04  0.12006222562E+04  0.00000000000E+00 0. -1.
          1   -1    0    0  501    0 -0.00000000000E+00 -0.00000000000E+00 -0.12413957269E+04  0.12413957269E+04  0.00000000000E+00 0. -1.
         25    2    1    2    0    0  0.10181351369E+03 -0.46699522779E+02  0.39207993374E+02  0.17236382202E+03  0.12500073359E+03 0.  0.
          2    1    1    2  501    0 -0.65287808449E+02  0.31553636397E+01 -0.11731698501E+04  0.11749893410E+04  0.00000000000E+00 0. -1.
          1    1    1    2  502    0 -0.36525705241E+02  0.43544159140E+02  0.10931883861E+04  0.10946648201E+04  0.00000000000E+00 0. -1.
         22    1    3    3    0    0  0.97132990058E+02 -0.74701908246E+01 -0.21659601988E+02  0.99798596517E+02  0.00000000000E+00 0.  1.
         22    1    3    3    0    0  0.46805236327E+01 -0.39229331955E+02  0.60867595363E+02  0.72565225503E+02  0.00000000000E+00 0.  1.
</event>
<event>
 7    1  0.6681656E-006  0.9621875E+02  0.7818608E-02  0.1356342E+00
          2   -1    0    0  502    0  0.00000000000E+00  0.00000000000E+00  0.36372685378E+04  0.36372685378E+04  0.00000000000E+00 0. -1.
          1   -1    0    0  501    0 -0.00000000000E+00 -0.00000000000E+00 -0.50703309185E+03  0.50703309185E+03  0.00000000000E+00 0. -1.
         25    2    1    2    0    0  0.93581013455E+02 -0.18900310798E+02  0.49906728932E+02  0.16501345803E+03  0.12499652760E+03 0.  0.
          2    1    1    2  501    0 -0.70747124161E+02  0.66242029561E+02 -0.44405703088E+03  0.45451051553E+03  0.00000000000E+00 0. -1.
          1    1    1    2  502    0 -0.22833889294E+02 -0.47341718764E+02  0.35243857479E+04  0.35247776561E+04  0.00000000000E+00 0. -1.
         22    1    3    3    0    0  0.10263605471E+03 -0.55824147509E+02  0.24756192659E+02  0.11942932741E+03  0.00000000000E+00 0.  1.
         22    1    3    3    0    0 -0.90550412539E+01  0.36923836712E+02  0.25150536273E+02  0.45584130620E+02  0.00000000000E+00 0.  1.
</event>
<event>
 7    1  0.6681656E-006  0.1371887E+03  0.7818608E-02  0.1274923E+00
          2   -1    0    0  502    0  0.00000000000E+00  0.00000000000E+00  0.21627502409E+04  0.21627502409E+04  0.00000000000E+00 0. -1.
          1   -1    0    0  501    0 -0.00000000000E+00 -0.00000000000E+00 -0.27480742922E+03  0.27480742922E+03  0.00000000000E+00 0. -1.
         25    2    1    2    0    0 -0.26148994013E+01 -0.16942238944E+03  0.64110767280E+02  0.22010433207E+03  0.12499977109E+03 0.  0.
          2    1    1    2  501    0  0.61427673005E+02  0.45981762810E+02 -0.18692060788E+03  0.20205691072E+03  0.00000000000E+00 0. -1.
          1    1    1    2  502    0 -0.58812773604E+02  0.12344062663E+03  0.20107526523E+04  0.20153964273E+04  0.00000000000E+00 0. -1.
         22    1    3    3    0    0 -0.31335570983E+02  0.67251361976E+01  0.11266244365E+02  0.33971660657E+02  0.00000000000E+00 0.  1.
         22    1    3    3    0    0  0.28720671582E+02 -0.17614752564E+03  0.52844522915E+02  0.18613267141E+03  0.00000000000E+00 0.  1.
</event>
<event>
 7    1  0.6681656E-006  0.2302212E+03  0.7818608E-02  0.1277503E+00
          2   -1    0    0  502    0  0.00000000000E+00  0.00000000000E+00  0.45068711149E+03  0.45068711149E+03  0.00000000000E+00 0. -1.
          1   -1    0    0  501    0 -0.00000000000E+00 -0.00000000000E+00 -0.10264798737E+04  0.10264798737E+04  0.00000000000E+00 0. -1.
         25    2    1    2    0    0  0.21256674484E+03  0.19546240909E+02 -0.12559470798E+03  0.27742718382E+03  0.12500054042E+03 0.  0.
          2    1    1    2  501    0  0.12765520882E+02  0.42742985432E+02 -0.78781782040E+03  0.78907974214E+03  0.00000000000E+00 0. -1.
          1    1    1    2  502    0 -0.22533226572E+03 -0.62289226341E+02  0.33761976619E+03  0.41066005920E+03  0.00000000000E+00 0. -1.
         22    1    3    3    0    0  0.17804764375E+03  0.17271512680E+02 -0.37483783057E+02  0.18276843980E+03  0.00000000000E+00 0. -1.
         22    1    3    3    0    0  0.34519101088E+02  0.22747282298E+01 -0.88110924926E+02  0.94658744022E+02  0.00000000000E+00 0. -1.
</event>
<event>
 7    1  0.6681656E-006  0.4978378E+02  0.7818608E-02  0.1506923E+00
          2   -1    0    0  502    0  0.00000000000E+00  0.00000000000E+00  0.20793972125E+03  0.20793972125E+03  0.00000000000E+00 0. -1.
          1   -1    0    0  501    0 -0.00000000000E+00 -0.00000000000E+00 -0.22282912530E+03  0.22282912530E+03  0.00000000000E+00 0. -1.
         25    2    1    2    0    0 -0.13624999666E+01  0.27851585865E+02  0.98822470069E+02  0.16176940819E+03  0.12500357432E+03 0.  0.
          2    1    1    2  501    0 -0.19026743870E+02  0.26251802715E+02 -0.17892942612E+03  0.18184310176E+03  0.00000000000E+00 0. -1.
          1    1    1    2  502    0  0.20389243837E+02 -0.54103388580E+02  0.65217552003E+02  0.87156336599E+02  0.00000000000E+00 0. -1.
         22    1    3    3    0    0  0.14815834279E+02 -0.25756057611E+02 -0.16198793267E+02  0.33842050061E+02  0.00000000000E+00 0.  1.
         22    1    3    3    0    0 -0.16178334246E+02  0.53607643476E+02  0.11502126334E+03  0.12792735813E+03  0.00000000000E+00 0.  1.
</event>
<event>
 7    1  0.6681656E-006  0.6683822E+02  0.7818608E-02  0.1528309E+00
          2   -1    0    0  502    0  0.00000000000E+00  0.00000000000E+00  0.57116319733E+03  0.57116319733E+03  0.00000000000E+00 0. -1.
          1   -1    0    0  501    0 -0.00000000000E+00 -0.00000000000E+00 -0.79814332767E+03  0.79814332767E+03  0.00000000000E+00 0. -1.
         25    2    1    2    0    0 -0.71773505755E+02 -0.21729309395E+02  0.13193938092E+03  0.19661313626E+03  0.12500050439E+03 0.  0.
          2    1    1    2  501    0  0.15721865394E+02 -0.13803469139E+02 -0.76295596076E+03  0.76324276012E+03  0.00000000000E+00 0. -1.
          1    1    1    2  502    0  0.56051640361E+02  0.35532778535E+02  0.40403644952E+03  0.40945062862E+03  0.00000000000E+00 0. -1.
         22    1    3    3    0    0 -0.91928284072E+02  0.24666313423E+02  0.86936365724E+02  0.12890759526E+03  0.00000000000E+00 0.  1.
         22    1    3    3    0    0  0.20154778317E+02 -0.46395622819E+02  0.45003015194E+02  0.67705541002E+02  0.00000000000E+00 0.  1.
</event>
<event>
 7    1  0.6681656E-006  0.1089803E+03  0.7818608E-02  0.1320716E+00
          2   -1    0    0  502    0  0.00000000000E+00  0.00000000000E+00  0.33641455639E+04  0.33641455639E+04  0.00000000000E+00 0. -1.
          1   -1    0    0  501    0 -0.00000000000E+00 -0.00000000000E+00 -0.10083923287E+03  0.10083923287E+03  0.00000000000E+00 0. -1.
         25    2    1    2    0    0 -0.15163609785E+03  0.47716091800E+02  0.70734912156E+03  0.73568916735E+03  0.12500175840E+03 0.  0.
          2    1    1    2  501    0  0.10690160719E+03 -0.30287266643E+01 -0.53148976887E+02  0.11942336685E+03  0.00000000000E+00 0. -1.
          1    1    1    2  502    0  0.44734490660E+02 -0.44687365135E+02  0.26091061864E+04  0.26098722626E+04  0.00000000000E+00 0. -1.
         22    1    3    3    0    0 -0.11637236443E+03  0.81113365158E+02  0.39740705310E+03  0.42196477467E+03  0.00000000000E+00 0.  1.
         22    1    3    3    0    0 -0.35263733418E+02 -0.33397273358E+02  0.30994206846E+03  0.31372439268E+03  0.00000000000E+00 0.  1.
</event>
<event>
 7    1  0.6681656E-006  0.5302416E+02  0.7818608E-02  0.1501694E+00
          2   -1    0    0  502    0  0.00000000000E+00  0.00000000000E+00  0.13705564772E+03  0.13705564772E+03  0.00000000000E+00 0. -1.
          1   -1    0    0  501    0 -0.00000000000E+00 -0.00000000000E+00 -0.30877531289E+03  0.30877531289E+03  0.00000000000E+00 0. -1.
         25    2    1    2    0    0 -0.18059181538E+02  0.71783477744E+02 -0.16109113341E+03  0.21691973678E+03  0.12499926892E+03 0.  0.
          2    1    1    2  501    0 -0.42590499833E+01 -0.49486942304E+02 -0.11212012650E+03  0.12262960381E+03  0.00000000000E+00 0. -1.
          1    1    1    2  502    0  0.22318231522E+02 -0.22296535439E+02  0.10149159474E+03  0.10628162002E+03  0.00000000000E+00 0. -1.
         22    1    3    3    0    0 -0.63120011890E+02  0.14772533131E+02 -0.41468979110E+02  0.76954791043E+02  0.00000000000E+00 0. -1.
         22    1    3    3    0    0  0.45060830352E+02  0.57010944613E+02 -0.11962215430E+03  0.13996494574E+03  0.00000000000E+00 0. -1.
</event>
<event>
 7    1  0.6681656E-006  0.6690552E+02  0.7818608E-02  0.1441997E+00
          2   -1    0    0  502    0  0.00000000000E+00  0.00000000000E+00  0.10304417147E+04  0.10304417147E+04  0.00000000000E+00 0. -1.
          1   -1    0    0  501    0 -0.00000000000E+00 -0.00000000000E+00 -0.79176971035E+02  0.79176971035E+02  0.00000000000E+00 0. -1.
         25    2    1    2    0    0  0.44503287760E+02 -0.30829774924E+01  0.77078724715E+02  0.15348117286E+03  0.12500117298E+03 0.  0.
          2    1    1    2  501    0 -0.65807133160E+02  0.34919516409E+02 -0.63504615103E+01  0.74768173459E+02  0.00000000000E+00 0. -1.
          1    1    1    2  502    0  0.21303845399E+02 -0.31836538917E+02  0.88053648051E+03  0.88136933946E+03  0.00000000000E+00 0. -1.
         22    1    3    3    0    0  0.78455628260E+02  0.17132544713E+02  0.17823087237E+02  0.82258568749E+02  0.00000000000E+00 0. -1.
         22    1    3    3    0    0 -0.33952340500E+02 -0.20215522205E+02  0.59255637478E+02  0.71222604111E+02  0.00000000000E+00 0. -1.
</event>
<event>
 7    1  0.6681656E-006  0.1045750E+03  0.7818608E-02  0.1326449E+00
          2   -1    0    0  502    0  0.00000000000E+00  0.00000000000E+00  0.27335677929E+03  0.27335677929E+03  0.00000000000E+00 0. -1.
          1   -1    0    0  501    0 -0.00000000000E+00 -0.00000000000E+00 -0.10924314456E+04  0.10924314456E+04  0.00000000000E+00 0. -1.
         25    2    1    2    0    0 -0.10200344114E+03 -0.57017999493E+02 -0.65719938283E+03  0.67911170895E+03  0.12500372063E+03 0.  0.
          2    1    1    2  501    0  0.51984458477E+02 -0.34916863073E+02 -0.41137498391E+03  0.41611410531E+03  0.00000000000E+00 0. -1.
          1    1    1    2  502    0  0.50018982661E+02  0.91934862566E+02  0.24949970038E+03  0.27056241068E+03  0.00000000000E+00 0. -1.
         22    1    3    3    0    0  0.55273456807E+01 -0.22004223707E+02 -0.15389440604E+02  0.27414818864E+02  0.00000000000E+00 0. -1.
         22    1    3    3    0    0 -0.10753078682E+03 -0.35013775786E+02 -0.64180994223E+03  0.65169689009E+03  0.00000000000E+00 0. -1.
</event>
<event>
 7    1  0.6681656E-006  0.7281341E+02  0.7818608E-02  0.1401670E+00
          2   -1    0    0  502    0  0.00000000000E+00  0.00000000000E+00  0.35434936969E+03  0.35434936969E+03  0.00000000000E+00 0. -1.
          1   -1    0    0  501    0 -0.00000000000E+00 -0.00000000000E+00 -0.11211390824E+04  0.11211390824E+04  0.00000000000E+00 0. -1.
         25    2    1    2    0    0 -0.31745510758E+01 -0.99448142664E+02 -0.17806746999E+03  0.23923729586E+03  0.12500579590E+03 0.  0.
          2    1    1    2  501    0 -0.30478850863E+02  0.65276472356E+02 -0.90927795187E+03  0.91212738801E+03  0.00000000000E+00 0. -1.
          1    1    1    2  502    0  0.33653401938E+02  0.34171670308E+02  0.32055570910E+03  0.32412376826E+03  0.00000000000E+00 0. -1.
         22    1    3    3    0    0 -0.10151635179E+02 -0.51060087804E+02 -0.18284893717E+03  0.19011554931E+03  0.00000000000E+00 0.  1.
         22    1    3    3    0    0  0.69770841032E+01 -0.48388054860E+02  0.47814671854E+01  0.49121746550E+02  0.00000000000E+00 0.  1.
</event>
<event>
 7    1  0.6681656E-006  0.4659601E+02  0.7818608E-02  0.1518510E+00
          2   -1    0    0  502    0  0.00000000000E+00  0.00000000000E+00  0.31909458358E+03  0.31909458358E+03  0.00000000000E+00 0. -1.
          1   -1    0    0  501    0 -0.00000000000E+00 -0.00000000000E+00 -0.87786999678E+03  0.87786999678E+03  0.00000000000E+00 0. -1.
         25    2    1    2    0    0  0.40564251978E+01 -0.28085376190E+02 -0.25019086044E+03  0.28111499685E+03  0.12499972747E+03 0.  0.
          2    1    1    2  501    0  0.31986709676E+02 -0.17185360060E+01 -0.60999331290E+03  0.61083381107E+03  0.00000000000E+00 0. -1.
          1    1    1    2  502    0 -0.36043134874E+02  0.29803912196E+02  0.30140876014E+03  0.30501577245E+03  0.00000000000E+00 0. -1.
         22    1    3    3    0    0  0.19266942542E+02 -0.72348497026E+02 -0.19423620319E+03  0.20816633427E+03  0.00000000000E+00 0.  1.
         22    1    3    3    0    0 -0.15210517344E+02  0.44263120836E+02 -0.55954657251E+02  0.72948662579E+02  0.00000000000E+00 0.  1.
</event>
<event>
 7    1  0.6681656E-006  0.7181449E+02  0.7818608E-02  0.1432126E+00
          2   -1    0    0  502    0  0.00000000000E+00  0.00000000000E+00  0.36343445080E+03  0.36343445080E+03  0.00000000000E+00 0. -1.
          1   -1    0    0  501    0 -0.00000000000E+00 -0.00000000000E+00 -0.22288358982E+04  0.22288358982E+04  0.00000000000E+00 0. -1.
         25    2    1    2    0    0 -0.45189371003E+02  0.96711877592E+02 -0.28898749631E+03  0.33246737375E+03  0.12500206023E+03 0.  0.
          2    1    1    2  501    0  0.19604610463E+02 -0.68033239628E+02 -0.19163719865E+04  0.19176794448E+04  0.00000000000E+00 0. -1.
          1    1    1    2  502    0  0.25584760540E+02 -0.28678637964E+02  0.33995803540E+03  0.34212353044E+03  0.00000000000E+00 0. -1.
         22    1    3    3    0    0 -0.25166012994E+02  0.12506835266E+03 -0.20327206583E+03  0.23998948684E+03  0.00000000000E+00 0.  1.
         22    1    3    3    0    0 -0.20023358009E+02 -0.28356475064E+02 -0.85715430481E+02  0.92477886906E+02  0.00000000000E+00 0.  1.
</event>
<event>
 7    1  0.6681656E-006  0.1190504E+03  0.7818608E-02  0.1278457E+00
          2   -1    0    0  502    0  0.00000000000E+00  0.00000000000E+00  0.56750471692E+02  0.56750471692E+02  0.00000000000E+00 0. -1.
          1   -1    0    0  501    0 -0.00000000000E+00 -0.00000000000E+00 -0.17980599533E+04  0.17980599533E+04  0.00000000000E+00 0. -1.
         25    2    1    2    0    0 -0.70238225695E+02  0.33334101085E+02 -0.42516564141E+03  0.44993229819E+03  0.12501471784E+03 0.  0.
          2    1    1    2  501    0  0.11143989715E+02  0.84753097428E+02 -0.12574853734E+04  0.12603875357E+04  0.00000000000E+00 0. -1.
          1    1    1    2  502    0  0.59094235980E+02 -0.11808719851E+03 -0.58658466867E+02  0.14449059109E+03  0.00000000000E+00 0. -1.
         22    1    3    3    0    0 -0.94876856491E+02 -0.79020748142E+01 -0.32805217155E+03  0.34158789198E+03  0.00000000000E+00 0.  1.
         22    1    3    3    0    0  0.24638630797E+02  0.41236175899E+02 -0.97113469854E+02  0.10834440621E+03  0.00000000000E+00 0.  1.
</event>
<event>
 7    1  0.6681656E-006  0.6855257E+02  0.7818608E-02  0.1520542E+00
          2   -1    0    0  502    0  0.00000000000E+00  0.00000000000E+00  0.81420461569E+03  0.81420461569E+03  0.00000000000E+00 0. -1.
          1   -1    0    0  501    0 -0.00000000000E+00 -0.00000000000E+00 -0.44040155602E+02  0.44040155602E+02  0.00000000000E+00 0. -1.
         25    2    1    2    0    0  0.54747623626E+01  0.50759858951E+02  0.20050633147E+03  0.24173245588E+03  0.12500101984E+03 0.  0.
          2    1    1    2  501    0 -0.88759180731E+01  0.19559251034E+02 -0.15908511186E+02  0.26728766354E+02  0.00000000000E+00 0. -1.
          1    1    1    2  502    0  0.34011557105E+01 -0.70319109985E+02  0.58556663981E+03  0.58978354906E+03  0.00000000000E+00 0. -1.
         22    1    3    3    0    0  0.56238463857E+02  0.46253050956E+02  0.67470823140E+02  0.99269438977E+02  0.00000000000E+00 0. -1.
         22    1    3    3    0    0 -0.50763701494E+02  0.45068079954E+01  0.13303550833E+03  0.14246301690E+03  0.00000000000E+00 0. -1.
</event>
<event>
 7    1  0.6681656E-006  0.8829318E+02  0.7818608E-02  0.1459805E+00
          2   -1    0    0  502    0  0.00000000000E+00  0.00000000000E+00  0.94161535087E+03  0.94161535087E+03  0.00000000000E+00 0. -1.
          1   -1    0    0  501    0 -0.00000000000E+00 -0.00000000000E+00 -0.11436521138E+03  0.11436521138E+03  0.00000000000E+00 0. -1.
         25    2    1    2    0    0  0.72391541301E+02 -0.62887729006E+02  0.14148173805E+03  0.21174840725E+03  0.12499961624E+03 0.  0.
          2    1    1    2  501    0 -0.23354675347E+02 -0.10144372949E+02 -0.74582642235E+02  0.78809388310E+02  0.00000000000E+00 0. -1.
          1    1    1    2  502    0 -0.49036865954E+02  0.73032101955E+02  0.76035104367E+03  0.76542276668E+03  0.00000000000E+00 0. -1.
         22    1    3    3    0    0 -0.13327411686E+02 -0.69756727027E+02  0.55381811695E+02  0.90059790886E+02  0.00000000000E+00 0.  1.
         22    1    3    3    0    0  0.85718952987E+02  0.68689980207E+01  0.86099926352E+02  0.12168861637E+03  0.00000000000E+00 0.  1.
</event>
<event>
 7    1  0.6681656E-006  0.1937257E+03  0.7818608E-02  0.1262669E+00
          2   -1    0    0  502    0  0.00000000000E+00  0.00000000000E+00  0.58713404889E+03  0.58713404889E+03  0.00000000000E+00 0. -1.
          1   -1    0    0  501    0 -0.00000000000E+00 -0.00000000000E+00 -0.37955819698E+03  0.37955819698E+03  0.00000000000E+00 0. -1.
         25    2    1    2    0    0 -0.17539165842E+03 -0.11548692801E+03  0.64599979660E+02  0.25277386982E+03  0.12498802947E+03 0.  0.
          2    1    1    2  501    0  0.18386765393E+03  0.54889438046E+02 -0.25059295686E+03  0.31562160034E+03  0.00000000000E+00 0. -1.
          1    1    1    2  502    0 -0.84759955084E+01  0.60597489963E+02  0.39356882911E+03  0.39829677571E+03  0.00000000000E+00 0. -1.
         22    1    3    3    0    0 -0.13627991914E+03 -0.14206827592E+03  0.56347047357E+02  0.20476962941E+03  0.00000000000E+00 0. -1.
         22    1    3    3    0    0 -0.39111739274E+02  0.26581347911E+02  0.82529323029E+01  0.48004240411E+02  0.00000000000E+00 0. -1.
</event>
<event>
 7    1  0.6681656E-006  0.2097514E+03  0.7818608E-02  0.1247854E+00
          2   -1    0    0  502    0  0.00000000000E+00  0.00000000000E+00  0.30077290391E+03  0.30077290391E+03  0.00000000000E+00 0. -1.
          1   -1    0    0  501    0 -0.00000000000E+00 -0.00000000000E+00 -0.31640459614E+04  0.31640459614E+04  0.00000000000E+00 0. -1.
         25    2    1    2    0    0  0.40419030653E+02  0.15389455545E+03 -0.16784445830E+03  0.26289700227E+03  0.12500335750E+03 0.  0.
          2    1    1    2  501    0  0.38634792790E+02  0.52822706423E+02 -0.28998818680E+04  0.29006202326E+04  0.00000000000E+00 0. -1.
          1    1    1    2  502    0 -0.79053823443E+02 -0.20671726188E+03  0.20445326881E+03  0.30130163041E+03  0.00000000000E+00 0. -1.
         22    1    3    3    0    0  0.21816942868E+02  0.13513879374E+03 -0.18592758748E+03  0.23088425749E+03  0.00000000000E+00 0.  1.
         22    1    3    3    0    0  0.18602087785E+02  0.18755761718E+02  0.18083129184E+02  0.32012744785E+02  0.00000000000E+00 0.  1.
</event>
<event>
 7    1  0.6681656E-006  0.9509890E+02  0.7818608E-02  0.1368803E+00
          2   -1    0    0  502    0  0.00000000000E+00  0.00000000000E+00  0.67062104969E+03  0.67062104969E+03  0.00000000000E+00 0. -1.
          1   -1    0    0  501    0 -0.00000000000E+00 -0.00000000000E+00 -0.74506257674E+03  0.74506257674E+03  0.00000000000E+00 0. -1.
         25    2    1    2    0    0  0.18456439614E+02 -0.50279042946E+02 -0.12776014351E+03  0.18656599299E+03  0.12496236692E+03 0.  0.
          2    1    1    2  501    0 -0.29368121569E+02  0.96932239241E+02 -0.58262937492E+03  0.59136734276E+03  0.00000000000E+00 0. -1.
          1    1    1    2  502    0  0.10911681955E+02 -0.46653196295E+02  0.63594799138E+03  0.63775029068E+03  0.00000000000E+00 0. -1.
         22    1    3    3    0    0  0.41429999466E+02 -0.58151946674E+02 -0.17298825070E+02  0.73466612189E+02  0.00000000000E+00 0. -1.
         22    1    3    3    0    0 -0.22973559852E+02  0.78729037282E+01 -0.11046131844E+03  0.11309938080E+03  0.00000000000E+00 0. -1.
</event>
<event>
 7    1  0.6681656E-006  0.7968269E+02  0.7818608E-02  0.1375953E+00
          2   -1    0    0  502    0  0.00000000000E+00  0.00000000000E+00  0.28512580488E+04  0.28512580488E+04  0.00000000000E+00 0. -1.
          1   -1    0    0  501    0 -0.00000000000E+00 -0.00000000000E+00 -0.18283434759E+02  0.18283434759E+02  0.00000000000E+00 0. -1.
         25    2    1    2    0    0 -0.42273056129E+02  0.66760688914E+02  0.16242106345E+04  0.16309291601E+04  0.12500295685E+03 0.  0.
          2    1    1    2  501    0 -0.99027544498E+01 -0.80312151144E+02  0.10045650174E+03  0.12899463132E+03  0.00000000000E+00 0. -1.
          1    1    1    2  502    0  0.52175810579E+02  0.13551462230E+02  0.11083074778E+04  0.11096176921E+04  0.00000000000E+00 0. -1.
         22    1    3    3    0    0  0.21565566492E+02  0.34322636523E+02  0.16298674315E+03  0.16795176534E+03  0.00000000000E+00 0. -1.
         22    1    3    3    0    0 -0.63838622621E+02  0.32438052391E+02  0.14612238913E+04  0.14629773948E+04  0.00000000000E+00 0. -1.
</event>
<event>
 7    1  0.6681656E-006  0.1102547E+03  0.7818608E-02  0.1328269E+00
          2   -1    0    0  502    0  0.00000000000E+00  0.00000000000E+00  0.82596354788E+03  0.82596354788E+03  0.00000000000E+00 0. -1.
          1   -1    0    0  501    0 -0.00000000000E+00 -0.00000000000E+00 -0.23925790070E+04  0.23925790070E+04  0.00000000000E+00 0. -1.
         25    2    1    2    0    0 -0.11963002204E+02  0.89788078614E+02 -0.16467214930E+03  0.22571506336E+03  0.12500144236E+03 0.  0.
          2    1    1    2  501    0 -0.58313310621E+02 -0.39858953647E+01 -0.21931281224E+04  0.21939068555E+04  0.00000000000E+00 0. -1.
          1    1    1    2  502    0  0.70276312825E+02 -0.85802183249E+02  0.79118481262E+03  0.79892063593E+03  0.00000000000E+00 0. -1.
         22    1    3    3    0    0  0.67216881718E+01 -0.14544949445E+02  0.11771964274E+02  0.19882549865E+02  0.00000000000E+00 0. -1.
         22    1    3    3    0    0 -0.18684690376E+02  0.10433302806E+03 -0.17644411357E+03  0.20583251350E+03  0.00000000000E+00 0. -1.
</event>
<event>
 7    1  0.6681656E-006  0.6622668E+02  0.7818608E-02  0.1486072E+00
          2   -1    0    0  502    0  0.00000000000E+00  0.00000000000E+00  0.24058771520E+04  0.24058771520E+04  0.00000000000E+00 0. -1.
          1   -1    0    0  501    0 -0.00000000000E+00 -0.00000000000E+00 -0.83866934708E+03  0.83866934708E+03  0.00000000000E+00 0. -1.
         25    2    1    2    0    0  0.41626730563E+02 -0.39344342357E+02  0.32037032753E+03  0.34862904325E+03  0.12499720421E+03 0.  0.
          2    1    1    2  501    0 -0.24422488368E+02  0.61620285803E+02 -0.82311204824E+03  0.82577658087E+03  0.00000000000E+00 0. -1.
          1    1    1    2  502    0 -0.17204242195E+02 -0.22275943447E+02  0.20699495256E+04  0.20701408750E+04  0.00000000000E+00 0. -1.
         22    1    3    3    0    0  0.18248375693E+02 -0.83039736433E+02  0.16611192906E+03  0.18660593243E+03  0.00000000000E+00 0.  1.
         22    1    3    3    0    0  0.23378354870E+02  0.43695394076E+02  0.15425839847E+03  0.16202311082E+03  0.00000000000E+00 0.  1.
</event>
<event>
 7    1  0.6681656E-006  0.5016561E+02  0.7818608E-02  0.1495983E+00
          2   -1    0    0  502    0  0.00000000000E+00  0.00000000000E+00  0.16357475747E+04  0.16357475747E+04  0.00000000000E+00 0. -1.
          1   -1    0    0  501    0 -0.00000000000E+00 -0.00000000000E+00 -0.88380702591E+03  0.88380702591E+03  0.00000000000E+00 0. -1.
         25    2    1    2    0    0  0.79200646160E+01  0.45037108923E+02  0.33489274240E+03  0.36037384135E+03  0.12500035207E+03 0.  0.
          2    1    1    2  501    0  0.26670835133E+02 -0.42528094650E+02 -0.87010946090E+03  0.87155633566E+03  0.00000000000E+00 0. -1.
          1    1    1    2  502    0 -0.34590899749E+02 -0.25090142726E+01  0.12871572673E+04  0.12876244236E+04  0.00000000000E+00 0. -1.
         22    1    3    3    0    0 -0.83302138182E+01 -0.41024814534E+02  0.15090574591E+03  0.15660450829E+03  0.00000000000E+00 0. -1.
         22    1    3    3    0    0  0.16250278434E+02  0.86061923457E+02  0.18398699649E+03  0.20376933306E+03  0.00000000000E+00 0. -1.
</event>
<event>
 7    1  0.6681656E-006  0.8898432E+02  0.7818608E-02  0.1415784E+00
          2   -1    0    0  502    0  0.00000000000E+00  0.00000000000E+00  0.19708226455E+03  0.19708226455E+03  0.00000000000E+00 0. -1.
          1   -1    0    0  501    0 -0.00000000000E+00 -0.00000000000E+00 -0.12181611513E+04  0.12181611513E+04  0.00000000000E+00 0. -1.
         25    2    1    2    0    0  0.22287728325E+02 -0.57542566766E+02 -0.14872275256E+03  0.20384835033E+03  0.12501121141E+03 0.  0.
          2    1    1    2  501    0  0.31267418935E+02 -0.16048099028E+02 -0.10293375363E+04  0.10299373556E+04  0.00000000000E+00 0. -1.
          1    1    1    2  502    0 -0.53555147260E+02  0.73590665793E+02  0.15698140206E+03  0.18145770990E+03  0.00000000000E+00 0. -1.
         22    1    3    3    0    0  0.68251514686E+02 -0.61818385825E+02 -0.11106194886E+03  0.14427244563E+03  0.00000000000E+00 0. -1.
         22    1    3    3    0    0 -0.45963786361E+02  0.42758190594E+01 -0.37660803704E+02  0.59575904701E+02  0.00000000000E+00 0. -1.
</event>
<event>
 7    1  0.6681656E-006  0.2336928E+03  0.7818608E-02  0.1148390E+00
          2   -1    0    0  502    0  0.00000000000E+00  0.00000000000E+00  0.12252054672E+04  0.12252054672E+04  0.00000000000E+00 0. -1.
          1   -1    0    0  501    0 -0.00000000000E+00 -0.00000000000E+00 -0.14513322526E+04  0.14513322526E+04  0.00000000000E+00 0. -1.
         25    2    1    2    0    0  0.22536181200E+03  0.11583223322E+03  0.15669867742E+03  0.32308451163E+03  0.12499629432E+03 0.  0.
          2    1    1    2  501    0  0.72246293722E+01 -0.17377713036E+03 -0.13478910107E+04  0.13590661732E+04  0.00000000000E+00 0. -1.
          1    1    1    2  502    0 -0.23258644137E+03  0.57944897141E+02  0.96506554788E+03  0.99438703507E+03  0.00000000000E+00 0. -1.
         22    1    3    3    0    0  0.21391159194E+03  0.72486837648E+02  0.16198479807E+03  0.27794169461E+03  0.00000000000E+00 0.  1.
         22    1    3    3    0    0  0.11450220055E+02  0.43345395576E+02 -0.52861206521E+01  0.45142817020E+02  0.00000000000E+00 0.  1.
</event>
<event>
 7    1  0.6681656E-006  0.1493416E+03  0.7818608E-02  0.1229414E+00
          2   -1    0    0  502    0  0.00000000000E+00  0.00000000000E+00  0.51024614423E+03  0.51024614423E+03  0.00000000000E+00 0. -1.
          1   -1    0    0  501    0 -0.00000000000E+00 -0.00000000000E+00 -0.20138996611E+03  0.20138996611E+03  0.00000000000E+00 0. -1.
         25    2    1    2    0    0 -0.10993045274E+03  0.82439117024E+02  0.39073683171E+03  0.43264380968E+03  0.12499792778E+03 0.  0.
          2    1    1    2  501    0  0.15455426133E+03  0.19078975561E+02 -0.51314926920E+02  0.16396416904E+03  0.00000000000E+00 0. -1.
          1    1    1    2  502    0 -0.44623808592E+02 -0.10151809259E+03 -0.30565726661E+02  0.11502813161E+03  0.00000000000E+00 0. -1.
         22    1    3    3    0    0 -0.78750397301E+02 -0.61875004809E+01  0.25941019334E+03  0.27117071864E+03  0.00000000000E+00 0.  1.
         22    1    3    3    0    0 -0.31180055441E+02  0.88626617505E+02  0.13132663837E+03  0.16147309105E+03  0.00000000000E+00 0.  1.
</event>
<event>
 7    1  0.6681656E-006  0.7376061E+02  0.7818608E-02  0.1407449E+00
          2   -1    0    0  502    0  0.00000000000E+00  0.00000000000E+00  0.25516617922E+03  0.25516617922E+03  0.00000000000E+00 0. -1.
          1   -1    0    0  501    0 -0.00000000000E+00 -0.00000000000E+00 -0.44726216636E+03  0.44726216636E+03  0.00000000000E+00 0. -1.
         25    2    1    2    0    0  0.16850127832E+01 -0.10377800127E+03  0.71774532432E+02  0.17762167373E+03  0.12500065063E+03 0.  0.
          2    1    1    2  501    0 -0.24236605839E+02  0.38201382183E+02 -0.38370016113E+03  0.38635808819E+03  0.00000000000E+00 0. -1.
          1    1    1    2  502    0  0.22551593055E+02  0.65576619083E+02  0.11982964156E+03  0.13844858365E+03  0.00000000000E+00 0. -1.
         22    1    3    3    0    0  0.47158249089E+02 -0.10656599424E+03  0.56998534121E+02  0.12972680709E+03  0.00000000000E+00 0.  1.
         22    1    3    3    0    0 -0.45473236306E+02  0.27879929713E+01  0.14775998311E+02  0.47894866646E+02  0.00000000000E+00 0.  1.
</event>
<event>
 7    1  0.6681656E-006  0.1466988E+03  0.7818608E-02  0.1233948E+00
          2   -1    0    0  502    0  0.00000000000E+00  0.00000000000E+00  0.62852823923E+03  0.62852823923E+03  0.00000000000E+00 0. -1.
          1   -1    0    0  501    0 -0.00000000000E+00 -0.00000000000E+00 -0.13902001592E+04  0.13902001592E+04  0.00000000000E+00 0. -1.
         25    2    1    2    0    0  0.23507075577E+03 -0.10802568580E+02 -0.47099899891E+03  0.54114704492E+03  0.12500044621E+03 0.  0.
          2    1    1    2  501    0 -0.95228210205E+02  0.50396181629E+02 -0.87186261170E+03  0.87849450813E+03  0.00000000000E+00 0. -1.
          1    1    1    2  502    0 -0.13984254556E+03 -0.39593613050E+02  0.58118969066E+03  0.59908684535E+03  0.00000000000E+00 0. -1.
         22    1    3    3    0    0  0.15275382045E+03  0.41891310583E+02 -0.35966750209E+03  0.39300041174E+03  0.00000000000E+00 0. -1.
         22    1    3    3    0    0  0.82316935317E+02 -0.52693879163E+02 -0.11133149681E+03  0.14814663318E+03  0.00000000000E+00 0. -1.
</event>
<event>
 7    1  0.6681656E-006  0.1133048E+03  0.7818608E-02  0.1278623E+00
          2   -1    0    0  502    0  0.00000000000E+00  0.00000000000E+00  0.17865029935E+03  0.17865029935E+03  0.00000000000E+00 0. -1.
          1   -1    0    0  501    0 -0.00000000000E+00 -0.00000000000E+00 -0.13970132963E+04  0.13970132963E+04  0.00000000000E+00 0. -1.
         25    2    1    2    0    0 -0.19612648227E+02  0.66311724925E+02  0.25259293301E+01  0.14287509013E+03  0.12500004091E+03 0.  0.
          2    1    1    2  501    0  0.10668664708E+03 -0.44871827554E+02 -0.13048322011E+04  0.13099551881E+04  0.00000000000E+00 0. -1.
          1    1    1    2  502    0 -0.87073998857E+02 -0.21439897371E+02  0.83943274884E+02  0.12283331744E+03  0.00000000000E+00 0. -1.
         22    1    3    3    0    0 -0.58213575215E+02  0.77337057933E+02  0.20411268061E+02  0.98926542105E+02  0.00000000000E+00 0. -1.
         22    1    3    3    0    0  0.38600926987E+02 -0.11025333008E+02 -0.17885338731E+02  0.43948548028E+02  0.00000000000E+00 0. -1.
</event>
<event>
 7    1  0.6681656E-006  0.1722667E+03  0.7818608E-02  0.1244267E+00
          2   -1    0    0  502    0  0.00000000000E+00  0.00000000000E+00  0.12468683270E+04  0.12468683270E+04  0.00000000000E+00 0. -1.
          1   -1    0    0  501    0 -0.00000000000E+00 -0.00000000000E+00 -0.21032282644E+03  0.21032282644E+03  0.00000000000E+00 0. -1.
         25    2    1    2    0    0  0.15887039612E+03 -0.47316851517E+02 -0.19541410031E+02  0.20853107773E+03  0.12499862588E+03 0.  0.
          2    1    1    2  501    0 -0.13796438946E+03  0.12723774467E+03 -0.16652217354E+01  0.18768694517E+03  0.00000000000E+00 0. -1.
          1    1    1    2  502    0 -0.20906006660E+02 -0.79920893149E+02  0.10577521323E+04  0.10609731305E+04  0.00000000000E+00 0. -1.
         22    1    3    3    0    0  0.72730449926E+02  0.40604968243E+02 -0.19028306225E+02  0.85443304186E+02  0.00000000000E+00 0. -1.
         22    1    3    3    0    0  0.86139946189E+02 -0.87921819760E+02 -0.51310380642E+00  0.12308777354E+03  0.00000000000E+00 0. -1.
</event>
<event>
 7    1  0.6681656E-006  0.1324497E+03  0.7818608E-02  0.1332924E+00
          2   -1    0    0  502    0  0.00000000000E+00  0.00000000000E+00  0.48453959997E+03  0.48453959997E+03  0.00000000000E+00 0. -1.
          1   -1    0    0  501    0 -0.00000000000E+00 -0.00000000000E+00 -0.13162591909E+04  0.13162591909E+04  0.00000000000E+00 0. -1.
         25    2    1    2    0    0  0.70949558326E+02  0.14037539040E+03 -0.74834771507E+03  0.77484514205E+03  0.12498640508E+03 0.  0.
          2    1    1    2  501    0 -0.30369955076E+02 -0.11725428761E+03 -0.54686262559E+03  0.56011573215E+03  0.00000000000E+00 0. -1.
          1    1    1    2  502    0 -0.40579603250E+02 -0.23121102789E+02  0.46349074969E+03  0.46583791671E+03  0.00000000000E+00 0. -1.
         22    1    3    3    0    0  0.32073351406E+02  0.63342530047E+02 -0.59221246055E+03  0.59645332962E+03  0.00000000000E+00 0. -1.
         22    1    3    3    0    0  0.38876206920E+02  0.77032860357E+02 -0.15613525452E+03  0.17839181243E+03  0.00000000000E+00 0. -1.
</event>
<event>
 7    1  0.6681656E-006  0.4939593E+02  0.7818608E-02  0.1456683E+00
          2   -1    0    0  502    0  0.00000000000E+00  0.00000000000E+00  0.10840179447E+04  0.10840179447E+04  0.00000000000E+00 0. -1.
          1   -1    0    0  501    0 -0.00000000000E+00 -0.00000000000E+00 -0.24635779458E+04  0.24635779458E+04  0.00000000000E+00 0. -1.
         25    2    1    2    0    0  0.34501124213E+00 -0.94055423866E+02  0.20402384832E+03  0.25709264654E+03  0.12499742569E+03 0.  0.
          2    1    1    2  501    0  0.91995586678E+01  0.48484315309E+02 -0.24361584574E+04  0.24366582424E+04  0.00000000000E+00 0. -1.
          1    1    1    2  502    0 -0.95445699099E+01  0.45571108557E+02  0.85257460790E+03  0.85384500162E+03  0.00000000000E+00 0. -1.
         22    1    3    3    0    0 -0.14647182565E+02 -0.83729751568E+02  0.43398795005E+02  0.95439334987E+02  0.00000000000E+00 0.  1.
         22    1    3    3    0    0  0.14992193807E+02 -0.10325672298E+02  0.16062505332E+03  0.16165331155E+03  0.00000000000E+00 0.  1.
</event>
<event>
 7    1  0.6681656E-006  0.6969168E+02  0.7818608E-02  0.1459738E+00
          2   -1    0    0  502    0  0.00000000000E+00  0.00000000000E+00  0.22676569471E+04  0.22676569471E+04  0.00000000000E+00 0. -1.
          1   -1    0    0  501    0 -0.00000000000E+00 -0.00000000000E+00 -0.68376851615E+03  0.68376851615E+03  0.00000000000E+00 0. -1.
         25    2    1    2    0    0 -0.55002674365E+02  0.53175910888E+02  0.52601345278E+02  0.15570592671E+03  0.12499784959E+03 0.  0.
          2    1    1    2  501    0  0.30007814996E+02  0.11882231552E+02 -0.63124256795E+03  0.63206711351E+03  0.00000000000E+00 0. -1.
          1    1    1    2  502    0  0.24994859369E+02 -0.65058142440E+02  0.21625296536E+04  0.21636524230E+04  0.00000000000E+00 0. -1.
         22    1    3    3    0    0  0.69336668545E+00  0.29042415396E+02 -0.37271028479E+02  0.47255393484E+02  0.00000000000E+00 0. -1.
         22    1    3    3    0    0 -0.55696041051E+02  0.24133495492E+02  0.89872373757E+02  0.10845053323E+03  0.00000000000E+00 0. -1.
</event>
<event>
 7    1  0.6681656E-006  0.1427758E+03  0.7818608E-02  0.1302233E+00
          2   -1    0    0  502    0  0.00000000000E+00  0.00000000000E+00  0.23060636854E+04  0.23060636854E+04  0.00000000000E+00 0. -1.
          1   -1    0    0  501    0 -0.00000000000E+00 -0.00000000000E+00 -0.33121253772E+04  0.33121253772E+04  0.00000000000E+00 0. -1.
         25    2    1    2    0    0 -0.88477876133E+02 -0.35374559795E+02 -0.41159884685E+03  0.44058822591E+03  0.12499872012E+03 0.  0.
          2    1    1    2  501    0  0.12829763137E+03  0.76236845108E+02 -0.28837468388E+04  0.28876059581E+04  0.00000000000E+00 0. -1.
          1    1    1    2  502    0 -0.39819755239E+02 -0.40862285313E+02  0.22892839939E+04  0.22899948786E+04  0.00000000000E+00 0. -1.
         22    1    3    3    0    0  0.12577058628E+02  0.24397992908E+02 -0.16734483526E+03  0.16958106719E+03  0.00000000000E+00 0. -1.
         22    1    3    3    0    0 -0.10105493476E+03 -0.59772552703E+02 -0.24425401160E+03  0.27100715872E+03  0.00000000000E+00 0. -1.
</event>
<event>
 7    1  0.6681656E-006  0.1902730E+03  0.7818608E-02  0.1303241E+00
          2   -1    0    0  502    0  0.00000000000E+00  0.00000000000E+00  0.60555515331E+03  0.60555515331E+03  0.00000000000E+00 0. -1.
          1   -1    0    0  501    0 -0.00000000000E+00 -0.00000000000E+00 -0.43331667074E+03  0.43331667074E+03  0.00000000000E+00 0. -1.
         25    2    1    2    0    0  0.96345406777E+02 -0.12098459646E+03 -0.12598117557E+03  0.23540494762E+03  0.12499809110E+03 0.  0.
          2    1    1    2  501    0  0.38268443042E+02 -0.18299643397E+02 -0.23362562552E+03  0.23744532756E+03  0.00000000000E+00 0. -1.
          1    1    1    2  502    0 -0.13461384982E+03  0.13928423985E+03  0.53184528366E+03  0.56602154887E+03  0.00000000000E+00 0. -1.
         22    1    3    3    0    0  0.75957383595E+02 -0.26773714683E+02 -0.11208074564E+03  0.13801612030E+03  0.00000000000E+00 0.  1.
         22    1    3    3    0    0  0.20388023182E+02 -0.94210881775E+02 -0.13900429930E+02  0.97388827318E+02  0.00000000000E+00 0.  1.
</event>
<event>
 7    1  0.6681656E-006  0.5064431E+02  0.7818608E-02  0.1482642E+00
          2   -1    0    0  502    0  0.00000000000E+00  0.00000000000E+00  0.23907770229E+04  0.23907770229E+04  0.00000000000E+00 0. -1.
          1   -1    0    0  501    0 -0.00000000000E+00 -0.00000000000E+00 -0.10823042952E+04  0.10823042952E+04  0.00000000000E+00 0. -1.
         25    2    1    2    0    0  0.57207144892E+02  0.56370856878E+02  0.23450962149E+02  0.15041722241E+03  0.12500024896E+03 0.  0.
          2    1    1    2  501    0 -0.46201491485E+02 -0.20309567833E+02 -0.10180417701E+04  0.10192919612E+04  0.00000000000E+00 0. -1.
          1    1    1    2  502    0 -0.11005653406E+02 -0.36061289044E+02  0.23030635357E+04  0.23033721346E+04  0.00000000000E+00 0. -1.
         22    1    3    3    0    0 -0.17649943415E+02  0.70091678916E+02  0.15264567492E+02  0.73874020985E+02  0.00000000000E+00 0. -1.
         22    1    3    3    0    0  0.74857088306E+02 -0.13720822038E+02  0.81863946564E+01  0.76543201426E+02  0.00000000000E+00 0. -1.
</event>
<event>
 7    1  0.6681656E-006  0.2753701E+03  0.7818608E-02  0.1251660E+00
          2   -1    0    0  502    0  0.00000000000E+00  0.00000000000E+00  0.27059459376E+04  0.27059459376E+04  0.00000000000E+00 0. -1.
          1   -1    0    0  501    0 -0.00000000000E+00 -0.00000000000E+00 -0.28351879476E+04  0.28351879476E+04  0.00000000000E+00 0. -1.
         25    2    1    2    0    0  0.14814142039E+03 -0.25155849651E+03  0.67511611669E+03  0.74607970854E+03  0.12500241151E+03 0.  0.
          2    1    1    2  501    0  0.24203742286E+02  0.41437424778E+02 -0.27902456389E+04  0.27906582748E+04  0.00000000000E+00 0. -1.
          1    1    1    2  502    0 -0.17234516268E+03  0.21012107173E+03  0.19858875123E+04  0.20043959018E+04  0.00000000000E+00 0. -1.
         22    1    3    3    0    0  0.15292006218E+03 -0.16292730074E+03  0.54013451004E+03  0.58452984499E+03  0.00000000000E+00 0. -1.
         22    1    3    3    0    0 -0.47786417879E+01 -0.88631195773E+02  0.13498160664E+03  0.16154986355E+03  0.00000000000E+00 0. -1.
</event>
<event>
 7    1  0.6681656E-006  0.7081381E+02  0.7818608E-02  0.1400096E+00
          2   -1    0    0  502    0  0.00000000000E+00  0.00000000000E+00  0.65327260875E+03  0.65327260875E+03  0.00000000000E+00 0. -1.
          1   -1    0    0  501    0 -0.00000000000E+00 -0.00000000000E+00 -0.39190813879E+03  0.39190813879E+03  0.00000000000E+00 0. -1.
         25    2    1    2    0    0 -0.21911446885E+02  0.37030012504E+01 -0.28125947424E+02  0.13003730126E+03  0.12499922831E+03 0.  0.
          2    1    1    2  501    0 -0.49492348966E+02  0.66181959005E+01 -0.30865241822E+03  0.31266532970E+03  0.00000000000E+00 0. -1.
          1    1    1    2  502    0  0.71403795851E+02 -0.10321197151E+02  0.59814283560E+03  0.60247811658E+03  0.00000000000E+00 0. -1.
         22    1    3    3    0    0 -0.34162038697E+02 -0.40531584700E+02  0.26023787715E+02  0.59051602631E+02  0.00000000000E+00 0.  1.
         22    1    3    3    0    0  0.12250591812E+02  0.44234585950E+02 -0.54149735140E+02  0.70985698627E+02  0.00000000000E+00 0.  1.
</event>
<event>
 7    1  0.6681656E-006  0.1339968E+03  0.7818608E-02  0.1230479E+00
          2   -1    0    0  502    0  0.00000000000E+00  0.00000000000E+00  0.30752152535E+03  0.30752152535E+03  0.00000000000E+00 0. -1.
          1   -1    0    0  501    0 -0.00000000000E+00 -0.00000000000E+00 -0.35640554268E+03  0.35640554268E+03  0.00000000000E+00 0. -1.
         25    2    1    2    0    0 -0.54046430301E+02 -0.70217682625E+02 -0.45588113776E+02  0.15985972818E+03  0.12500126798E+03 0.  0.
          2    1    1    2  501    0  0.12419446612E+03 -0.50307939163E+02 -0.21334844989E+03  0.25193791939E+03  0.00000000000E+00 0. -1.
          1    1    1    2  502    0 -0.70148035817E+02  0.12052562179E+03  0.21005254633E+03  0.25212942045E+03  0.00000000000E+00 0. -1.
         22    1    3    3    0    0 -0.70968159670E+02  0.53608743968E+01 -0.24628544208E+01  0.71212950459E+02  0.00000000000E+00 0.  1.
         22    1    3    3    0    0  0.16921729370E+02 -0.75578557022E+02 -0.43125259355E+02  0.88646777724E+02  0.00000000000E+00 0.  1.
</event>
<event>
 7    1  0.6681656E-006  0.5201425E+02  0.7818608E-02  0.1559015E+00
          2   -1    0    0  502    0  0.00000000000E+00  0.00000000000E+00  0.16009731979E+03  0.16009731979E+03  0.00000000000E+00 0. -1.
          1   -1    0    0  501    0 -0.00000000000E+00 -0.00000000000E+00 -0.10698721245E+04  0.10698721245E+04  0.00000000000E+00 0. -1.
         25    2    1    2    0    0 -0.69689650573E+02 -0.24071678239E+02 -0.52737756904E+03  0.54698142554E+03  0.12500194586E+03 0.  0.
          2    1    1    2  501    0  0.20059673595E+02  0.91181746500E+01 -0.52798688380E+03  0.52844647892E+03  0.00000000000E+00 0. -1.
          1    1    1    2  502    0  0.49629976979E+02  0.14953503589E+02  0.14558964814E+03  0.15454153982E+03  0.00000000000E+00 0. -1.
         22    1    3    3    0    0 -0.49998071519E+01  0.42253531002E+02 -0.85577244729E+02  0.95571040431E+02  0.00000000000E+00 0. -1.
         22    1    3    3    0    0 -0.64689843422E+02 -0.66325209241E+02 -0.44180032431E+03  0.45141038511E+03  0.00000000000E+00 0. -1.
</event>
<event>
 7    1  0.6681656E-006  0.1133572E+03  0.7818608E-02  0.1257987E+00
          2   -1    0    0  502    0  0.00000000000E+00  0.00000000000E+00  0.16437553933E+04  0.16437553933E+04  0.00000000000E+00 0. -1.
          1   -1    0    0  501    0 -0.00000000000E+00 -0.00000000000E+00 -0.45497664555E+03  0.45497664555E+03  0.00000000000E+00 0. -1.
         25    2    1    2    0    0 -0.12956486662E+02  0.47336477819E+02  0.11633752859E+03  0.17767478468E+03  0.12500118349E+03 0.  0.
          2    1    1    2  501    0  0.11768108269E+03 -0.15387810448E+02 -0.41395572300E+03  0.43063321114E+03  0.00000000000E+00 0. -1.
          1    1    1    2  502    0 -0.10472459603E+03 -0.31948667371E+02  0.14863969422E+04  0.14904240430E+04  0.00000000000E+00 0. -1.
         22    1    3    3    0    0 -0.56377204528E+02  0.25307965575E+01  0.14538663325E+02  0.58276640714E+02  0.00000000000E+00 0.  1.
         22    1    3    3    0    0  0.43420717867E+02  0.44805681262E+02  0.10179886527E+03  0.11939814397E+03  0.00000000000E+00 0.  1.
</event>
<event>
 7    1  0.6681656E-006  0.6267841E+02  0.7818608E-02  0.1447368E+00
          2   -1    0    0  502    0  0.00000000000E+00  0.00000000000E+00  0.13194002790E+04  0.13194002790E+04  0.00000000000E+00 0. -1.
          1   -1    0    0  501    0 -0.00000000000E+00 -0.00000000000E+00 -0.48247835800E+02  0.48247835800E+02  0.00000000000E+00 0. -1.
         25    2    1    2    0    0  0.32407589165E+02 -0.38747933013E+01  0.15384258721E+03  0.20089203162E+03  0.12499920347E+03 0.  0.
          2    1    1    2  501    0 -0.69939440403E+02  0.15503163203E+02  0.28279134651E+02  0.77016769926E+02  0.00000000000E+00 0. -1.
          1    1    1    2  502    0  0.37531851238E+02 -0.11628369902E+02  0.10890307214E+04  0.10897393133E+04  0.00000000000E+00 0. -1.
         22    1    3    3    0    0 -0.37133060315E+02  0.27652582571E+02  0.90615634532E+02  0.10175815797E+03  0.00000000000E+00 0.  1.
         22    1    3    3    0    0  0.69540649480E+02 -0.31527375873E+02  0.63226952680E+02  0.99133873649E+02  0.00000000000E+00 0.  1.
</event>
<event>
 7    1  0.6681656E-006  0.2697013E+03  0.7818608E-02  0.1140276E+00
          2   -1    0    0  502    0  0.00000000000E+00  0.00000000000E+00  0.20162567606E+03  0.20162567606E+03  0.00000000000E+00 0. -1.
          1   -1    0    0  501    0 -0.00000000000E+00 -0.00000000000E+00 -0.17900916547E+04  0.17900916547E+04  0.00000000000E+00 0. -1.
         25    2    1    2    0    0  0.51078865693E+00 -0.16204763117E+03 -0.48383630391E+03  0.52533960868E+03  0.12499775917E+03 0.  0.
          2    1    1    2  501    0 -0.12200284318E+03 -0.11267500650E+03 -0.11505730563E+04  0.11624967564E+04  0.00000000000E+00 0. -1.
          1    1    1    2  502    0  0.12149205452E+03  0.27472263767E+03  0.45943381579E+02  0.30388096563E+03  0.00000000000E+00 0. -1.
         22    1    3    3    0    0  0.29875481494E+02 -0.77410571889E+02 -0.37647509308E+03  0.38551061820E+03  0.00000000000E+00 0.  1.
         22    1    3    3    0    0 -0.29364692837E+02 -0.84637059279E+02 -0.10736121083E+03  0.13982899049E+03  0.00000000000E+00 0.  1.
</event>
<event>
 7    1  0.6681656E-006  0.6127757E+02  0.7818608E-02  0.1479498E+00
          2   -1    0    0  502    0  0.00000000000E+00  0.00000000000E+00  0.52074143766E+03  0.52074143766E+03  0.00000000000E+00 0. -1.
          1   -1    0    0  501    0 -0.00000000000E+00 -0.00000000000E+00 -0.18580085529E+04  0.18580085529E+04  0.00000000000E+00 0. -1.
         25    2    1    2    0    0  0.61842021933E+02 -0.90307029556E+01 -0.23864629151E+03  0.27655531633E+03  0.12499920506E+03 0.  0.
          2    1    1    2  501    0 -0.57227514334E+02 -0.22492801220E+02 -0.15993106434E+04  0.16004922520E+04  0.00000000000E+00 0. -1.
          1    1    1    2  502    0 -0.46145075989E+01  0.31523504175E+02  0.50068981966E+03  0.50170242227E+03  0.00000000000E+00 0. -1.
         22    1    3    3    0    0  0.78992976513E+02  0.71082692199E+00 -0.24370839715E+03  0.25619168303E+03  0.00000000000E+00 0.  1.
         22    1    3    3    0    0 -0.17150954580E+02 -0.97415298775E+01  0.50621056447E+01  0.20363633294E+02  0.00000000000E+00 0.  1.
</event>
<event>
 7    1  0.6681656E-006  0.2196374E+03  0.7818608E-02  0.1250174E+00
          2   -1    0    0  502    0  0.00000000000E+00  0.00000000000E+00  0.13465826499E+04  0.13465826499E+04  0.00000000000E+00 0. -1.
          1   -1    0    0  501    0 -0.00000000000E+00 -0.00000000000E+00 -0.91241019692E+03  0.91241019692E+03  0.00000000000E+00 0. -1.
         25    2    1    2    0    0 -0.17248221036E+02 -0.16970576728E+03  0.95582234098E+02  0.23207110447E+03  0.12499394177E+03 0.  0.
          2    1    1    2  501    0  0.19237802506E+02 -0.57954084055E+02 -0.83208060567E+03  0.83431822659E+03  0.00000000000E+00 0. -1.
          1    1    1    2  502    0 -0.19895814704E+01  0.22765985134E+03  0.11706708246E+04  0.11926035158E+04  0.00000000000E+00 0. -1.
         22    1    3    3    0    0  0.46866122015E+02 -0.12225240086E+03  0.68975613253E+02  0.14798553352E+03  0.00000000000E+00 0.  1.
         22    1    3    3    0    0 -0.64114343050E+02 -0.47453366423E+02  0.26606620845E+02  0.84085570953E+02  0.00000000000E+00 0.  1.
</event>
<event>
 7    1  0.6681656E-006  0.1937959E+03  0.7818608E-02  0.1245549E+00
          2   -1    0    0  502    0  0.00000000000E+00  0.00000000000E+00  0.13772364736E+04  0.13772364736E+04  0.00000000000E+00 0. -1.
          1   -1    0    0  501    0 -0.00000000000E+00 -0.00000000000E+00 -0.10527710323E+04  0.10527710323E+04  0.00000000000E+00 0. -1.
         25    2    1    2    0    0 -0.90533585589E+02  0.10384634693E+03  0.20130931446E+03  0.27409899107E+03  0.12499769168E+03 0.  0.
          2    1    1    2  501    0 -0.31890148913E+02  0.65099237112E+02 -0.10055104056E+04  0.10081200663E+04  0.00000000000E+00 0. -1.
          1    1    1    2  502    0  0.12242373450E+03 -0.16894558405E+03  0.11286665324E+04  0.11477884485E+04  0.00000000000E+00 0. -1.
         22    1    3    3    0    0 -0.10851367684E+03  0.10475456597E+03  0.20617106722E+03  0.25545106403E+03  0.00000000000E+00 0. -1.
         22    1    3    3    0    0  0.17980091250E+02 -0.90821903532E+00 -0.48617527612E+01  0.18647927045E+02  0.00000000000E+00 0. -1.
</event>
<event>
 7    1  0.6681656E-006  0.1133739E+03  0.7818608E-02  0.1370419E+00
          2   -1    0    0  502    0  0.00000000000E+00  0.00000000000E+00  0.18413020566E+03  0.18413020566E+03  0.00000000000E+00 0. -1.
          1   -1    0    0  501    0 -0.00000000000E+00 -0.00000000000E+00 -0.77842913021E+03  0.77842913021E+03  0.00000000000E+00 0. -1.
         25    2    1    2    0    0 -0.50432484708E+02 -0.61038161567E+02 -0.34335389797E+03  0.37388082251E+03  0.12500350999E+03 0.  0.
          2    1    1    2  501    0 -0.37071353505E+02 -0.14079364291E+02 -0.39902426602E+03  0.40098987347E+03  0.00000000000E+00 0. -1.
          1    1    1    2  502    0  0.87503838213E+02  0.75117525859E+02  0.14807923944E+03  0.18768863990E+03  0.00000000000E+00 0. -1.
         22    1    3    3    0    0 -0.51844710961E+02 -0.81232192522E+02 -0.14259720715E+03  0.17210609124E+03  0.00000000000E+00 0.  1.
         22    1    3    3    0    0  0.14122262525E+01  0.20194030955E+02 -0.20075669082E+03  0.20177473127E+03  0.00000000000E+00 0.  1.
</event>
<event>
 7    1  0.6681656E-006  0.3719605E+03  0.7818608E-02  0.1272220E+00
          2   -1    0    0  502    0  0.00000000000E+00  0.00000000000E+00  0.32986651112E+03  0.32986651112E+03  0.00000000000E+00 0. -1.
          1   -1    0    0  501    0 -0.00000000000E+00 -0.00000000000E+00 -0.87950777320E+03  0.87950777320E+03  0.00000000000E+00 0. -1.
         25    2    1    2    0    0  0.26371494388E+03 -0.23596973129E+03 -0.37019953954E+03  0.52716125865E+03  0.12499603125E+03 0.  0.
          2    1    1    2  501    0  0.61762663405E+01 -0.28381149316E+02 -0.28774630517E+03  0.28920852691E+03  0.00000000000E+00 0. -1.
          1    1    1    2  502    0 -0.26989121022E+03  0.26435088061E+03  0.10830458263E+03  0.39300449876E+03  0.00000000000E+00 0. -1.
         22    1    3    3    0    0  0.10159593430E+03 -0.24398373098E+02 -0.14186126420E+03  0.17618635803E+03  0.00000000000E+00 0. -1.
         22    1    3    3    0    0  0.16211900958E+03 -0.21157135819E+03 -0.22833827534E+03  0.35097490061E+03  0.00000000000E+00 0. -1.
</event>
<event>
 7    1  0.6681656E-006  0.7299276E+02  0.7818608E-02  0.1407408E+00
          2   -1    0    0  502    0  0.00000000000E+00  0.00000000000E+00  0.10999565839E+04  0.10999565839E+04  0.00000000000E+00 0. -1.
          1   -1    0    0  501    0 -0.00000000000E+00 -0.00000000000E+00 -0.26614740847E+02  0.26614740847E+02  0.00000000000E+00 0. -1.
         25    2    1    2    0    0  0.37172435307E+02  0.29207260379E+02  0.43095485924E+03  0.45121677778E+03  0.12505852966E+03 0.  0.
          2    1    1    2  501    0 -0.55182987801E+01  0.45397819713E+02  0.23938080159E+02  0.51618265544E+02  0.00000000000E+00 0. -1.
          1    1    1    2  502    0 -0.31654136527E+02 -0.74605080092E+02  0.61844890363E+03  0.62373628140E+03  0.00000000000E+00 0. -1.
         22    1    3    3    0    0 -0.17754334330E+02 -0.59543433625E+01  0.37948014086E+01  0.19106834120E+02  0.00000000000E+00 0.  1.
         22    1    3    3    0    0  0.54926769637E+02  0.35161603741E+02  0.42716005783E+03  0.43210994366E+03  0.00000000000E+00 0.  1.
</event>
<event>
 7    1  0.6681656E-006  0.6384858E+02  0.7818608E-02  0.1405700E+00
          2   -1    0    0  502    0  0.00000000000E+00  0.00000000000E+00  0.23733785824E+04  0.23733785824E+04  0.00000000000E+00 0. -1.
          1   -1    0    0  501    0 -0.00000000000E+00 -0.00000000000E+00 -0.84599430062E+02  0.84599430062E+02  0.00000000000E+00 0. -1.
         25    2    1    2    0    0 -0.53714948452E+01 -0.22857963721E+02  0.59441208314E+03  0.60786695452E+03  0.12500068144E+03 0.  0.
          2    1    1    2  501    0 -0.38844612453E+02  0.52055175439E+02 -0.63859588302E+02  0.91086180207E+02  0.00000000000E+00 0. -1.
          1    1    1    2  502    0  0.44216107298E+02 -0.29197211718E+02  0.17582266575E+04  0.17590248778E+04  0.00000000000E+00 0. -1.
         22    1    3    3    0    0  0.36652658413E+02 -0.17160329065E+02  0.52477192753E+03  0.52633019122E+03  0.00000000000E+00 0.  1.
         22    1    3    3    0    0 -0.42024153258E+02 -0.56976346566E+01  0.69640155601E+02  0.81536763302E+02  0.00000000000E+00 0.  1.
</event>
<event>
 7    1  0.6681656E-006  0.1290394E+03  0.7818608E-02  0.1316697E+00
          2   -1    0    0  502    0  0.00000000000E+00  0.00000000000E+00  0.19497428896E+04  0.19497428896E+04  0.00000000000E+00 0. -1.
          1   -1    0    0  501    0 -0.00000000000E+00 -0.00000000000E+00 -0.12473803138E+04  0.12473803138E+04  0.00000000000E+00 0. -1.
         25    2    1    2    0    0  0.12190857947E+03 -0.11405140239E+03  0.31683723510E+03  0.37931531944E+03  0.12499941553E+03 0.  0.
          2    1    1    2  501    0 -0.10470565343E+02  0.54358427567E+02 -0.12130144953E+04  0.12142770019E+04  0.00000000000E+00 0. -1.
          1    1    1    2  502    0 -0.11143801412E+03  0.59692974820E+02  0.15985398360E+04  0.16035308820E+04  0.00000000000E+00 0. -1.
         22    1    3    3    0    0  0.39380611175E+02 -0.11824755547E+03  0.16952943579E+03  0.21041280025E+03  0.00000000000E+00 0.  1.
         22    1    3    3    0    0  0.82527968291E+02  0.41961530785E+01  0.14730779931E+03  0.16890251919E+03  0.00000000000E+00 0.  1.
</event>
<event>
 7    1  0.6681656E-006  0.1658846E+03  0.7818608E-02  0.1272246E+00
          2   -1    0    0  502    0  0.00000000000E+00  0.00000000000E+00  0.19778893152E+04  0.19778893152E+04  0.00000000000E+00 0. -1.
          1   -1    0    0  501    0 -0.00000000000E+00 -0.00000000000E+00 -0.18564816399E+04  0.18564816399E+04  0.00000000000E+00 0. -1.
         25    2    1    2    0    0 -0.13815339159E+03 -0.16478715588E+03 -0.68003421216E+03  0.72409416571E+03  0.12499865904E+03 0.  0.
          2    1    1    2  501    0  0.82667878917E+02  0.13071490853E+03 -0.11486914859E+04  0.11590567265E+04  0.00000000000E+00 0. -1.
          1    1    1    2  502    0  0.55485512669E+02  0.34072247353E+02  0.19501333733E+04  0.19512200629E+04  0.00000000000E+00 0. -1.
         22    1    3    3    0    0 -0.10932972848E+03 -0.56138127305E+02 -0.47080150246E+03  0.48657839409E+03  0.00000000000E+00 0. -1.
         22    1    3    3    0    0 -0.28823663102E+02 -0.10864902858E+03 -0.20923270969E+03  0.23751577163E+03  0.00000000000E+00 0. -1.
</event>
<event>
 7    1  0.6681656E-006  0.6825776E+02  0.7818608E-02  0.1452875E+00
          2   -1    0    0  502    0  0.00000000000E+00  0.00000000000E+00  0.11790726618E+03  0.11790726618E+03  0.00000000000E+00 0. -1.
          1   -1    0    0  501    0 -0.00000000000E+00 -0.00000000000E+00 -0.18622033216E+04  0.18622033216E+04  0.00000000000E+00 0. -1.
         25    2    1    2    0    0 -0.13636747060E+02 -0.38926092942E+02 -0.19352443756E+03  0.23404749256E+03  0.12500127703E+03 0.  0.
          2    1    1    2  501    0  0.45640795310E+02  0.52196276449E+02 -0.16445904623E+04  0.16460514337E+04  0.00000000000E+00 0. -1.
          1    1    1    2  502    0 -0.32004048250E+02 -0.13270183507E+02  0.93818844456E+02  0.10001166157E+03  0.00000000000E+00 0. -1.
         22    1    3    3    0    0  0.95996694964E+01 -0.40665175344E+02 -0.20419001286E+03  0.20842113975E+03  0.00000000000E+00 0. -1.
         22    1    3    3    0    0 -0.23236416557E+02  0.17390824024E+01  0.10665575304E+02  0.25626352814E+02  0.00000000000E+00 0. -1.
</event>
<event>
 7    1  0.6681656E-006  0.9640528E+02  0.7818608E-02  0.1428948E+00
          2   -1    0    0  502    0  0.00000000000E+00  0.00000000000E+00  0.19719094233E+04  0.19719094233E+04  0.00000000000E+00 0. -1.
          1   -1    0    0  501    0 -0.00000000000E+00 -0.00000000000E+00 -0.35590773145E+03  0.35590773145E+03  0.00000000000E+00 0. -1.
         25    2    1    2    0    0  0.11414197501E+02  0.12465769672E+03  0.38931955919E+03  0.42763080558E+03  0.12501424502E+03 0.  0.
          2    1    1    2  501    0 -0.69582350260E+01 -0.95671547751E+02 -0.32978013995E+03  0.34344781669E+03  0.00000000000E+00 0. -1.
          1    1    1    2  502    0 -0.44559624749E+01 -0.28986148972E+02  0.15564622726E+04  0.15567385324E+04  0.00000000000E+00 0. -1.
         22    1    3    3    0    0 -0.28578172287E+02  0.12972859874E+03  0.25692099851E+03  0.28923108536E+03  0.00000000000E+00 0.  1.
         22    1    3    3    0    0  0.39992369788E+02 -0.50709020140E+01  0.13239856067E+03  0.13839972022E+03  0.00000000000E+00 0.  1.
</event>
<event>
 7    1  0.6681656E-006  0.7560256E+02  0.7818608E-02  0.1475496E+00
          2   -1    0    0  502    0  0.00000000000E+00  0.00000000000E+00  0.88331805715E+03  0.88331805715E+03  0.00000000000E+00 0. -1.
          1   -1    0    0  501    0 -0.00000000000E+00 -0.00000000000E+00 -0.36659262196E+03  0.36659262196E+03  0.00000000000E+00 0. -1.
         25    2    1    2    0    0 -0.40241798659E+02 -0.30501090347E+02 -0.39046663422E+02  0.14035265426E+03  0.12499802703E+03 0.  0.
          2    1    1    2  501    0 -0.25257378187E+02 -0.82344842887E+01 -0.27451182631E+03  0.27579427961E+03  0.00000000000E+00 0. -1.
          1    1    1    2  502    0  0.65499176846E+02  0.38735574636E+02  0.83028392491E+03  0.83376374524E+03  0.00000000000E+00 0. -1.
         22    1    3    3    0    0  0.40260060151E+02 -0.32661046322E+02 -0.28427269289E+02  0.59124665153E+02  0.00000000000E+00 0. -1.
         22    1    3    3    0    0 -0.80501858810E+02  0.21599559749E+01 -0.10619394132E+02  0.81227989102E+02  0.00000000000E+00 0. -1.
</event>
<event>
 7    1  0.6681656E-006  0.1207609E+03  0.7818608E-02  0.1399816E+00
          2   -1    0    0  502    0  0.00000000000E+00  0.00000000000E+00  0.13527839904E+04  0.13527839904E+04  0.00000000000E+00 0. -1.
          1   -1    0    0  501    0 -0.00000000000E+00 -0.00000000000E+00 -0.19455612402E+03  0.19455612402E+03  0.00000000000E+00 0. -1.
         25    2    1    2    0    0  0.11510552338E+03 -0.51331835552E+02  0.18608950906E+03  0.25717369741E+03  0.12499906561E+03 0.  0.
          2    1    1    2  501    0  0.34050308229E+01  0.29147285104E+02 -0.15441538938E+03  0.15717910466E+03  0.00000000000E+00 0. -1.
          1    1    1    2  502    0 -0.11851055420E+03  0.22184550448E+02  0.11265537467E+04  0.11329873123E+04  0.00000000000E+00 0. -1.
         22    1    3    3    0    0  0.75493339768E+01 -0.68208278907E+02  0.70567526172E+02  0.98433416607E+02  0.00000000000E+00 0.  1.
         22    1    3    3    0    0  0.10755618940E+03  0.16876443354E+02  0.11552198289E+03  0.15874028080E+03  0.00000000000E+00 0.  1.
</event>
<event>
 7    1  0.6681656E-006  0.5989675E+02  0.7818608E-02  0.1432154E+00
          2   -1    0    0  502    0  0.00000000000E+00  0.00000000000E+00  0.10376514281E+04  0.10376514281E+04  0.00000000000E+00 0. -1.
          1   -1    0    0  501    0 -0.00000000000E+00 -0.00000000000E+00 -0.89780938933E+03  0.89780938933E+03  0.00000000000E+00 0. -1.
         25    2    1    2    0    0  0.12493206599E+01  0.70531550583E+02 -0.12787060462E+02  0.14409976328E+03  0.12499988973E+03 0.  0.
          2    1    1    2  501    0 -0.39241076477E+02 -0.24135300196E+02 -0.81779216360E+03  0.81908876054E+03  0.00000000000E+00 0. -1.
          1    1    1    2  502    0  0.37991755817E+02 -0.46396250387E+02  0.97042126283E+03  0.97227229360E+03  0.00000000000E+00 0. -1.
         22    1    3    3    0    0  0.22487923363E+02 -0.57979199443E+01  0.41847422694E+02  0.47859475122E+02  0.00000000000E+00 0. -1.
         22    1    3    3    0    0 -0.21238602703E+02  0.76329470527E+02 -0.54634483156E+02  0.96240288162E+02  0.00000000000E+00 0. -1.
</event>
<event>
 7    1  0.6681656E-006  0.1004633E+03  0.7818608E-02  0.1298230E+00
          2   -1    0    0  502    0  0.00000000000E+00  0.00000000000E+00  0.23894559147E+03  0.23894559147E+03  0.00000000000E+00 0. -1.
          1   -1    0    0  501    0 -0.00000000000E+00 -0.00000000000E+00 -0.32012079528E+03  0.32012079528E+03  0.00000000000E+00 0. -1.
         25    2    1    2    0    0  0.22745938019E+02  0.13882600152E+03 -0.51641793123E+01  0.18825958798E+03  0.12499986929E+03 0.  0.
          2    1    1    2  501    0  0.44170179041E+02 -0.87831280087E+02 -0.19890404146E+03  0.22187419000E+03  0.00000000000E+00 0. -1.
          1    1    1    2  502    0 -0.66916117060E+02 -0.50994721437E+02  0.12289301697E+03  0.14893260877E+03  0.00000000000E+00 0. -1.
         22    1    3    3    0    0  0.48124623674E+02  0.21683328502E+02 -0.36738063464E+02  0.64310430303E+02  0.00000000000E+00 0. -1.
         22    1    3    3    0    0 -0.25378685655E+02  0.11714267302E+03  0.31573884152E+02  0.12394915768E+03  0.00000000000E+00 0. -1.
</event>
<event>
 7    1  0.6681656E-006  0.6031577E+02  0.7818608E-02  0.1541647E+00
          2   -1    0    0  502    0  0.00000000000E+00  0.00000000000E+00  0.43041614239E+03  0.43041614239E+03  0.00000000000E+00 0. -1.
          1   -1    0    0  501    0 -0.00000000000E+00 -0.00000000000E+00 -0.10561148499E+03  0.10561148499E+03  0.00000000000E+00 0. -1.
         25    2    1    2    0    0  0.41227948765E+02 -0.30770874101E+02  0.24381698930E+03  0.27877982511E+03  0.12499950467E+03 0.  0.
          2    1    1    2  501    0  0.19105289917E+02  0.92885452515E+01 -0.80641533415E+02  0.83392722028E+02  0.00000000000E+00 0. -1.
          1    1    1    2  502    0 -0.60333238682E+02  0.21482328850E+02  0.16162920152E+03  0.17385508024E+03  0.00000000000E+00 0. -1.
         22    1    3    3    0    0 -0.44582969442E+02 -0.11256818819E+02  0.66818323780E+02  0.81111315653E+02  0.00000000000E+00 0.  1.
         22    1    3    3    0    0  0.85810918207E+02 -0.19514055282E+02  0.17699866552E+03  0.19766850946E+03  0.00000000000E+00 0.  1.
</event>
<event>
 7    1  0.6681656E-006  0.6764016E+02  0.7818608E-02  0.1430281E+00
          2   -1    0    0  502    0  0.00000000000E+00  0.00000000000E+00  0.26621451625E+03  0.26621451625E+03  0.00000000000E+00 0. -1.
          1   -1    0    0  501    0 -0.00000000000E+00 -0.00000000000E+00 -0.16584702595E+03  0.16584702595E+03  0.00000000000E+00 0. -1.
         25    2    1    2    0    0 -0.28263972106E+02  0.51571353224E+02 -0.39178185974E+02  0.14359237369E+03  0.12500153173E+03 0.  0.
          2    1    1    2  501    0 -0.69098312154E+01 -0.73363889364E+02 -0.53485299729E+02  0.91053189494E+02  0.00000000000E+00 0. -1.
          1    1    1    2  502    0  0.35173803321E+02  0.21792536140E+02  0.19303097600E+03  0.19741597901E+03  0.00000000000E+00 0. -1.
         22    1    3    3    0    0 -0.19324827661E+02 -0.23268090274E+02  0.29041970189E+02  0.41931957044E+02  0.00000000000E+00 0. -1.
         22    1    3    3    0    0 -0.89391444452E+01  0.74839443497E+02 -0.68220156164E+02  0.10166041665E+03  0.00000000000E+00 0. -1.
</event>
<event>
 7    1  0.6681656E-006  0.1533639E+03  0.7818608E-02  0.1196473E+00
          2   -1    0    0  502    0  0.00000000000E+00  0.00000000000E+00  0.96948903304E+02  0.96948903304E+02  0.00000000000E+00 0. -1.
          1   -1    0    0  501    0 -0.00000000000E+00 -0.00000000000E+00 -0.96165046557E+03  0.96165046557E+03  0.00000000000E+00 0. -1.
         25    2    1    2    0    0 -0.79744830949E+02  0.11943634253E+03 -0.46061571305E+03  0.49841372696E+03  0.12500052052E+03 0.  0.
          2    1    1    2  501    0  0.14908321209E+03  0.35455555028E+02 -0.34999113940E+03  0.38206897044E+03  0.00000000000E+00 0. -1.
          1    1    1    2  502    0 -0.69338381144E+02 -0.15489189756E+03 -0.54094709814E+02  0.17811667148E+03  0.00000000000E+00 0. -1.
         22    1    3    3    0    0  0.28868623756E+02  0.39148960954E+02 -0.71113299264E+02  0.86157645706E+02  0.00000000000E+00 0.  1.
         22    1    3    3    0    0 -0.10861345470E+03  0.80287381578E+02 -0.38950241379E+03  0.41225608125E+03  0.00000000000E+00 0.  1.
</event>
<event>
 7    1  0.6681656E-006  0.7947072E+02  0.7818608E-02  0.1338329E+00
          2   -1    0    0  502    0  0.00000000000E+00  0.00000000000E+00  0.38188039744E+03  0.38188039744E+03  0.00000000000E+00 0. -1.
          1   -1    0    0  501    0 -0.00000000000E+00 -0.00000000000E+00 -0.92540623454E+03  0.92540623454E+03  0.00000000000E+00 0. -1.
         25    2    1    2    0    0  0.63895389034E+02  0.44215269426E+02 -0.41096618811E+03  0.43652781187E+03  0.12500284785E+03 0.  0.
          2    1    1    2  501    0  0.62511627083E+01 -0.81565730506E+02 -0.49397828141E+03  0.50070608937E+03  0.00000000000E+00 0. -1.
          1    1    1    2  502    0 -0.70146551742E+02  0.37350461080E+02  0.36141863243E+03  0.37005273074E+03  0.00000000000E+00 0. -1.
         22    1    3    3    0    0 -0.36139908703E+02  0.24067017996E+02 -0.94075505988E+02  0.10361233123E+03  0.00000000000E+00 0. -1.
         22    1    3    3    0    0  0.10003529774E+03  0.20148251430E+02 -0.31689068213E+03  0.33291548064E+03  0.00000000000E+00 0. -1.
</event>
<event>
 7    1  0.6681656E-006  0.7823571E+02  0.7818608E-02  0.1357481E+00
          2   -1    0    0  502    0  0.00000000000E+00  0.00000000000E+00  0.72705915963E+03  0.72705915963E+03  0.00000000000E+00 0. -1.
          1   -1    0    0  501    0 -0.00000000000E+00 -0.00000000000E+00 -0.75921032478E+02  0.75921032478E+02  0.00000000000E+00 0. -1.
         25    2    1    2    0    0  0.10362953935E+01  0.30410035953E+02  0.11179701444E+03  0.17044873170E+03  0.12501341330E+03 0.  0.
          2    1    1    2  501    0  0.55559091754E+02  0.31815519725E+02 -0.19864993970E+02  0.67034751863E+02  0.00000000000E+00 0. -1.
          1    1    1    2  502    0 -0.56595387148E+02 -0.62225555678E+02  0.55920610668E+03  0.56549670854E+03  0.00000000000E+00 0. -1.
         22    1    3    3    0    0  0.47451681505E+02 -0.20031111036E+02  0.18608736424E+02  0.54764884354E+02  0.00000000000E+00 0. -1.
         22    1    3    3    0    0 -0.46415386111E+02  0.50441146989E+02  0.93188278019E+02  0.11568384735E+03  0.00000000000E+00 0. -1.
</event>
<event>
 7    1  0.6681656E-006  0.4147450E+02  0.7818608E-02  0.1571922E+00
          2   -1    0    0  502    0  0.00000000000E+00  0.00000000000E+00  0.16102012393E+04  0.16102012393E+04  0.00000000000E+00 0. -1.
          1   -1    0    0  501    0 -0.00000000000E+00 -0.00000000000E+00 -0.39876952516E+02  0.39876952516E+02  0.00000000000E+00 0. -1.
         25    2    1    2    0    0  0.36341709047E+02  0.26241710186E+02  0.32261066111E+03  0.34887157595E+03  0.12499756267E+03 0.  0.
          2    1    1    2  501    0 -0.22030077665E+02  0.12799649837E+02 -0.20259695807E+02  0.32551660973E+02  0.00000000000E+00 0. -1.
          1    1    1    2  502    0 -0.14311631382E+02 -0.39041360023E+02  0.12679733215E+04  0.12686549549E+04  0.00000000000E+00 0. -1.
         22    1    3    3    0    0  0.55458020905E+02 -0.15445306164E+02  0.63407835372E+02  0.85642881500E+02  0.00000000000E+00 0.  1.
         22    1    3    3    0    0 -0.19116311858E+02  0.41687016349E+02  0.25920282574E+03  0.26322869445E+03  0.00000000000E+00 0.  1.
</event>
<event>
 7    1  0.6681656E-006  0.7967387E+02  0.7818608E-02  0.1450881E+00
          2   -1    0    0  502    0  0.00000000000E+00  0.00000000000E+00  0.19463689521E+04  0.19463689521E+04  0.00000000000E+00 0. -1.
          1   -1    0    0  501    0 -0.00000000000E+00 -0.00000000000E+00 -0.95126970981E+02  0.95126970981E+02  0.00000000000E+00 0. -1.
         25    2    1    2    0    0  0.33504531008E+02 -0.60149184321E+02  0.30847874301E+03  0.33988903810E+03  0.12499978142E+03 0.  0.
          2    1    1    2  501    0 -0.10782614752E+02  0.79920746604E+02 -0.58771984169E+02  0.99788459462E+02  0.00000000000E+00 0. -1.
          1    1    1    2  502    0 -0.22721916256E+02 -0.19771562283E+02  0.16015352222E+04  0.16018184255E+04  0.00000000000E+00 0. -1.
         22    1    3    3    0    0  0.76230242678E+02 -0.62110561144E+02  0.23703647285E+03  0.25662240971E+03  0.00000000000E+00 0.  1.
         22    1    3    3    0    0 -0.42725711670E+02  0.19613768232E+01  0.71442270166E+02  0.83266628389E+02  0.00000000000E+00 0.  1.
</event>
<event>
 7    1  0.6681656E-006  0.1473518E+03  0.7818608E-02  0.1398918E+00
          2   -1    0    0  502    0  0.00000000000E+00  0.00000000000E+00  0.14078867074E+04  0.14078867074E+04  0.00000000000E+00 0. -1.
          1   -1    0    0  501    0 -0.00000000000E+00 -0.00000000000E+00 -0.14016170989E+03  0.14016170989E+03  0.00000000000E+00 0. -1.
         25    2    1    2    0    0  0.83785401198E+02  0.10527188363E+03  0.26095882834E+03  0.31910327997E+03  0.12500092103E+03 0.  0.
          2    1    1    2  501    0 -0.10796179198E+03 -0.10379280056E+03 -0.60415162321E+02  0.16148896499E+03  0.00000000000E+00 0. -1.
          1    1    1    2  502    0  0.24176390786E+02 -0.14790830758E+01  0.10671813315E+04  0.10674561723E+04  0.00000000000E+00 0. -1.
         22    1    3    3    0    0  0.90590141728E+02  0.72699635812E+02  0.95620195893E+02  0.15044943565E+03  0.00000000000E+00 0. -1.
         22    1    3    3    0    0 -0.68047405303E+01  0.32572247822E+02  0.16533863245E+03  0.16865384431E+03  0.00000000000E+00 0. -1.
</event>
<event>
 7    1  0.6681656E-006  0.1090114E+03  0.7818608E-02  0.1344055E+00
          2   -1    0    0  502    0  0.00000000000E+00  0.00000000000E+00  0.35731663002E+04  0.35731663002E+04  0.00000000000E+00 0. -1.
          1   -1    0    0  501    0 -0.00000000000E+00 -0.00000000000E+00 -0.11375738757E+04  0.11375738757E+04  0.00000000000E+00 0. -1.
         25    2    1    2    0    0  0.56473375013E+02  0.10713015655E+03  0.46104083227E+03  0.49279784873E+03  0.12499983263E+03 0.  0.
          2    1    1    2  501    0 -0.51490632412E+02  0.16898215456E+01 -0.11201449866E+04  0.11213290916E+04  0.00000000000E+00 0. -1.
          1    1    1    2  502    0 -0.49827426007E+01 -0.10881997810E+03  0.30946965788E+04  0.30966132355E+04  0.00000000000E+00 0. -1.
         22    1    3    3    0    0  0.10321234690E+02  0.96655509712E+02  0.41689882032E+03  0.42808111594E+03  0.00000000000E+00 0.  1.
         22    1    3    3    0    0  0.46152140323E+02  0.10474646840E+02  0.44142011955E+02  0.64716732784E+02  0.00000000000E+00 0.  1.
</event>
<event>
 7    1  0.6681656E-006  0.5091307E+02  0.7818608E-02  0.1517563E+00
          2   -1    0    0  502    0  0.00000000000E+00  0.00000000000E+00  0.15680909808E+04  0.15680909808E+04  0.00000000000E+00 0. -1.
          1   -1    0    0  501    0 -0.00000000000E+00 -0.00000000000E+00 -0.18426456164E+03  0.18426456164E+03  0.00000000000E+00 0. -1.
         25    2    1    2    0    0 -0.32674436393E+02 -0.26501931047E+02  0.20440343308E+03  0.24325913453E+03  0.12499708771E+03 0.  0.
          2    1    1    2  501    0 -0.18528844426E+02  0.22959351479E+02 -0.16302219725E+03  0.16567041587E+03  0.00000000000E+00 0. -1.
          1    1    1    2  502    0  0.51203280820E+02  0.35425795680E+01  0.13424451834E+04  0.13434259921E+04  0.00000000000E+00 0. -1.
         22    1    3    3    0    0 -0.58025626508E+02  0.19902499235E+01  0.31210442268E+02  0.65916812218E+02  0.00000000000E+00 0. -1.
         22    1    3    3    0    0  0.25351190115E+02 -0.28492180971E+02  0.17319299082E+03  0.17734232232E+03  0.00000000000E+00 0. -1.
</event>
<event>
 7    1  0.6681656E-006  0.6352450E+02  0.7818608E-02  0.1417401E+00
          2   -1    0    0  502    0  0.00000000000E+00  0.00000000000E+00  0.99097909368E+02  0.99097909368E+02  0.00000000000E+00 0. -1.
          1   -1    0    0  501    0 -0.00000000000E+00 -0.00000000000E+00 -0.12182753191E+04  0.12182753191E+04  0.00000000000E+00 0. -1.
         25    2    1    2    0    0  0.44018152046E+02 -0.35000947905E+02 -0.65532918511E+02  0.15192765810E+03  0.12499914330E+03 0.  0.
          2    1    1    2  501    0 -0.49022535078E+01  0.63876554481E+02 -0.10978599287E+04  0.10997275433E+04  0.00000000000E+00 0. -1.
          1    1    1    2  502    0 -0.39115898538E+02 -0.28875606576E+02  0.44215437500E+02  0.65718027107E+02  0.00000000000E+00 0. -1.
         22    1    3    3    0    0  0.43183634947E+01 -0.64892249622E+02  0.54659646110E+01  0.65265067941E+02  0.00000000000E+00 0.  1.
         22    1    3    3    0    0  0.39699788551E+02  0.29891301717E+02 -0.70998883121E+02  0.86662590163E+02  0.00000000000E+00 0.  1.
</event>
<event>
 7    1  0.6681656E-006  0.6177534E+02  0.7818608E-02  0.1483428E+00
          2   -1    0    0  502    0  0.00000000000E+00  0.00000000000E+00  0.33900014865E+03  0.33900014865E+03  0.00000000000E+00 0. -1.
          1   -1    0    0  501    0 -0.00000000000E+00 -0.00000000000E+00 -0.71153017577E+03  0.71153017577E+03  0.00000000000E+00 0. -1.
         25    2    1    2    0    0  0.49068191790E+02  0.13194218224E+02 -0.10056126190E+03  0.16828443748E+03  0.12500123864E+03 0.  0.
          2    1    1    2  501    0 -0.44921277251E+02 -0.43652412601E+02 -0.57462691218E+03  0.57803074527E+03  0.00000000000E+00 0. -1.
          1    1    1    2  502    0 -0.41469145394E+01  0.30458194377E+02  0.30265814696E+03  0.30421514168E+03  0.00000000000E+00 0. -1.
         22    1    3    3    0    0 -0.60936174175E+01  0.55871709542E+02 -0.75612357162E+02  0.94212571644E+02  0.00000000000E+00 0. -1.
         22    1    3    3    0    0  0.55161809207E+02 -0.42677491318E+02 -0.24948904742E+02  0.74071865833E+02  0.00000000000E+00 0. -1.
</event>
<event>
 7    1  0.6681656E-006  0.5405246E+02  0.7818608E-02  0.1454255E+00
          2   -1    0    0  502    0  0.00000000000E+00  0.00000000000E+00  0.21755824225E+04  0.21755824225E+04  0.00000000000E+00 0. -1.
          1   -1    0    0  501    0 -0.00000000000E+00 -0.00000000000E+00 -0.12975817963E+03  0.12975817963E+03  0.00000000000E+00 0. -1.
         25    2    1    2    0    0 -0.91126347761E+02  0.10405333976E+02  0.60263704608E+03  0.62226027724E+03  0.12499664434E+03 0.  0.
          2    1    1    2  501    0  0.52818646415E+02  0.98024772905E+01 -0.11361528330E+03  0.12567549709E+03  0.00000000000E+00 0. -1.
          1    1    1    2  502    0  0.38307701345E+02 -0.20207811267E+02  0.15568024801E+04  0.15574048278E+04  0.00000000000E+00 0. -1.
         22    1    3    3    0    0 -0.35091028965E+02  0.46921280823E+02  0.47076134844E+03  0.47439354347E+03  0.00000000000E+00 0. -1.
         22    1    3    3    0    0 -0.56035318796E+02 -0.36515946846E+02  0.13187569764E+03  0.14786673377E+03  0.00000000000E+00 0. -1.
</event>
<event>
 7    1  0.6681656E-006  0.1572579E+03  0.7818608E-02  0.1334848E+00
          2   -1    0    0  502    0  0.00000000000E+00  0.00000000000E+00  0.18061313631E+03  0.18061313631E+03  0.00000000000E+00 0. -1.
          1   -1    0    0  501    0 -0.00000000000E+00 -0.00000000000E+00 -0.15095621029E+04  0.15095621029E+04  0.00000000000E+00 0. -1.
         25    2    1    2    0    0 -0.13321149661E+03 -0.12474465172E+03 -0.60467408494E+03  0.64385897912E+03  0.12496841617E+03 0.  0.
          2    1    1    2  501    0  0.95884711701E+02  0.11460192649E+03 -0.87655533863E+03  0.88920005689E+03  0.00000000000E+00 0. -1.
          1    1    1    2  502    0  0.37326784906E+02  0.10142725233E+02  0.15228045695E+03  0.15711620323E+03  0.00000000000E+00 0. -1.
         22    1    3    3    0    0 -0.77490075542E+02 -0.11441039725E+03 -0.25886978672E+03  0.29344167612E+03  0.00000000000E+00 0. -1.
         22    1    3    3    0    0 -0.55721421064E+02 -0.10334254477E+02 -0.34580429821E+03  0.35041730300E+03  0.00000000000E+00 0. -1.
</event>
<event>
 7    1  0.6681656E-006  0.1112222E+03  0.7818608E-02  0.1263296E+00
          2   -1    0    0  502    0  0.00000000000E+00  0.00000000000E+00  0.25787081168E+04  0.25787081168E+04  0.00000000000E+00 0. -1.
          1   -1    0    0  501    0 -0.00000000000E+00 -0.00000000000E+00 -0.48040841964E+03  0.48040841964E+03  0.00000000000E+00 0. -1.
         25    2    1    2    0    0  0.54586636099E+02 -0.10384138740E+03 -0.21743472001E+03  0.27688469366E+03  0.12499816615E+03 0.  0.
          2    1    1    2  501    0 -0.11810061472E+03  0.12537777819E+02 -0.21683071468E+03  0.24722562549E+03  0.00000000000E+00 0. -1.
          1    1    1    2  502    0  0.63513978625E+02  0.91303609577E+02  0.25325651318E+04  0.25350062172E+04  0.00000000000E+00 0. -1.
         22    1    3    3    0    0  0.91601664637E+02 -0.47383623009E+02 -0.11825226963E+03  0.15690657082E+03  0.00000000000E+00 0.  1.
         22    1    3    3    0    0 -0.37015028539E+02 -0.56457764387E+02 -0.99182450379E+02  0.11997812284E+03  0.00000000000E+00 0.  1.
</event>
<event>
 7    1  0.6681656E-006  0.1447550E+03  0.7818608E-02  0.1287665E+00
          2   -1    0    0  502    0  0.00000000000E+00  0.00000000000E+00  0.58169167860E+03  0.58169167860E+03  0.00000000000E+00 0. -1.
          1   -1    0    0  501    0 -0.00000000000E+00 -0.00000000000E+00 -0.43039725023E+03  0.43039725023E+03  0.00000000000E+00 0. -1.
         25    2    1    2    0    0 -0.18735291227E+03 -0.23077223497E+02 -0.84526955118E+01  0.22656032305E+03  0.12499783973E+03 0.  0.
          2    1    1    2  501    0  0.47524335553E+02  0.43509154118E+02 -0.29881673563E+03  0.30568456038E+03  0.00000000000E+00 0. -1.
          1    1    1    2  502    0  0.13982857672E+03 -0.20431930621E+02  0.45856385951E+03  0.47984404540E+03  0.00000000000E+00 0. -1.
         22    1    3    3    0    0 -0.12823562397E+02  0.10135071505E+02 -0.42616941212E+02  0.45643916410E+02  0.00000000000E+00 0.  1.
         22    1    3    3    0    0 -0.17452934988E+03 -0.33212295002E+02  0.34164245700E+02  0.18091640664E+03  0.00000000000E+00 0.  1.
</event>
<event>
 7    1  0.6681656E-006  0.5269351E+02  0.7818608E-02  0.1478635E+00
          2   -1    0    0  502    0  0.00000000000E+00  0.00000000000E+00  0.10968555170E+04  0.10968555170E+04  0.00000000000E+00 0. -1.
          1   -1    0    0  501    0 -0.00000000000E+00 -0.00000000000E+00 -0.19943000855E+03  0.19943000855E+03  0.00000000000E+00 0. -1.
         25    2    1    2    0    0  0.66622987672E+02  0.14157483617E+02  0.16780951693E+03  0.22005579186E+03  0.12500184290E+03 0.  0.
          2    1    1    2  501    0 -0.29390840039E+02  0.22928067868E+02 -0.17052722181E+03  0.17455386319E+03  0.00000000000E+00 0. -1.
          1    1    1    2  502    0 -0.37232147633E+02 -0.37085551486E+02  0.90014321331E+03  0.90167587048E+03  0.00000000000E+00 0. -1.
         22    1    3    3    0    0  0.30190693879E+01  0.43152634672E+02  0.13699777876E+03  0.14366508290E+03  0.00000000000E+00 0. -1.
         22    1    3    3    0    0  0.63603918285E+02 -0.28995151054E+02  0.30811738164E+02  0.76390708954E+02  0.00000000000E+00 0. -1.
</event>
<event>
 7    1  0.6681656E-006  0.4269898E+02  0.7818608E-02  0.1570110E+00
          2   -1    0    0  502    0  0.00000000000E+00  0.00000000000E+00  0.20697359593E+04  0.20697359593E+04  0.00000000000E+00 0. -1.
          1   -1    0    0  501    0 -0.00000000000E+00 -0.00000000000E+00 -0.85389280748E+02  0.85389280748E+02  0.00000000000E+00 0. -1.
         25    2    1    2    0    0 -0.30034663094E+02  0.18825978399E+02  0.15620583162E+04  0.15674527436E+04  0.12500168706E+03 0.  0.
          2    1    1    2  501    0 -0.17289850222E+02 -0.18098296366E+02 -0.79658928365E+02  0.83498695321E+02  0.00000000000E+00 0. -1.
          1    1    1    2  502    0  0.47324513316E+02 -0.72768203355E+00  0.50194729068E+03  0.50417380109E+03  0.00000000000E+00 0. -1.
         22    1    3    3    0    0 -0.42399099702E+02  0.63829098457E+02  0.71138756692E+03  0.71550269590E+03  0.00000000000E+00 0. -1.
         22    1    3    3    0    0  0.12364436608E+02 -0.45003120058E+02  0.85067074931E+03  0.85195004774E+03  0.00000000000E+00 0. -1.
</event>
<event>
 7    1  0.6681656E-006  0.4980037E+02  0.7818608E-02  0.1462043E+00
          2   -1    0    0  502    0  0.00000000000E+00  0.00000000000E+00  0.32479617700E+03  0.32479617700E+03  0.00000000000E+00 0. -1.
          1   -1    0    0  501    0 -0.00000000000E+00 -0.00000000000E+00 -0.14994435442E+03  0.14994435442E+03  0.00000000000E+00 0. -1.
         25    2    1    2    0    0  0.14153556105E+02  0.20266114125E+02  0.15388331387E+03  0.19979206274E+03  0.12500302201E+03 0.  0.
          2    1    1    2  501    0 -0.50666735647E+02  0.50249823370E+01 -0.11828771736E+03  0.12878024936E+03  0.00000000000E+00 0. -1.
          1    1    1    2  502    0  0.36513179542E+02 -0.25291096462E+02  0.13925622606E+03  0.14616821932E+03  0.00000000000E+00 0. -1.
         22    1    3    3    0    0  0.29441107631E+02  0.64132387489E+02  0.51494731871E+02  0.87358167071E+02  0.00000000000E+00 0.  1.
         22    1    3    3    0    0 -0.15287551525E+02 -0.43866273364E+02  0.10238858200E+03  0.11243389566E+03  0.00000000000E+00 0.  1.
</event>
<event>
 7    1  0.6681656E-006  0.6061375E+02  0.7818608E-02  0.1441875E+00
          2   -1    0    0  502    0  0.00000000000E+00  0.00000000000E+00  0.16433238265E+04  0.16433238265E+04  0.00000000000E+00 0. -1.
          1   -1    0    0  501    0 -0.00000000000E+00 -0.00000000000E+00 -0.22852796137E+04  0.22852796137E+04  0.00000000000E+00 0. -1.
         25    2    1    2    0    0  0.43316159598E+02 -0.77192667013E+02  0.30361939055E+03  0.34006578317E+03  0.12500002018E+03 0.  0.
          2    1    1    2  501    0 -0.44581546198E+01  0.60424888537E+02 -0.22663125844E+04  0.22671223550E+04  0.00000000000E+00 0. -1.
          1    1    1    2  502    0 -0.38858004978E+02  0.16767778476E+02  0.13207374067E+04  0.13214153020E+04  0.00000000000E+00 0. -1.
         22    1    3    3    0    0  0.36022272567E+02 -0.10831033639E+03  0.27257490962E+03  0.29550941515E+03  0.00000000000E+00 0.  1.
         22    1    3    3    0    0  0.72938870310E+01  0.31117669372E+02  0.31044480928E+02  0.44556368022E+02  0.00000000000E+00 0.  1.
</event>
<event>
 7    1  0.6681656E-006  0.8513347E+02  0.7818608E-02  0.1398789E+00
          2   -1    0    0  502    0  0.00000000000E+00  0.00000000000E+00  0.17549488354E+03  0.17549488354E+03  0.00000000000E+00 0. -1.
          1   -1    0    0  501    0 -0.00000000000E+00 -0.00000000000E+00 -0.43774629864E+03  0.43774629864E+03  0.00000000000E+00 0. -1.
         25    2    1    2    0    0  0.76353396676E+01 -0.12050685205E+03 -0.68137578176E+02  0.18667571973E+03  0.12499957990E+03 0.  0.
          2    1    1    2  501    0 -0.18258452175E+02  0.79907352056E+02 -0.30088135963E+03  0.31184635409E+03  0.00000000000E+00 0. -1.
          1    1    1    2  502    0  0.10623112507E+02  0.40599499994E+02  0.10676752271E+03  0.11471910836E+03  0.00000000000E+00 0. -1.
         22    1    3    3    0    0 -0.17077603886E+02 -0.12867171824E+03 -0.19152295485E+02  0.13120543454E+03  0.00000000000E+00 0.  1.
         22    1    3    3    0    0  0.24712943553E+02  0.81648661925E+01 -0.48985282690E+02  0.55470285192E+02  0.00000000000E+00 0.  1.
</event>
<event>
 7    1  0.6681656E-006  0.1297237E+03  0.7818608E-02  0.1340598E+00
          2   -1    0    0  502    0  0.00000000000E+00  0.00000000000E+00  0.92756324415E+03  0.92756324415E+03  0.00000000000E+00 0. -1.
          1   -1    0    0  501    0 -0.00000000000E+00 -0.00000000000E+00 -0.37355802058E+03  0.37355802058E+03  0.00000000000E+00 0. -1.
         25    2    1    2    0    0  0.14187184557E+03  0.21669631033E+01  0.34311989924E+03  0.39177907035E+03  0.12500903334E+03 0.  0.
          2    1    1    2  501    0 -0.19920120331E+02 -0.39908825474E+02 -0.34048106858E+03  0.34339027885E+03  0.00000000000E+00 0. -1.
          1    1    1    2  502    0 -0.12195172524E+03  0.37741862371E+02  0.55136639292E+03  0.56595191554E+03  0.00000000000E+00 0. -1.
         22    1    3    3    0    0  0.44328927882E+02  0.59725943128E+02  0.11275343764E+03  0.13507620009E+03  0.00000000000E+00 0. -1.
         22    1    3    3    0    0  0.97542917689E+02 -0.57558980025E+02  0.23036646159E+03  0.25670287026E+03  0.00000000000E+00 0. -1.
</event>
<event>
 7    1  0.6681656E-006  0.9207301E+02  0.7818608E-02  0.1392659E+00
          2   -1    0    0  502    0  0.00000000000E+00  0.00000000000E+00  0.81030009709E+03  0.81030009709E+03  0.00000000000E+00 0. -1.
          1   -1    0    0  501    0 -0.00000000000E+00 -0.00000000000E+00 -0.10467863401E+04  0.10467863401E+04  0.00000000000E+00 0. -1.
         25    2    1    2    0    0  0.51846959644E+02 -0.25856626663E+02  0.38030844385E+03  0.40449712231E+03  0.12500694832E+03 0.  0.
          2    1    1    2  501    0 -0.66625950534E+02  0.63827542662E+02 -0.10316350198E+04  0.10357527632E+04  0.00000000000E+00 0. -1.
          1    1    1    2  502    0  0.14778990890E+02 -0.37970915999E+02  0.41484033289E+03  0.41683655169E+03  0.00000000000E+00 0. -1.
         22    1    3    3    0    0  0.16505921729E+02 -0.56107141783E+02  0.33318871263E+03  0.33828268509E+03  0.00000000000E+00 0. -1.
         22    1    3    3    0    0  0.35341037915E+02  0.30250515120E+02  0.47119731224E+02  0.66214437222E+02  0.00000000000E+00 0. -1.
</event>
<event>
 7    1  0.6681656E-006  0.5972571E+02  0.7818608E-02  0.1502782E+00
          2   -1    0    0  502    0  0.00000000000E+00  0.00000000000E+00  0.18419110697E+03  0.18419110697E+03  0.00000000000E+00 0. -1.
          1   -1    0    0  501    0 -0.00000000000E+00 -0.00000000000E+00 -0.23873315242E+03  0.23873315242E+03  0.00000000000E+00 0. -1.
         25    2    1    2    0    0  0.46916528843E+02 -0.50101688428E+02  0.36753843965E+02  0.14726580178E+03  0.12500012586E+03 0.  0.
          2    1    1    2  501    0 -0.54740995935E+02  0.23425949152E+02 -0.17637408368E+03  0.18615361700E+03  0.00000000000E+00 0. -1.
          1    1    1    2  502    0  0.78244670920E+01  0.26675739276E+02  0.85078194274E+02  0.89504840607E+02  0.00000000000E+00 0. -1.
         22    1    3    3    0    0 -0.19203853201E+02 -0.69385801649E+02  0.73216463630E+01  0.72365626880E+02  0.00000000000E+00 0. -1.
         22    1    3    3    0    0  0.66120382044E+02  0.19284113221E+02  0.29432197602E+02  0.74900174900E+02  0.00000000000E+00 0. -1.
</event>
<event>
 7    1  0.6681656E-006  0.1220404E+03  0.7818608E-02  0.1292420E+00
          2   -1    0    0  502    0  0.00000000000E+00  0.00000000000E+00  0.62098603131E+03  0.62098603131E+03  0.00000000000E+00 0. -1.
          1   -1    0    0  501    0 -0.00000000000E+00 -0.00000000000E+00 -0.32095284503E+03  0.32095284503E+03  0.00000000000E+00 0. -1.
         25    2    1    2    0    0  0.66094379718E+02 -0.71232092466E+02  0.55557012369E+02  0.16779277974E+03  0.12500142911E+03 0.  0.
          2    1    1    2  501    0 -0.47756902484E+02 -0.55339498989E+02 -0.25152003951E+03  0.26192653962E+03  0.00000000000E+00 0. -1.
          1    1    1    2  502    0 -0.18337477234E+02  0.12657159145E+03  0.49599621341E+03  0.51221955698E+03  0.00000000000E+00 0. -1.
         22    1    3    3    0    0  0.13544340187E+02  0.21527729396E+02  0.55644600682E+02  0.61181809953E+02  0.00000000000E+00 0.  1.
         22    1    3    3    0    0  0.52550039531E+02 -0.92759821861E+02 -0.87588312307E-01  0.10661096978E+03  0.00000000000E+00 0.  1.
</event>
<event>
 7    1  0.6681656E-006  0.8902046E+02  0.7818608E-02  0.1312256E+00
          2   -1    0    0  502    0  0.00000000000E+00  0.00000000000E+00  0.13779808787E+04  0.13779808787E+04  0.00000000000E+00 0. -1.
          1   -1    0    0  501    0 -0.00000000000E+00 -0.00000000000E+00 -0.47769517702E+03  0.47769517702E+03  0.00000000000E+00 0. -1.
         25    2    1    2    0    0 -0.14922537659E+03  0.68853291661E+02  0.48755039376E+03  0.52947058649E+03  0.12499890685E+03 0.  0.
          2    1    1    2  501    0  0.66352433120E+02 -0.58473093175E+02 -0.45041907054E+03  0.45901970232E+03  0.00000000000E+00 0. -1.
          1    1    1    2  502    0  0.82872943467E+02 -0.10380198486E+02  0.86315437849E+03  0.86718576694E+03  0.00000000000E+00 0. -1.
         22    1    3    3    0    0  0.26141300095E+01 -0.59261766446E+01 -0.52987580180E+01  0.83683978074E+01  0.00000000000E+00 0. -1.
         22    1    3    3    0    0 -0.15183950660E+03  0.74779468305E+02  0.49284915178E+03  0.52110218869E+03  0.00000000000E+00 0. -1.
</event>
<event>
 7    1  0.6681656E-006  0.1595434E+03  0.7818608E-02  0.1354652E+00
          2   -1    0    0  502    0  0.00000000000E+00  0.00000000000E+00  0.56062498445E+03  0.56062498445E+03  0.00000000000E+00 0. -1.
          1   -1    0    0  501    0 -0.00000000000E+00 -0.00000000000E+00 -0.12116399885E+03  0.12116399885E+03  0.00000000000E+00 0. -1.
         25    2    1    2    0    0 -0.13134696220E+03  0.74889361097E+02  0.24665342290E+03  0.31515514673E+03  0.12499765837E+03 0.  0.
          2    1    1    2  501    0  0.15390459483E+03 -0.51973856320E+02 -0.86043602069E+01  0.16267126687E+03  0.00000000000E+00 0. -1.
          1    1    1    2  502    0 -0.22557632634E+02 -0.22915504777E+02  0.20141192290E+03  0.20396256970E+03  0.00000000000E+00 0. -1.
         22    1    3    3    0    0 -0.28180343592E+02  0.81754004786E+02  0.15251677022E+03  0.17532602278E+03  0.00000000000E+00 0.  1.
         22    1    3    3    0    0 -0.10316661861E+03 -0.68646436893E+01  0.94136652674E+02  0.13982912395E+03  0.00000000000E+00 0.  1.
</event>
<event>
 7    1  0.6681656E-006  0.8620622E+02  0.7818608E-02  0.1350381E+00
          2   -1    0    0  502    0  0.00000000000E+00  0.00000000000E+00  0.16333638498E+04  0.16333638498E+04  0.00000000000E+00 0. -1.
          1   -1    0    0  501    0 -0.00000000000E+00 -0.00000000000E+00 -0.80962779748E+02  0.80962779748E+02  0.00000000000E+00 0. -1.
         25    2    1    2    0    0 -0.12306316212E+03  0.57914202874E+02  0.44908052749E+03  0.48558917866E+03  0.12499973397E+03 0.  0.
          2    1    1    2  501    0  0.82801476078E+02 -0.11146894382E+02 -0.33666853265E+02  0.90076604643E+02  0.00000000000E+00 0. -1.
          1    1    1    2  502    0  0.40261686046E+02 -0.46767308492E+02  0.11369873958E+04  0.11386608462E+04  0.00000000000E+00 0. -1.
         22    1    3    3    0    0 -0.45300975626E+02  0.47155981358E+02  0.60257065902E+02  0.88920070634E+02  0.00000000000E+00 0. -1.
         22    1    3    3    0    0 -0.77762186499E+02  0.10758221516E+02  0.38882346159E+03  0.39666910803E+03  0.00000000000E+00 0. -1.
</event>
<event>
 7    1  0.6681656E-006  0.7602723E+02  0.7818608E-02  0.1342539E+00
          2   -1    0    0  502    0  0.00000000000E+00  0.00000000000E+00  0.14739658706E+04  0.14739658706E+04  0.00000000000E+00 0. -1.
          1   -1    0    0  501    0 -0.00000000000E+00 -0.00000000000E+00 -0.72819502503E+02  0.72819502503E+02  0.00000000000E+00 0. -1.
         25    2    1    2    0    0 -0.12342043325E+02  0.62658188246E+01  0.27283128980E+03  0.30042213162E+03  0.12499983181E+03 0.  0.
          2    1    1    2  501    0  0.82366889704E+01  0.75579738782E+02 -0.32483238274E+02  0.82675877548E+02  0.00000000000E+00 0. -1.
          1    1    1    2  502    0  0.41053543550E+01 -0.81845557607E+02  0.11607983166E+04  0.11636873640E+04  0.00000000000E+00 0. -1.
         22    1    3    3    0    0 -0.48490628608E+01  0.61590354761E+02  0.19559749358E+03  0.20512256021E+03  0.00000000000E+00 0.  1.
         22    1    3    3    0    0 -0.74929804646E+01 -0.55324535936E+02  0.77233796220E+02  0.95299571412E+02  0.00000000000E+00 0.  1.
</event>
<event>
 7    1  0.6681656E-006  0.1444210E+03  0.7818608E-02  0.1304780E+00
          2   -1    0    0  502    0  0.00000000000E+00  0.00000000000E+00  0.25227648652E+04  0.25227648652E+04  0.00000000000E+00 0. -1.
          1   -1    0    0  501    0 -0.00000000000E+00 -0.00000000000E+00 -0.43538213061E+03  0.43538213061E+03  0.00000000000E+00 0. -1.
         25    2    1    2    0    0  0.10641219749E+03  0.63274401643E+02  0.26332071306E+03  0.31668527118E+03  0.12499822948E+03 0.  0.
          2    1    1    2  501    0 -0.14391383426E+03 -0.22900711518E+02 -0.39535724967E+03  0.42135850430E+03  0.00000000000E+00 0. -1.
          1    1    1    2  502    0  0.37501636766E+02 -0.40373690124E+02  0.22194192712E+04  0.22201032203E+04  0.00000000000E+00 0. -1.
         22    1    3    3    0    0 -0.27193837880E+01  0.54862696262E+02  0.39894628072E+02  0.67888819686E+02  0.00000000000E+00 0. -1.
         22    1    3    3    0    0  0.10913158128E+03  0.84117053811E+01  0.22342608499E+03  0.24879645149E+03  0.00000000000E+00 0. -1.
</event>
<event>
 7    1  0.6681656E-006  0.1181058E+03  0.7818608E-02  0.1430649E+00
          2   -1    0    0  502    0  0.00000000000E+00  0.00000000000E+00  0.34588702892E+04  0.34588702892E+04  0.00000000000E+00 0. -1.
          1   -1    0    0  501    0 -0.00000000000E+00 -0.00000000000E+00 -0.24033208728E+03  0.24033208728E+03  0.00000000000E+00 0. -1.
         25    2    1    2    0    0  0.12821896172E+03  0.60004268263E+01 -0.24323605900E+01  0.17916830445E+03  0.12497702859E+03 0.  0.
          2    1    1    2  501    0 -0.13042262199E+02  0.19706417762E+02 -0.14755834624E+03  0.14943864643E+03  0.00000000000E+00 0. -1.
          1    1    1    2  502    0 -0.11517669952E+03 -0.25706844588E+02  0.33685289087E+04  0.33705954256E+04  0.00000000000E+00 0. -1.
         22    1    3    3    0    0  0.14254411710E+03  0.13652325127E+01 -0.31900555481E+02  0.14607646840E+03  0.00000000000E+00 0.  1.
         22    1    3    3    0    0 -0.14325155384E+02  0.46351943136E+01  0.29468194891E+02  0.33091836051E+02  0.00000000000E+00 0.  1.
</event>
<event>
 7    1  0.6681656E-006  0.8431663E+02  0.7818608E-02  0.1449417E+00
          2   -1    0    0  502    0  0.00000000000E+00  0.00000000000E+00  0.25128089501E+04  0.25128089501E+04  0.00000000000E+00 0. -1.
          1   -1    0    0  501    0 -0.00000000000E+00 -0.00000000000E+00 -0.40997693864E+02  0.40997693864E+02  0.00000000000E+00 0. -1.
         25    2    1    2    0    0  0.69430991795E+02  0.16145373227E+02  0.10844457249E+04  0.10939506184E+04  0.12499635850E+03 0.  0.
          2    1    1    2  501    0 -0.84681849446E+02  0.82496986530E+01  0.14045016284E+02  0.86234190643E+02  0.00000000000E+00 0. -1.
          1    1    1    2  502    0  0.15250857651E+02 -0.24395071880E+02  0.13733205151E+04  0.13736218349E+04  0.00000000000E+00 0. -1.
         22    1    3    3    0    0  0.48935355583E+02  0.27761446625E+02  0.10537775259E+04  0.10552783713E+04  0.00000000000E+00 0.  1.
         22    1    3    3    0    0  0.20495636212E+02 -0.11616073399E+02  0.30668198969E+02  0.38672247064E+02  0.00000000000E+00 0.  1.
</event>
<event>
 7    1  0.6681656E-006  0.2061915E+03  0.7818608E-02  0.1200453E+00
          2   -1    0    0  502    0  0.00000000000E+00  0.00000000000E+00  0.12345628187E+04  0.12345628187E+04  0.00000000000E+00 0. -1.
          1   -1    0    0  501    0 -0.00000000000E+00 -0.00000000000E+00 -0.31795936724E+03  0.31795936724E+03  0.00000000000E+00 0. -1.
         25    2    1    2    0    0 -0.20334317389E+03 -0.13889536843E+03  0.36767158886E+03  0.45984067093E+03  0.12502270057E+03 0.  0.
          2    1    1    2  501    0  0.51769789143E+01  0.10902234033E+03 -0.24799084978E+03  0.27094673531E+03  0.00000000000E+00 0. -1.
          1    1    1    2  502    0  0.19816619497E+03  0.29873028093E+02  0.79692271242E+03  0.82173477972E+03  0.00000000000E+00 0. -1.
         22    1    3    3    0    0 -0.62315391793E+02 -0.10885582890E+02  0.18664862845E+03  0.19707717897E+03  0.00000000000E+00 0.  1.
         22    1    3    3    0    0 -0.14102778209E+03 -0.12800978554E+03  0.18102296041E+03  0.26276349197E+03  0.00000000000E+00 0.  1.
</event>
<event>
 7    1  0.6681656E-006  0.4094126E+02  0.7818608E-02  0.1570733E+00
          2   -1    0    0  502    0  0.00000000000E+00  0.00000000000E+00  0.16165570486E+04  0.16165570486E+04  0.00000000000E+00 0. -1.
          1   -1    0    0  501    0 -0.00000000000E+00 -0.00000000000E+00 -0.15994726971E+03  0.15994726971E+03  0.00000000000E+00 0. -1.
         25    2    1    2    0    0  0.43185519085E+02 -0.37821072429E+02  0.18319838942E+02  0.13878714967E+03  0.12502333316E+03 0.  0.
          2    1    1    2  501    0 -0.41435190153E+01  0.25670553829E+02 -0.97741688784E+02  0.10114140502E+03  0.00000000000E+00 0. -1.
          1    1    1    2  502    0 -0.39042000070E+02  0.12150518600E+02  0.15360316287E+04  0.15365757636E+04  0.00000000000E+00 0. -1.
         22    1    3    3    0    0  0.81050514017E+02 -0.52930599099E+02  0.13171147889E+02  0.97695001306E+02  0.00000000000E+00 0. -1.
         22    1    3    3    0    0 -0.37864994932E+02  0.15109526670E+02  0.51486910532E+01  0.41092148361E+02  0.00000000000E+00 0. -1.
</event>
<event>
 7    1  0.6681656E-006  0.6797394E+02  0.7818608E-02  0.1405857E+00
          2   -1    0    0  502    0  0.00000000000E+00  0.00000000000E+00  0.24741120731E+03  0.24741120731E+03  0.00000000000E+00 0. -1.
          1   -1    0    0  501    0 -0.00000000000E+00 -0.00000000000E+00 -0.60884574837E+03  0.60884574837E+03  0.00000000000E+00 0. -1.
         25    2    1    2    0    0  0.97657902434E+02  0.20089477489E+02 -0.34639005753E+02  0.16360009647E+03  0.12499791131E+03 0.  0.
          2    1    1    2  501    0 -0.33228323444E+02 -0.36971827048E+02 -0.50239598019E+03  0.50484924323E+03  0.00000000000E+00 0. -1.
          1    1    1    2  502    0 -0.64429578990E+02  0.16882349559E+02  0.17560044489E+03  0.18780761598E+03  0.00000000000E+00 0. -1.
         22    1    3    3    0    0  0.12639855112E+03  0.23632076818E+02 -0.17038335749E+02  0.12971265807E+03  0.00000000000E+00 0.  1.
         22    1    3    3    0    0 -0.28740648681E+02 -0.35425993286E+01 -0.17600670004E+02  0.33887438398E+02  0.00000000000E+00 0.  1.
</event>
<event>
 7    1  0.6681656E-006  0.1130903E+03  0.7818608E-02  0.1393149E+00
          2   -1    0    0  502    0  0.00000000000E+00  0.00000000000E+00  0.13854309228E+04  0.13854309228E+04  0.00000000000E+00 0. -1.
          1   -1    0    0  501    0 -0.00000000000E+00 -0.00000000000E+00 -0.75511583355E+03  0.75511583355E+03  0.00000000000E+00 0. -1.
         25    2    1    2    0    0  0.46335073243E+02 -0.66011767898E+02 -0.39862770866E+03  0.42547941259E+03  0.12499675163E+03 0.  0.
          2    1    1    2  501    0  0.13560702885E+02 -0.30132755440E+02 -0.33992170907E+03  0.34152400196E+03  0.00000000000E+00 0. -1.
          1    1    1    2  502    0 -0.59895776128E+02  0.96144523338E+02  0.13688645070E+04  0.13735433418E+04  0.00000000000E+00 0. -1.
         22    1    3    3    0    0  0.28673197457E+02  0.20223685411E+02 -0.29018213300E+02  0.45532476400E+02  0.00000000000E+00 0.  1.
         22    1    3    3    0    0  0.17661875786E+02 -0.86235453309E+02 -0.36960949536E+03  0.37994693619E+03  0.00000000000E+00 0.  1.
</event>
<event>
 7    1  0.6681656E-006  0.3362110E+02  0.7818608E-02  0.1572675E+00
          2   -1    0    0  502    0  0.00000000000E+00  0.00000000000E+00  0.25664829534E+03  0.25664829534E+03  0.00000000000E+00 0. -1.
          1   -1    0    0  501    0 -0.00000000000E+00 -0.00000000000E+00 -0.49366678797E+02  0.49366678797E+02  0.00000000000E+00 0. -1.
         25    2    1    2    0    0  0.30081582734E+01  0.16112292124E+02  0.13677501536E+03  0.18601442885E+03  0.12500123175E+03 0.  0.
          2    1    1    2  501    0 -0.33596350629E+02  0.12898491969E+01 -0.74783953826E+01  0.34442776950E+02  0.00000000000E+00 0. -1.
          1    1    1    2  502    0  0.30588192355E+02 -0.17402141321E+02  0.77984996567E+02  0.85557768342E+02  0.00000000000E+00 0. -1.
         22    1    3    3    0    0  0.38282344379E+02  0.52708142966E+02  0.39291874530E+02  0.76075867594E+02  0.00000000000E+00 0.  1.
         22    1    3    3    0    0 -0.35274186105E+02 -0.36595850842E+02  0.97483140831E+02  0.10993856125E+03  0.00000000000E+00 0.  1.
</event>
<event>
 7    1  0.6681656E-006  0.3251586E+02  0.7818608E-02  0.1596340E+00
          2   -1    0    0  502    0  0.00000000000E+00  0.00000000000E+00  0.82135944017E+03  0.82135944017E+03  0.00000000000E+00 0. -1.
          1   -1    0    0  501    0 -0.00000000000E+00 -0.00000000000E+00 -0.95709937596E+03  0.95709937596E+03  0.00000000000E+00 0. -1.
         25    2    1    2    0    0 -0.34024635763E+02  0.35358572212E+02 -0.33446030314E+01  0.13432709498E+03  0.12499871043E+03 0.  0.
          2    1    1    2  501    0  0.62710134549E+01 -0.31864768507E+02 -0.88770770007E+03  0.88830155344E+03  0.00000000000E+00 0. -1.
          1    1    1    2  502    0  0.27753622308E+02 -0.34938037054E+01  0.75531236731E+03  0.75583016771E+03  0.00000000000E+00 0. -1.
         22    1    3    3    0    0 -0.19401657575E+02 -0.46457105893E+02 -0.84868063183E+01  0.51055977966E+02  0.00000000000E+00 0. -1.
         22    1    3    3    0    0 -0.14622978188E+02  0.81815678105E+02  0.51422032869E+01  0.83271117018E+02  0.00000000000E+00 0. -1.
</event>
<event>
 7    1  0.6681656E-006  0.9377234E+02  0.7818608E-02  0.1299465E+00
          2   -1    0    0  502    0  0.00000000000E+00  0.00000000000E+00  0.26127441950E+03  0.26127441950E+03  0.00000000000E+00 0. -1.
          1   -1    0    0  501    0 -0.00000000000E+00 -0.00000000000E+00 -0.21888157882E+04  0.21888157882E+04  0.00000000000E+00 0. -1.
         25    2    1    2    0    0  0.11393720187E+03  0.13209046191E+03 -0.84327072953E+02  0.23057685904E+03  0.12500022638E+03 0.  0.
          2    1    1    2  501    0 -0.77582094955E+02 -0.50729949030E+02 -0.20196890834E+04  0.20218151505E+04  0.00000000000E+00 0. -1.
          1    1    1    2  502    0 -0.36355106913E+02 -0.81360512883E+02  0.17647478768E+03  0.19769819812E+03  0.00000000000E+00 0. -1.
         22    1    3    3    0    0  0.11112281283E+03  0.49608883760E+02 -0.14658975585E+02  0.12257326970E+03  0.00000000000E+00 0. -1.
         22    1    3    3    0    0  0.28143890361E+01  0.82481578153E+02 -0.69668097368E+02  0.10800358934E+03  0.00000000000E+00 0. -1.
</event>
<event>
 7    1  0.6681656E-006  0.5554795E+02  0.7818608E-02  0.1434397E+00
          2   -1    0    0  502    0  0.00000000000E+00  0.00000000000E+00  0.76103517995E+03  0.76103517995E+03  0.00000000000E+00 0. -1.
          1   -1    0    0  501    0 -0.00000000000E+00 -0.00000000000E+00 -0.16823084993E+03  0.16823084993E+03  0.00000000000E+00 0. -1.
         25    2    1    2    0    0 -0.31199753674E+02 -0.94856194311E+02  0.11608770063E+02  0.16042040873E+03  0.12501528613E+03 0.  0.
          2    1    1    2  501    0  0.22327559435E+02  0.46826360809E+02 -0.85692147545E+02  0.10017171321E+03  0.00000000000E+00 0. -1.
          1    1    1    2  502    0  0.88721942393E+01  0.48029833502E+02  0.66688770750E+03  0.66867390794E+03  0.00000000000E+00 0. -1.
         22    1    3    3    0    0  0.20859584832E+02 -0.13802953714E+02  0.50640957330E+02  0.56481416146E+02  0.00000000000E+00 0.  1.
         22    1    3    3    0    0 -0.52059338506E+02 -0.81053240596E+02 -0.39032187267E+02  0.10393899259E+03  0.00000000000E+00 0.  1.
</event>
<event>
 7    1  0.6681656E-006  0.5815784E+02  0.7818608E-02  0.1540341E+00
          2   -1    0    0  502    0  0.00000000000E+00  0.00000000000E+00  0.11779374062E+04  0.11779374062E+04  0.00000000000E+00 0. -1.
          1   -1    0    0  501    0 -0.00000000000E+00 -0.00000000000E+00 -0.20801265759E+02  0.20801265759E+02  0.00000000000E+00 0. -1.
         25    2    1    2    0    0 -0.31137567792E+02 -0.56916369380E+02  0.65014154642E+03  0.66522047661E+03  0.12500092353E+03 0.  0.
          2    1    1    2  501    0  0.22218494099E+02  0.23476195334E+00 -0.10491519333E+01  0.22244489497E+02  0.00000000000E+00 0. -1.
          1    1    1    2  502    0  0.89190736927E+01  0.56681607427E+02  0.50804374593E+03  0.51127370583E+03  0.00000000000E+00 0. -1.
         22    1    3    3    0    0 -0.35088330147E+02 -0.24888770797E+02  0.58062633568E+02  0.72262792924E+02  0.00000000000E+00 0. -1.
         22    1    3    3    0    0  0.39507623549E+01 -0.32027598583E+02  0.59207891285E+03  0.59295768368E+03  0.00000000000E+00 0. -1.
</event>
<event>
 7    1  0.6681656E-006  0.2157392E+03  0.7818608E-02  0.1168525E+00
          2   -1    0    0  502    0  0.00000000000E+00  0.00000000000E+00  0.13819542019E+04  0.13819542019E+04  0.00000000000E+00 0. -1.
          1   -1    0    0  501    0 -0.00000000000E+00 -0.00000000000E+00 -0.91965479084E+03  0.91965479084E+03  0.00000000000E+00 0. -1.
         25    2    1    2    0    0  0.14197534916E+03  0.75182058412E+02 -0.30770756364E+03  0.36893952055E+03  0.12499233346E+03 0.  0.
          2    1    1    2  501    0 -0.28555057173E+03 -0.35561483283E+02 -0.54124565890E+03  0.61298500095E+03  0.00000000000E+00 0. -1.
          1    1    1    2  502    0  0.14357522257E+03 -0.39620575129E+02  0.13112526336E+04  0.13196844712E+04  0.00000000000E+00 0. -1.
         22    1    3    3    0    0  0.53001944871E+02  0.24879930438E+02 -0.17273448330E+02  0.61045795235E+02  0.00000000000E+00 0. -1.
         22    1    3    3    0    0  0.88973404287E+02  0.50302127974E+02 -0.29043411531E+03  0.30789372531E+03  0.00000000000E+00 0. -1.
</event>
<event>
 7    1  0.6681656E-006  0.8253139E+02  0.7818608E-02  0.1407839E+00
          2   -1    0    0  502    0  0.00000000000E+00  0.00000000000E+00  0.10823693291E+04  0.10823693291E+04  0.00000000000E+00 0. -1.
          1   -1    0    0  501    0 -0.00000000000E+00 -0.00000000000E+00 -0.45787001795E+03  0.45787001795E+03  0.00000000000E+00 0. -1.
         25    2    1    2    0    0 -0.63974774943E+01  0.72293651014E+02 -0.11577138531E+02  0.14498536139E+03  0.12497769875E+03 0.  0.
          2    1    1    2  501    0  0.40160828525E+02  0.34648017775E+01 -0.37681870338E+03  0.37896864279E+03  0.00000000000E+00 0. -1.
          1    1    1    2  502    0 -0.33763351030E+02 -0.75758452791E+02  0.10128951531E+04  0.10162853429E+04  0.00000000000E+00 0. -1.
         22    1    3    3    0    0 -0.59389660423E+02  0.69185163736E+02 -0.11500634728E+02  0.91902030693E+02  0.00000000000E+00 0.  1.
         22    1    3    3    0    0  0.52992182928E+02  0.31084872777E+01 -0.76503802515E-01  0.53083330693E+02  0.00000000000E+00 0.  1.
</event>
<event>
 7    1  0.6681656E-006  0.8687111E+02  0.7818608E-02  0.1339115E+00
          2   -1    0    0  502    0  0.00000000000E+00  0.00000000000E+00  0.32894793458E+04  0.32894793458E+04  0.00000000000E+00 0. -1.
          1   -1    0    0  501    0 -0.00000000000E+00 -0.00000000000E+00 -0.41787892518E+03  0.41787892518E+03  0.00000000000E+00 0. -1.
         25    2    1    2    0    0 -0.11757129779E+03 -0.10351258743E+02  0.32773701866E+03  0.37008990085E+03  0.12499929078E+03 0.  0.
          2    1    1    2  501    0  0.42116816186E+02  0.52708044566E+02 -0.39319205286E+03  0.39893853487E+03  0.00000000000E+00 0. -1.
          1    1    1    2  502    0  0.75454481603E+02 -0.42356785823E+02  0.29370554548E+04  0.29383298352E+04  0.00000000000E+00 0. -1.
         22    1    3    3    0    0 -0.95687858443E+02 -0.25397570620E+02  0.99671906525E+02  0.14048377770E+03  0.00000000000E+00 0. -1.
         22    1    3    3    0    0 -0.21883439345E+02  0.15046311877E+02  0.22806511213E+03  0.22960612315E+03  0.00000000000E+00 0. -1.
</event>
<event>
 7    1  0.6681656E-006  0.5766067E+02  0.7818608E-02  0.1486640E+00
          2   -1    0    0  502    0  0.00000000000E+00  0.00000000000E+00  0.15983947440E+04  0.15983947440E+04  0.00000000000E+00 0. -1.
          1   -1    0    0  501    0 -0.00000000000E+00 -0.00000000000E+00 -0.43688194593E+02  0.43688194593E+02  0.00000000000E+00 0. -1.
         25    2    1    2    0    0 -0.18415937066E+02 -0.46158464829E+02  0.25297814901E+03  0.28651844088E+03  0.12500048989E+03 0.  0.
          2    1    1    2  501    0 -0.29476344508E+02  0.12958609161E+02 -0.16409320795E+02  0.36139261834E+02  0.00000000000E+00 0. -1.
          1    1    1    2  502    0  0.47892281574E+02  0.33199855668E+02  0.13181377212E+04  0.13194252358E+04  0.00000000000E+00 0. -1.
         22    1    3    3    0    0 -0.20375397512E+02  0.61293130683E+01  0.22719008984E+03  0.22818427251E+03  0.00000000000E+00 0.  1.
         22    1    3    3    0    0  0.19594604462E+01 -0.52287777898E+02  0.25788059171E+02  0.58334168362E+02  0.00000000000E+00 0.  1.
</event>
<event>
 7    1  0.6681656E-006  0.8790905E+02  0.7818608E-02  0.1389515E+00
          2   -1    0    0  502    0  0.00000000000E+00  0.00000000000E+00  0.37351824482E+03  0.37351824482E+03  0.00000000000E+00 0. -1.
          1   -1    0    0  501    0 -0.00000000000E+00 -0.00000000000E+00 -0.63285424159E+03  0.63285424159E+03  0.00000000000E+00 0. -1.
         25    2    1    2    0    0 -0.12762477744E+03 -0.95188348324E+01 -0.56814037765E+02  0.18770122895E+03  0.12500089772E+03 0.  0.
          2    1    1    2  501    0  0.85685262166E+02 -0.29920838124E+01 -0.50541350727E+03  0.51263410933E+03  0.00000000000E+00 0. -1.
          1    1    1    2  502    0  0.41939515269E+02  0.12510918645E+02  0.30289154826E+03  0.30603714813E+03  0.00000000000E+00 0. -1.
         22    1    3    3    0    0 -0.89986475287E+02  0.49347671284E+02 -0.89716065837E+01  0.10302061988E+03  0.00000000000E+00 0. -1.
         22    1    3    3    0    0 -0.37638302148E+02 -0.58866506116E+02 -0.47842431181E+02  0.84680609069E+02  0.00000000000E+00 0. -1.
</event>
<event>
 7    1  0.6681656E-006  0.8579062E+02  0.7818608E-02  0.1405749E+00
          2   -1    0    0  502    0  0.00000000000E+00  0.00000000000E+00  0.66498095830E+03  0.66498095830E+03  0.00000000000E+00 0. -1.
          1   -1    0    0  501    0 -0.00000000000E+00 -0.00000000000E+00 -0.88092401993E+02  0.88092401993E+02  0.00000000000E+00 0. -1.
         25    2    1    2    0    0  0.18755865179E+02 -0.50690771788E+02  0.21746890794E+03  0.25660579934E+03  0.12502989048E+03 0.  0.
          2    1    1    2  501    0 -0.49877107420E+02  0.74884825239E+02 -0.37585898891E+02  0.97509808179E+02  0.00000000000E+00 0. -1.
          1    1    1    2  502    0  0.31121242241E+02 -0.24194053452E+02  0.39700554727E+03  0.39895775278E+03  0.00000000000E+00 0. -1.
         22    1    3    3    0    0 -0.37445828846E+02  0.15274002040E+02  0.30907969554E+02  0.50899782104E+02  0.00000000000E+00 0.  1.
         22    1    3    3    0    0  0.56201694025E+02 -0.65964773827E+02  0.18656093838E+03  0.20570601724E+03  0.00000000000E+00 0.  1.
</event>
<event>
 7    1  0.6681656E-006  0.8637836E+02  0.7818608E-02  0.1398863E+00
          2   -1    0    0  502    0  0.00000000000E+00  0.00000000000E+00  0.44385444118E+03  0.44385444118E+03  0.00000000000E+00 0. -1.
          1   -1    0    0  501    0 -0.00000000000E+00 -0.00000000000E+00 -0.41257905898E+03  0.41257905898E+03  0.00000000000E+00 0. -1.
         25    2    1    2    0    0 -0.26802362259E+02 -0.61749415882E+02  0.28183096712E+02  0.14474042147E+03  0.12499658269E+03 0.  0.
          2    1    1    2  501    0  0.67764074960E+02  0.56188429552E+02 -0.34759975138E+03  0.35857313986E+03  0.00000000000E+00 0. -1.
          1    1    1    2  502    0 -0.40961712700E+02  0.55609863296E+01  0.35069203687E+03  0.35311993883E+03  0.00000000000E+00 0. -1.
         22    1    3    3    0    0 -0.11008295738E+02  0.35617996080E+02 -0.10587269392E+02  0.38754541578E+02  0.00000000000E+00 0.  1.
         22    1    3    3    0    0 -0.15794066522E+02 -0.97367411961E+02  0.38770366104E+02  0.10598587990E+03  0.00000000000E+00 0.  1.
</event>
<event>
 7    1  0.6681656E-006  0.1448863E+03  0.7818608E-02  0.1302742E+00
          2   -1    0    0  502    0  0.00000000000E+00  0.00000000000E+00  0.56879680816E+03  0.56879680816E+03  0.00000000000E+00 0. -1.
          1   -1    0    0  501    0 -0.00000000000E+00 -0.00000000000E+00 -0.19966017854E+04  0.19966017854E+04  0.00000000000E+00 0. -1.
         25    2    1    2    0    0  0.13595686414E+03 -0.39547227723E+02 -0.16078451786E+03  0.24804261878E+03  0.12500090969E+03 0.  0.
          2    1    1    2  501    0 -0.11391704924E+03  0.90986788189E+02 -0.17877213670E+04  0.17936564264E+04  0.00000000000E+00 0. -1.
          1    1    1    2  502    0 -0.22039814905E+02 -0.51439560466E+02  0.52070090762E+03  0.52369954842E+03  0.00000000000E+00 0. -1.
         22    1    3    3    0    0  0.22182274243E+02 -0.24362667878E+02  0.16495861789E+02  0.36847066816E+02  0.00000000000E+00 0. -1.
         22    1    3    3    0    0  0.11377458990E+03 -0.15184559845E+02 -0.17728037964E+03  0.21119555197E+03  0.00000000000E+00 0. -1.
</event>
<event>
 7    1  0.1470807E-005  0.8978305E+02  0.7818608E-02  0.1341223E+00
          2   -1    0    0  502    0  0.00000000000E+00  0.00000000000E+00  0.21761617853E+04  0.21761617853E+04  0.00000000000E+00 0. -1.
          1   -1    0    0  501    0 -0.00000000000E+00 -0.00000000000E+00 -0.12268763470E+04  0.12268763470E+04  0.00000000000E+00 0. -1.
         25    2    1    2    0    0 -0.10588690811E+03 -0.58256393671E+02 -0.57980302254E+03  0.60531213153E+03  0.12500154767E+03 0.  0.
          2    1    1    2  501    0  0.43671469179E+02  0.73680279681E+02 -0.63094989220E+03  0.63673679594E+03  0.00000000000E+00 0. -1.
          1    1    1    2  502    0  0.62215438929E+02 -0.15423886010E+02  0.21600383530E+04  0.21609892049E+04  0.00000000000E+00 0. -1.
         22    1    3    3    0    0  0.18311894928E+02 -0.28422937870E+02 -0.50208361230E+02  0.60531549050E+02  0.00000000000E+00 0.  1.
         22    1    3    3    0    0 -0.12419880304E+03 -0.29833455801E+02 -0.52959466131E+03  0.54478058248E+03  0.00000000000E+00 0.  1.
</event>
<event>
 7    1  0.6681656E-006  0.6845674E+02  0.7818608E-02  0.1494682E+00
          2   -1    0    0  502    0  0.00000000000E+00  0.00000000000E+00  0.85435900918E+02  0.85435900918E+02  0.00000000000E+00 0. -1.
          1   -1    0    0  501    0 -0.00000000000E+00 -0.00000000000E+00 -0.11505087165E+04  0.11505087165E+04  0.00000000000E+00 0. -1.
         25    2    1    2    0    0  0.45669613366E+02  0.64367026426E+02 -0.25982434452E+03  0.29893642562E+03  0.12500187552E+03 0.  0.
          2    1    1    2  501    0 -0.54713292928E+02 -0.40369792748E+02 -0.86725052678E+03  0.86991191554E+03  0.00000000000E+00 0. -1.
          1    1    1    2  502    0  0.90436795611E+01 -0.23997233678E+02  0.62002055758E+02  0.67096276219E+02  0.00000000000E+00 0. -1.
         22    1    3    3    0    0  0.28706165271E+02 -0.23938283873E+01 -0.21462311340E+03  0.21654758171E+03  0.00000000000E+00 0.  1.
         22    1    3    3    0    0  0.16963448095E+02  0.66760854813E+02 -0.45201231119E+02  0.82388843913E+02  0.00000000000E+00 0.  1.
</event>
<event>
 7    1  0.6681656E-006  0.1013681E+03  0.7818608E-02  0.1427318E+00
          2   -1    0    0  502    0  0.00000000000E+00  0.00000000000E+00  0.88712446248E+03  0.88712446248E+03  0.00000000000E+00 0. -1.
          1   -1    0    0  501    0 -0.00000000000E+00 -0.00000000000E+00 -0.18131008124E+03  0.18131008124E+03  0.00000000000E+00 0. -1.
         25    2    1    2    0    0  0.12417059170E+03 -0.19459298192E+02  0.14123172615E+03  0.22664631905E+03  0.12500061336E+03 0.  0.
          2    1    1    2  501    0 -0.96226823635E+02  0.23528045833E+02 -0.12057456252E+03  0.15604933725E+03  0.00000000000E+00 0. -1.
          1    1    1    2  502    0 -0.27943768062E+02 -0.40687476411E+01  0.68515721761E+03  0.68573888742E+03  0.00000000000E+00 0. -1.
         22    1    3    3    0    0  0.12737586154E+03  0.25632745055E+02  0.88585260563E+02  0.15725455832E+03  0.00000000000E+00 0.  1.
         22    1    3    3    0    0 -0.32052698474E+01 -0.45092043246E+02  0.52646465585E+02  0.69391760733E+02  0.00000000000E+00 0.  1.
</event>
<event>
 7    1  0.6681656E-006  0.9383700E+02  0.7818608E-02  0.1322345E+00
          2   -1    0    0  502    0  0.00000000000E+00  0.00000000000E+00  0.70804526231E+03  0.70804526231E+03  0.00000000000E+00 0. -1.
          1   -1    0    0  501    0 -0.00000000000E+00 -0.00000000000E+00 -0.12943877563E+04  0.12943877563E+04  0.00000000000E+00 0. -1.
         25    2    1    2    0    0 -0.37423632912E+02  0.53485489012E+02 -0.27618889130E+02  0.14369730419E+03  0.12499954544E+03 0.  0.
          2    1    1    2  501    0  0.60580132547E+02  0.39602600362E+02 -0.12040980619E+04  0.12062713049E+04  0.00000000000E+00 0. -1.
          1    1    1    2  502    0 -0.23156499635E+02 -0.93088089374E+02  0.64537445704E+03  0.65246440950E+03  0.00000000000E+00 0. -1.
         22    1    3    3    0    0 -0.44946988567E+02  0.55226703387E+01 -0.67216079421E+02  0.81047720521E+02  0.00000000000E+00 0.  1.
         22    1    3    3    0    0  0.75233556548E+01  0.47962818673E+02  0.39597190291E+02  0.62649583672E+02  0.00000000000E+00 0.  1.
</event>
<event>
 7    1  0.6681656E-006  0.8026219E+02  0.7818608E-02  0.1334603E+00
          2   -1    0    0  502    0  0.00000000000E+00  0.00000000000E+00  0.27200106711E+04  0.27200106711E+04  0.00000000000E+00 0. -1.
          1   -1    0    0  501    0 -0.00000000000E+00 -0.00000000000E+00 -0.58350775566E+03  0.58350775566E+03  0.00000000000E+00 0. -1.
         25    2    1    2    0    0 -0.76419717506E+02 -0.12799747659E+03  0.78248815285E+03  0.80630974085E+03  0.12499744638E+03 0.  0.
          2    1    1    2  501    0  0.50974097702E+02  0.56301224344E+02 -0.56831838342E+03  0.57337071030E+03  0.00000000000E+00 0. -1.
          1    1    1    2  502    0  0.25445619804E+02  0.71696252247E+02  0.19223331461E+04  0.19238379757E+04  0.00000000000E+00 0. -1.
         22    1    3    3    0    0 -0.48081370243E+01  0.24985338599E+02  0.11492744656E+03  0.11771025146E+03  0.00000000000E+00 0. -1.
         22    1    3    3    0    0 -0.71611580481E+02 -0.15298281519E+03  0.66756070629E+03  0.68859948939E+03  0.00000000000E+00 0. -1.
</event>
<event>
 7    1  0.6681656E-006  0.1149900E+03  0.7818608E-02  0.1415899E+00
          2   -1    0    0  502    0  0.00000000000E+00  0.00000000000E+00  0.24838377744E+02  0.24838377744E+02  0.00000000000E+00 0. -1.
          1   -1    0    0  501    0 -0.00000000000E+00 -0.00000000000E+00 -0.16325840531E+04  0.16325840531E+04  0.00000000000E+00 0. -1.
         25    2    1    2    0    0 -0.10648926693E+03 -0.62492780232E+02 -0.75388718429E+03  0.77409040883E+03  0.12499905142E+03 0.  0.
          2    1    1    2  501    0  0.10690557785E+03  0.35323267536E+02 -0.84811912006E+03  0.85555980365E+03  0.00000000000E+00 0. -1.
          1    1    1    2  502    0 -0.41631092310E+00  0.27169512696E+02 -0.57393710400E+01  0.27772218400E+02  0.00000000000E+00 0. -1.
         22    1    3    3    0    0 -0.70716370053E+02 -0.27841151965E+02 -0.15001449693E+03  0.16816742855E+03  0.00000000000E+00 0. -1.
         22    1    3    3    0    0 -0.35772896875E+02 -0.34651628267E+02 -0.60387268735E+03  0.60592298027E+03  0.00000000000E+00 0. -1.
</event>
<event>
 7    1  0.6681656E-006  0.7921822E+02  0.7818608E-02  0.1353320E+00
          2   -1    0    0  502    0  0.00000000000E+00  0.00000000000E+00  0.60001181736E+03  0.60001181736E+03  0.00000000000E+00 0. -1.
          1   -1    0    0  501    0 -0.00000000000E+00 -0.00000000000E+00 -0.29452917317E+03  0.29452917317E+03  0.00000000000E+00 0. -1.
         25    2    1    2    0    0  0.44436316254E+02 -0.25019368829E+02  0.29845223169E+03  0.32756475845E+03  0.12499752541E+03 0.  0.
          2    1    1    2  501    0 -0.83817488705E+01  0.79697879832E+02 -0.27034536606E+03  0.28197273399E+03  0.00000000000E+00 0. -1.
          1    1    1    2  502    0 -0.36054567384E+02 -0.54678511003E+02  0.27737577856E+03  0.28500349809E+03  0.00000000000E+00 0. -1.
         22    1    3    3    0    0  0.88094038844E+01 -0.30260259063E+02  0.49991860516E+01  0.31910511380E+02  0.00000000000E+00 0.  1.
         22    1    3    3    0    0  0.35626912370E+02  0.52408902344E+01  0.29345304564E+03  0.29565424707E+03  0.00000000000E+00 0.  1.
</event>
<event>
 7    1  0.6681656E-006  0.5696360E+02  0.7818608E-02  0.1444174E+00
          2   -1    0    0  502    0  0.00000000000E+00  0.00000000000E+00  0.34949150140E+03  0.34949150140E+03  0.00000000000E+00 0. -1.
          1   -1    0    0  501    0 -0.00000000000E+00 -0.00000000000E+00 -0.39772620290E+03  0.39772620290E+03  0.00000000000E+00 0. -1.
         25    2    1    2    0    0 -0.64682082156E+02 -0.60617564858E+02 -0.28222975819E+02  0.15581728561E+03  0.12499691680E+03 0.  0.
          2    1    1    2  501    0  0.43437182241E+02  0.85455115655E+01 -0.30130521029E+03  0.30454005372E+03  0.00000000000E+00 0. -1.
          1    1    1    2  502    0  0.21244899916E+02  0.52072053293E+02  0.28129348461E+03  0.28686036497E+03  0.00000000000E+00 0. -1.
         22    1    3    3    0    0 -0.83002577086E+02 -0.25117451572E+01  0.10387253527E+02  0.83687703412E+02  0.00000000000E+00 0.  1.
         22    1    3    3    0    0  0.18320494929E+02 -0.58105819701E+02 -0.38610229346E+02  0.72129582196E+02  0.00000000000E+00 0.  1.
</event>
<event>
 7    1  0.6681656E-006  0.3931234E+02  0.7818608E-02  0.1557928E+00
          2   -1    0    0  502    0  0.00000000000E+00  0.00000000000E+00  0.44108213885E+03  0.44108213885E+03  0.00000000000E+00 0. -1.
          1   -1    0    0  501    0 -0.00000000000E+00 -0.00000000000E+00 -0.29017244033E+03  0.29017244033E+03  0.00000000000E+00 0. -1.
         25    2    1    2    0    0 -0.38927394220E+02 -0.25658489043E+01 -0.12954527299E+03  0.18419880459E+03  0.12500118503E+03 0.  0.
          2    1    1    2  501    0  0.27532212167E+02  0.29620315527E+02 -0.12969655780E+03  0.13585500692E+03  0.00000000000E+00 0. -1.
          1    1    1    2  502    0  0.11395182053E+02 -0.27054466623E+02  0.41015152931E+03  0.41120076767E+03  0.00000000000E+00 0. -1.
         22    1    3    3    0    0  0.17676317331E+02 -0.82281108276E+01 -0.12567785643E+03  0.12718127849E+03  0.00000000000E+00 0. -1.
         22    1    3    3    0    0 -0.56603711551E+02  0.56622619233E+01 -0.38674165580E+01  0.57017526097E+02  0.00000000000E+00 0. -1.
</event>
<event>
 7    1  0.6681656E-006  0.1495886E+03  0.7818608E-02  0.1355604E+00
          2   -1    0    0  502    0  0.00000000000E+00  0.00000000000E+00  0.36495852548E+03  0.36495852548E+03  0.00000000000E+00 0. -1.
          1   -1    0    0  501    0 -0.00000000000E+00 -0.00000000000E+00 -0.24136569082E+03  0.24136569082E+03  0.00000000000E+00 0. -1.
         25    2    1    2    0    0  0.53497562851E+02  0.12049746567E+03  0.12515566981E+03  0.22061228038E+03  0.12499683237E+03 0.  0.
          2    1    1    2  501    0 -0.87087281376E+02 -0.12589103892E+03 -0.16131039042E+03  0.22238208183E+03  0.00000000000E+00 0. -1.
          1    1    1    2  502    0  0.33589718525E+02  0.53935732559E+01  0.15974755527E+03  0.16332985409E+03  0.00000000000E+00 0. -1.
         22    1    3    3    0    0  0.23761379516E+02  0.11647005949E+03  0.32519537780E+02  0.12323716262E+03  0.00000000000E+00 0. -1.
         22    1    3    3    0    0  0.29736183335E+02  0.40274061806E+01  0.92636132034E+02  0.97375117757E+02  0.00000000000E+00 0. -1.
</event>
<event>
 7    1  0.6681656E-006  0.1206434E+03  0.7818608E-02  0.1323876E+00
          2   -1    0    0  502    0  0.00000000000E+00  0.00000000000E+00  0.11965489285E+04  0.11965489285E+04  0.00000000000E+00 0. -1.
          1   -1    0    0  501    0 -0.00000000000E+00 -0.00000000000E+00 -0.10715846617E+04  0.10715846617E+04  0.00000000000E+00 0. -1.
         25    2    1    2    0    0 -0.17319146627E+03  0.12193406993E+02  0.48051022121E+02  0.21926653750E+03  0.12499980232E+03 0.  0.
          2    1    1    2  501    0  0.11922398173E+03  0.90282607846E+00 -0.98164205322E+03  0.98885605300E+03  0.00000000000E+00 0. -1.
          1    1    1    2  502    0  0.53967484535E+02 -0.13096233072E+02  0.10585552979E+04  0.10600109997E+04  0.00000000000E+00 0. -1.
         22    1    3    3    0    0 -0.82897401304E+01 -0.12068365077E+02  0.50491761971E+02  0.52571696320E+02  0.00000000000E+00 0. -1.
         22    1    3    3    0    0 -0.16490172614E+03  0.24261772070E+02 -0.24407398502E+01  0.16669484118E+03  0.00000000000E+00 0. -1.
</event>
<event>
 7    1  0.6681656E-006  0.1843732E+03  0.7818608E-02  0.1213650E+00
          2   -1    0    0  502    0  0.00000000000E+00  0.00000000000E+00  0.45186125041E+03  0.45186125041E+03  0.00000000000E+00 0. -1.
          1   -1    0    0  501    0 -0.00000000000E+00 -0.00000000000E+00 -0.54674535114E+03  0.54674535114E+03  0.00000000000E+00 0. -1.
         25    2    1    2    0    0 -0.10783517720E+03 -0.16893469325E+03 -0.28024321783E+03  0.36650903627E+03  0.12500102603E+03 0.  0.
          2    1    1    2  501    0 -0.58773416347E+02  0.88146622875E+02 -0.18774480989E+03  0.21557424529E+03  0.00000000000E+00 0. -1.
          1    1    1    2  502    0  0.16660859354E+03  0.80788070374E+02  0.37310392698E+03  0.41652331998E+03  0.00000000000E+00 0. -1.
         22    1    3    3    0    0 -0.10179790129E+03 -0.54911890533E+02 -0.18320876994E+03  0.21666467597E+03  0.00000000000E+00 0. -1.
         22    1    3    3    0    0 -0.60372759089E+01 -0.11402280272E+03 -0.97034447884E+02  0.14984436031E+03  0.00000000000E+00 0. -1.
</event>
<event>
 7    1  0.6681656E-006  0.7945355E+02  0.7818608E-02  0.1461881E+00
          2   -1    0    0  502    0  0.00000000000E+00  0.00000000000E+00  0.56945447343E+03  0.56945447343E+03  0.00000000000E+00 0. -1.
          1   -1    0    0  501    0 -0.00000000000E+00 -0.00000000000E+00 -0.50700769642E+03  0.50700769642E+03  0.00000000000E+00 0. -1.
         25    2    1    2    0    0 -0.42357515276E+02 -0.72821051394E+02  0.32193187017E+03  0.35547507019E+03  0.12500132749E+03 0.  0.
          2    1    1    2  501    0 -0.17614709252E+02  0.21600869437E+02 -0.48308358336E+03  0.48388699512E+03  0.00000000000E+00 0. -1.
          1    1    1    2  502    0  0.59972224528E+02  0.51220181957E+02  0.22359849020E+03  0.23710010454E+03  0.00000000000E+00 0. -1.
         22    1    3    3    0    0  0.21639371551E+02 -0.18340470692E+02  0.22666765677E+03  0.22843568437E+03  0.00000000000E+00 0. -1.
         22    1    3    3    0    0 -0.63996886827E+02 -0.54480580702E+02  0.95264213398E+02  0.12703938583E+03  0.00000000000E+00 0. -1.
</event>
<event>
 7    1  0.6681656E-006  0.7641374E+02  0.7818608E-02  0.1432923E+00
          2   -1    0    0  502    0  0.00000000000E+00  0.00000000000E+00  0.35256510880E+03  0.35256510880E+03  0.00000000000E+00 0. -1.
          1   -1    0    0  501    0 -0.00000000000E+00 -0.00000000000E+00 -0.22902881284E+03  0.22902881284E+03  0.00000000000E+00 0. -1.
         25    2    1    2    0    0 -0.25674694620E+02 -0.35987713613E+02  0.11660383265E+03  0.17656548765E+03  0.12499844866E+03 0.  0.
          2    1    1    2  501    0  0.57072950342E+02  0.53398082538E+02 -0.18968696920E+03  0.20515804436E+03  0.00000000000E+00 0. -1.
          1    1    1    2  502    0 -0.31398255722E+02 -0.17410368925E+02  0.19661943252E+03  0.19987038963E+03  0.00000000000E+00 0. -1.
         22    1    3    3    0    0 -0.65041301618E+02  0.14217869225E+02  0.75548484131E+02  0.10069802469E+03  0.00000000000E+00 0.  1.
         22    1    3    3    0    0  0.39366606998E+02 -0.50205582838E+02  0.41055348516E+02  0.75867462963E+02  0.00000000000E+00 0.  1.
</event>
<event>
 7    1  0.6681656E-006  0.7443810E+02  0.7818608E-02  0.1362933E+00
          2   -1    0    0  502    0  0.00000000000E+00  0.00000000000E+00  0.83091947816E+03  0.83091947816E+03  0.00000000000E+00 0. -1.
          1   -1    0    0  501    0 -0.00000000000E+00 -0.00000000000E+00 -0.84610758810E+03  0.84610758810E+03  0.00000000000E+00 0. -1.
         25    2    1    2    0    0  0.17354386782E+02  0.92152963729E+02  0.15923772951E+03  0.22310432993E+03  0.12500217626E+03 0.  0.
          2    1    1    2  501    0 -0.57345825065E+02 -0.29035699557E+02 -0.81071611585E+03  0.81326025108E+03  0.00000000000E+00 0. -1.
          1    1    1    2  502    0  0.39991438284E+02 -0.63117264172E+02  0.63629027639E+03  0.64066248525E+03  0.00000000000E+00 0. -1.
         22    1    3    3    0    0 -0.37577058419E+02  0.33157989959E+02  0.66780382442E+01  0.50557727524E+02  0.00000000000E+00 0.  1.
         22    1    3    3    0    0  0.54931445201E+02  0.58994973770E+02  0.15255969127E+03  0.17254660241E+03  0.00000000000E+00 0.  1.
</event>
<event>
 7    1  0.6681656E-006  0.5711354E+02  0.7818608E-02  0.1438998E+00
          2   -1    0    0  502    0  0.00000000000E+00  0.00000000000E+00  0.29431872617E+03  0.29431872617E+03  0.00000000000E+00 0. -1.
          1   -1    0    0  501    0 -0.00000000000E+00 -0.00000000000E+00 -0.20847421752E+04  0.20847421752E+04  0.00000000000E+00 0. -1.
         25    2    1    2    0    0 -0.40347641193E+02  0.74563117175E+02 -0.93743143122E+03  0.94952082896E+03  0.12499810313E+03 0.  0.
          2    1    1    2  501    0  0.46795290695E+02 -0.29127586846E+02 -0.11387688544E+04  0.11401020653E+04  0.00000000000E+00 0. -1.
          1    1    1    2  502    0 -0.64476495018E+01 -0.45435530330E+02  0.28577683662E+03  0.28943800709E+03  0.00000000000E+00 0. -1.
         22    1    3    3    0    0 -0.47841375221E+02 -0.14017723597E+01 -0.66139099163E+03  0.66312050636E+03  0.00000000000E+00 0. -1.
         22    1    3    3    0    0  0.74937340278E+01  0.75964889535E+02 -0.27604043959E+03  0.28640032259E+03  0.00000000000E+00 0. -1.
</event>
<event>
 7    1  0.6681656E-006  0.3276745E+03  0.7818608E-02  0.1279048E+00
          2   -1    0    0  502    0  0.00000000000E+00  0.00000000000E+00  0.68851035702E+03  0.68851035702E+03  0.00000000000E+00 0. -1.
          1   -1    0    0  501    0 -0.00000000000E+00 -0.00000000000E+00 -0.16315561297E+04  0.16315561297E+04  0.00000000000E+00 0. -1.
         25    2    1    2    0    0 -0.19208623471E+03 -0.24666864197E+03 -0.28958959307E+03  0.44410577631E+03  0.12500107053E+03 0.  0.
          2    1    1    2  501    0 -0.30658110666E+02  0.37176545074E+01 -0.12200653742E+04  0.12204561680E+04  0.00000000000E+00 0. -1.
          1    1    1    2  502    0  0.22274434538E+03  0.24295098747E+03  0.56660919460E+03  0.65550454241E+03  0.00000000000E+00 0. -1.
         22    1    3    3    0    0  0.15073402368E+02 -0.37495477053E+02 -0.20744748674E+02  0.45425354770E+02  0.00000000000E+00 0. -1.
         22    1    3    3    0    0 -0.20715963708E+03 -0.20917316492E+03 -0.26884484439E+03  0.39868042154E+03  0.00000000000E+00 0. -1.
</event>
<event>
 7    1  0.9201426E-006  0.7660160E+02  0.7818608E-02  0.1341950E+00
          2   -1    0    0  502    0  0.00000000000E+00  0.00000000000E+00  0.82503493891E+03  0.82503493891E+03  0.00000000000E+00 0. -1.
          1   -1    0    0  501    0 -0.00000000000E+00 -0.00000000000E+00 -0.23187906524E+04  0.23187906524E+04  0.00000000000E+00 0. -1.
         25    2    1    2    0    0  0.63947692786E+01 -0.24333231088E+01 -0.30495259247E+03  0.32964830169E+03  0.12500042007E+03 0.  0.
          2    1    1    2  501    0 -0.56628374644E+02 -0.55397374560E+02 -0.19988988188E+04  0.20004679777E+04  0.00000000000E+00 0. -1.
          1    1    1    2  502    0  0.50233605366E+02  0.57830697669E+02  0.81009569780E+03  0.81370931191E+03  0.00000000000E+00 0. -1.
         22    1    3    3    0    0  0.40460658398E+02  0.48895265214E+02 -0.16189541337E+03  0.17389058833E+03  0.00000000000E+00 0.  1.
         22    1    3    3    0    0 -0.34065889120E+02 -0.51328588323E+02 -0.14305717910E+03  0.15575771336E+03  0.00000000000E+00 0.  1.
</event>
<event>
 7    1  0.6681656E-006  0.7991348E+02  0.7818608E-02  0.1468855E+00
          2   -1    0    0  502    0  0.00000000000E+00  0.00000000000E+00  0.11237340319E+04  0.11237340319E+04  0.00000000000E+00 0. -1.
          1   -1    0    0  501    0 -0.00000000000E+00 -0.00000000000E+00 -0.10431778474E+03  0.10431778474E+03  0.00000000000E+00 0. -1.
         25    2    1    2    0    0  0.88084306620E+02  0.56133396327E+02  0.86488075368E+03  0.88008716956E+03  0.12499961871E+03 0.  0.
          2    1    1    2  501    0 -0.62810493857E+02 -0.48668109277E+02 -0.79528834650E+02  0.11242143274E+03  0.00000000000E+00 0. -1.
          1    1    1    2  502    0 -0.25273812763E+02 -0.74652870504E+01  0.23406432809E+03  0.23554321431E+03  0.00000000000E+00 0. -1.
         22    1    3    3    0    0  0.61895243298E+02 -0.30721194861E+01  0.70322069005E+03  0.70594603050E+03  0.00000000000E+00 0. -1.
         22    1    3    3    0    0  0.26189063321E+02  0.59205515813E+02  0.16166006363E+03  0.17414113906E+03  0.00000000000E+00 0. -1.
</event>
<event>
 7    1  0.6681656E-006  0.9710657E+02  0.7818608E-02  0.1404249E+00
          2   -1    0    0  502    0  0.00000000000E+00  0.00000000000E+00  0.40532406218E+04  0.40532406218E+04  0.00000000000E+00 0. -1.
          1   -1    0    0  501    0 -0.00000000000E+00 -0.00000000000E+00 -0.17741174709E+04  0.17741174709E+04  0.00000000000E+00 0. -1.
         25    2    1    2    0    0  0.80249325982E+02 -0.97164693114E+02  0.72591640744E+03  0.74730189346E+03  0.12499822991E+03 0.  0.
          2    1    1    2  501    0 -0.31890850846E+02  0.14991243784E+02 -0.17625633188E+04  0.17629155444E+04  0.00000000000E+00 0. -1.
          1    1    1    2  502    0 -0.48358475136E+02  0.82173449330E+02  0.33157700623E+04  0.33171406549E+04  0.00000000000E+00 0. -1.
         22    1    3    3    0    0  0.90134275054E+02 -0.30695585150E+02  0.26655587524E+03  0.28305201132E+03  0.00000000000E+00 0. -1.
         22    1    3    3    0    0 -0.98849490720E+01 -0.66469107965E+02  0.45936053219E+03  0.46424988214E+03  0.00000000000E+00 0. -1.
</event>
<event>
 7    1  0.6681656E-006  0.4599261E+02  0.7818608E-02  0.1510336E+00
          2   -1    0    0  502    0  0.00000000000E+00  0.00000000000E+00  0.39340212725E+03  0.39340212725E+03  0.00000000000E+00 0. -1.
          1   -1    0    0  501    0 -0.00000000000E+00 -0.00000000000E+00 -0.84143696301E+02  0.84143696301E+02  0.00000000000E+00 0. -1.
         25    2    1    2    0    0 -0.31555008183E+02  0.47483103993E+02 -0.10654012115E+02  0.13780166332E+03  0.12500170693E+03 0.  0.
          2    1    1    2  501    0  0.39370505948E+02 -0.14095187285E+02  0.40430421532E+02  0.58166399480E+02  0.00000000000E+00 0. -1.
          1    1    1    2  502    0 -0.78154977648E+01 -0.33387916708E+02  0.27948202154E+03  0.28157776075E+03  0.00000000000E+00 0. -1.
         22    1    3    3    0    0 -0.64443575201E+02 -0.12643008461E+02 -0.19962663296E+02  0.68639114021E+02  0.00000000000E+00 0.  1.
         22    1    3    3    0    0  0.32888567018E+02  0.60126112455E+02  0.93086511809E+01  0.69162549304E+02  0.00000000000E+00 0.  1.
</event>
<event>
 7    1  0.6681656E-006  0.1458137E+03  0.7818608E-02  0.1424760E+00
          2   -1    0    0  502    0  0.00000000000E+00  0.00000000000E+00  0.31062449274E+03  0.31062449274E+03  0.00000000000E+00 0. -1.
          1   -1    0    0  501    0 -0.00000000000E+00 -0.00000000000E+00 -0.56210850573E+03  0.56210850573E+03  0.00000000000E+00 0. -1.
         25    2    1    2    0    0  0.88617947301E+02 -0.10116927285E+03 -0.18684481900E+03  0.26196219945E+03  0.12499938079E+03 0.  0.
          2    1    1    2  501    0  0.19898107007E+02  0.21845972666E+01 -0.31761571443E+03  0.31824589420E+03  0.00000000000E+00 0. -1.
          1    1    1    2  502    0 -0.10851605431E+03  0.98984675582E+02  0.25297652044E+03  0.29252490481E+03  0.00000000000E+00 0. -1.
         22    1    3    3    0    0  0.89822374938E+02 -0.94522479780E+01 -0.75630631944E+02  0.11780236211E+03  0.00000000000E+00 0.  1.
         22    1    3    3    0    0 -0.12044276378E+01 -0.91717024870E+02 -0.11121418706E+03  0.14415983733E+03  0.00000000000E+00 0.  1.
</event>
<event>
 7    1  0.6681656E-006  0.5342456E+02  0.7818608E-02  0.1555286E+00
          2   -1    0    0  502    0  0.00000000000E+00  0.00000000000E+00  0.37108212755E+02  0.37108212755E+02  0.00000000000E+00 0. -1.
          1   -1    0    0  501    0 -0.00000000000E+00 -0.00000000000E+00 -0.10430429104E+04  0.10430429104E+04  0.00000000000E+00 0. -1.
         25    2    1    2    0    0  0.33143592935E+02  0.52215885755E+01 -0.60425813107E+03  0.61796238309E+03  0.12499542073E+03 0.  0.
          2    1    1    2  501    0  0.21091178473E+02 -0.61452287405E+01 -0.40708483298E+03  0.40767715522E+03  0.00000000000E+00 0. -1.
          1    1    1    2  502    0 -0.54234771408E+02  0.92364016500E+00  0.54082663775E+01  0.54511584879E+02  0.00000000000E+00 0. -1.
         22    1    3    3    0    0 -0.27567048367E+02  0.36555639025E+02 -0.39932330103E+03  0.40193949252E+03  0.00000000000E+00 0.  1.
         22    1    3    3    0    0  0.60710641302E+02 -0.31334050449E+02 -0.20493483004E+03  0.21602289057E+03  0.00000000000E+00 0.  1.
</event>
<event>
 7    1  0.6681656E-006  0.5441070E+02  0.7818608E-02  0.1427237E+00
          2   -1    0    0  502    0  0.00000000000E+00  0.00000000000E+00  0.17592984393E+04  0.17592984393E+04  0.00000000000E+00 0. -1.
          1   -1    0    0  501    0 -0.00000000000E+00 -0.00000000000E+00 -0.40727764687E+03  0.40727764687E+03  0.00000000000E+00 0. -1.
         25    2    1    2    0    0  0.69035984764E+01  0.25192975369E+01  0.34070702349E+03  0.36298910643E+03  0.12500323596E+03 0.  0.
          2    1    1    2  501    0  0.42131095634E+02 -0.31560661566E+02 -0.39380760689E+03  0.39731037719E+03  0.00000000000E+00 0. -1.
          1    1    1    2  502    0 -0.49034694110E+02  0.29041364029E+02  0.14051213758E+04  0.14062766025E+04  0.00000000000E+00 0. -1.
         22    1    3    3    0    0 -0.45726988603E+02  0.39880041653E+02  0.16603396479E+03  0.17677288444E+03  0.00000000000E+00 0.  1.
         22    1    3    3    0    0  0.52630587079E+02 -0.37360744116E+02  0.17467305869E+03  0.18621622199E+03  0.00000000000E+00 0.  1.
</event>
<event>
 7    1  0.6681656E-006  0.4750681E+02  0.7818608E-02  0.1534569E+00
          2   -1    0    0  502    0  0.00000000000E+00  0.00000000000E+00  0.39191285793E+04  0.39191285793E+04  0.00000000000E+00 0. -1.
          1   -1    0    0  501    0 -0.00000000000E+00 -0.00000000000E+00 -0.66634327010E+02  0.66634327010E+02  0.00000000000E+00 0. -1.
         25    2    1    2    0    0  0.74633857407E+02  0.71450766918E+01  0.80647002450E+03  0.81953652653E+03  0.12499981242E+03 0.  0.
          2    1    1    2  501    0 -0.28204060239E+02 -0.15433106049E+01 -0.56596308350E+02  0.63253402599E+02  0.00000000000E+00 0. -1.
          1    1    1    2  502    0 -0.46429797168E+02 -0.56017660869E+01  0.31026205361E+04  0.31029729771E+04  0.00000000000E+00 0. -1.
         22    1    3    3    0    0  0.21083749592E+02 -0.54969376597E+02  0.23760568394E+03  0.24479096777E+03  0.00000000000E+00 0. -1.
         22    1    3    3    0    0  0.53550107815E+02  0.62114453289E+02  0.56886434056E+03  0.57474555876E+03  0.00000000000E+00 0. -1.
</event>
<event>
 7    1  0.6681656E-006  0.6664434E+02  0.7818608E-02  0.1475358E+00
          2   -1    0    0  502    0  0.00000000000E+00  0.00000000000E+00  0.34941080901E+03  0.34941080901E+03  0.00000000000E+00 0. -1.
          1   -1    0    0  501    0 -0.00000000000E+00 -0.00000000000E+00 -0.56122132649E+03  0.56122132649E+03  0.00000000000E+00 0. -1.
         25    2    1    2    0    0  0.34443542149E+02  0.50943661411E+02  0.27327022295E+03  0.30672986419E+03  0.12499992242E+03 0.  0.
          2    1    1    2  501    0  0.29327142489E+02 -0.70653411124E+01 -0.51865153694E+03  0.51952807152E+03  0.00000000000E+00 0. -1.
          1    1    1    2  502    0 -0.63770684638E+02 -0.43878320298E+02  0.33570796509E+02  0.84374199786E+02  0.00000000000E+00 0. -1.
         22    1    3    3    0    0 -0.26896954258E+02 -0.11855115014E+02  0.16376133942E+03  0.16637838258E+03  0.00000000000E+00 0.  1.
         22    1    3    3    0    0  0.61340496407E+02  0.62798776425E+02  0.10950888352E+03  0.14035148161E+03  0.00000000000E+00 0.  1.
</event>
<event>
 7    1  0.6681656E-006  0.1205787E+03  0.7818608E-02  0.1382183E+00
          2   -1    0    0  502    0  0.00000000000E+00  0.00000000000E+00  0.19752904085E+04  0.19752904085E+04  0.00000000000E+00 0. -1.
          1   -1    0    0  501    0 -0.00000000000E+00 -0.00000000000E+00 -0.27649362116E+03  0.27649362116E+03  0.00000000000E+00 0. -1.
         25    2    1    2    0    0 -0.72881326649E+02  0.84690483202E+02  0.94203082799E+03  0.95683047327E+03  0.12497322908E+03 0.  0.
          2    1    1    2  501    0  0.10112433133E+03 -0.66019647078E+02 -0.25524659131E+03  0.28237483345E+03  0.00000000000E+00 0. -1.
          1    1    1    2  502    0 -0.28243004680E+02 -0.18670836124E+02  0.10120125507E+04  0.10125787229E+04  0.00000000000E+00 0. -1.
         22    1    3    3    0    0 -0.18026516138E+02  0.35253552191E+02  0.61086078788E+02  0.72796134841E+02  0.00000000000E+00 0. -1.
         22    1    3    3    0    0 -0.54854810510E+02  0.49436931011E+02  0.88094474920E+03  0.88403433843E+03  0.00000000000E+00 0. -1.
</event>
<event>
 7    1  0.6681656E-006  0.7460998E+02  0.7818608E-02  0.1467218E+00
          2   -1    0    0  502    0  0.00000000000E+00  0.00000000000E+00  0.20874664748E+04  0.20874664748E+04  0.00000000000E+00 0. -1.
          1   -1    0    0  501    0 -0.00000000000E+00 -0.00000000000E+00 -0.35823000278E+03  0.35823000278E+03  0.00000000000E+00 0. -1.
         25    2    1    2    0    0  0.61819386491E+02 -0.18464813334E+01  0.44178706706E+03  0.46328370128E+03  0.12502371462E+03 0.  0.
          2    1    1    2  501    0  0.83307123990E+01 -0.27318273468E+02 -0.34601046788E+03  0.34718717245E+03  0.00000000000E+00 0. -1.
          1    1    1    2  502    0 -0.70150098890E+02  0.29164754802E+02  0.16334598729E+04  0.16352256039E+04  0.00000000000E+00 0. -1.
         22    1    3    3    0    0  0.22560789878E+02 -0.29966857420E+01  0.32481643748E+01  0.22989561483E+02  0.00000000000E+00 0.  1.
         22    1    3    3    0    0  0.39258596612E+02  0.11502044086E+01  0.43853890268E+03  0.44029413980E+03  0.00000000000E+00 0.  1.
</event>
<event>
 7    1  0.6681656E-006  0.1678138E+03  0.7818608E-02  0.1318788E+00
          2   -1    0    0  502    0  0.00000000000E+00  0.00000000000E+00  0.12823686999E+03  0.12823686999E+03  0.00000000000E+00 0. -1.
          1   -1    0    0  501    0 -0.00000000000E+00 -0.00000000000E+00 -0.19698506204E+04  0.19698506204E+04  0.00000000000E+00 0. -1.
         25    2    1    2    0    0 -0.15827095528E+03  0.35387932958E+01 -0.16937306356E+04  0.17056994451E+04  0.12499965001E+03 0.  0.
          2    1    1    2  501    0 -0.57268109568E+01 -0.41382006794E+02 -0.20914610530E+03  0.21327765990E+03  0.00000000000E+00 0. -1.
          1    1    1    2  502    0  0.16399776623E+03  0.37843213499E+02  0.61262990559E+02  0.17911038538E+03  0.00000000000E+00 0. -1.
         22    1    3    3    0    0 -0.75425154691E+02 -0.49736208466E+02 -0.51536095299E+03  0.52322037065E+03  0.00000000000E+00 0. -1.
         22    1    3    3    0    0 -0.82845800586E+02  0.53275001761E+02 -0.11783696826E+04  0.11824790744E+04  0.00000000000E+00 0. -1.
</event>
<event>
 7    1  0.6681656E-006  0.1302629E+03  0.7818608E-02  0.1405900E+00
          2   -1    0    0  502    0  0.00000000000E+00  0.00000000000E+00  0.31725033752E+04  0.31725033752E+04  0.00000000000E+00 0. -1.
          1   -1    0    0  501    0 -0.00000000000E+00 -0.00000000000E+00 -0.56969660471E+03  0.56969660471E+03  0.00000000000E+00 0. -1.
         25    2    1    2    0    0  0.82126753109E+02  0.66889187474E+02  0.19201757425E+03  0.25241208769E+03  0.12498858433E+03 0.  0.
          2    1    1    2  501    0  0.16513092155E+02  0.19992962118E+02 -0.53772263762E+03  0.53834750465E+03  0.00000000000E+00 0. -1.
          1    1    1    2  502    0 -0.98639845264E+02 -0.86882149592E+02  0.29485118339E+04  0.29514403876E+04  0.00000000000E+00 0. -1.
         22    1    3    3    0    0 -0.24836536844E+02  0.29489408452E+02  0.97526058851E+02  0.10487044831E+03  0.00000000000E+00 0.  1.
         22    1    3    3    0    0  0.10696328995E+03  0.37399779023E+02  0.94491515403E+02  0.14754163938E+03  0.00000000000E+00 0.  1.
</event>
<event>
 7    1  0.6681656E-006  0.4451633E+02  0.7818608E-02  0.1480168E+00
          2   -1    0    0  502    0  0.00000000000E+00  0.00000000000E+00  0.20768977654E+04  0.20768977654E+04  0.00000000000E+00 0. -1.
          1   -1    0    0  501    0 -0.00000000000E+00 -0.00000000000E+00 -0.37667537696E+02  0.37667537696E+02  0.00000000000E+00 0. -1.
         25    2    1    2    0    0 -0.79093142259E+01 -0.81202251326E+01  0.70012050290E+03  0.71128265306E+03  0.12500319456E+03 0.  0.
          2    1    1    2  501    0  0.30171965178E+02 -0.32731573946E+02 -0.16052422504E+02  0.47322126790E+02  0.00000000000E+00 0. -1.
          1    1    1    2  502    0 -0.22262650952E+02  0.40851799079E+02  0.13551621473E+04  0.13559605233E+04  0.00000000000E+00 0. -1.
         22    1    3    3    0    0  0.32458323706E+02 -0.34508077658E+02  0.11781093210E+03  0.12697939173E+03  0.00000000000E+00 0.  1.
         22    1    3    3    0    0 -0.40367637932E+02  0.26387852525E+02  0.58230957080E+03  0.58430326132E+03  0.00000000000E+00 0.  1.
</event>
<event>
 7    1  0.6681656E-006  0.4605240E+02  0.7818608E-02  0.1590570E+00
          2   -1    0    0  502    0  0.00000000000E+00  0.00000000000E+00  0.36046186985E+03  0.36046186985E+03  0.00000000000E+00 0. -1.
          1   -1    0    0  501    0 -0.00000000000E+00 -0.00000000000E+00 -0.13889174077E+03  0.13889174077E+03  0.00000000000E+00 0. -1.
         25    2    1    2    0    0  0.20133947129E+02  0.27949613329E+02  0.25988855227E+03  0.29043738545E+03  0.12500103422E+03 0.  0.
          2    1    1    2  501    0 -0.93501928883E+01 -0.45330073154E+02 -0.11794661082E+03  0.12670297803E+03  0.00000000000E+00 0. -1.
          1    1    1    2  502    0 -0.10783754240E+02  0.17380459825E+02  0.79628187628E+02  0.82213247133E+02  0.00000000000E+00 0. -1.
         22    1    3    3    0    0  0.21732030020E+02 -0.16662896839E+01 -0.62319464439E+01  0.22669248038E+02  0.00000000000E+00 0. -1.
         22    1    3    3    0    0 -0.15980828918E+01  0.29615903013E+02  0.26612049871E+03  0.26776813741E+03  0.00000000000E+00 0. -1.
</event>
<event>
 7    1  0.6681656E-006  0.2019667E+03  0.7818608E-02  0.1231575E+00
          2   -1    0    0  502    0  0.00000000000E+00  0.00000000000E+00  0.73465640204E+03  0.73465640204E+03  0.00000000000E+00 0. -1.
          1   -1    0    0  501    0 -0.00000000000E+00 -0.00000000000E+00 -0.57317082627E+03  0.57317082627E+03  0.00000000000E+00 0. -1.
         25    2    1    2    0    0  0.15405028541E+03 -0.96328173048E+02 -0.17228811746E+03  0.27984823592E+03  0.12498492858E+03 0.  0.
          2    1    1    2  501    0 -0.13453030796E+03  0.17410648923E+03 -0.30949296750E+03  0.37973328835E+03  0.00000000000E+00 0. -1.
          1    1    1    2  502    0 -0.19519977451E+02 -0.77778316180E+02  0.64326666074E+03  0.64824570404E+03  0.00000000000E+00 0. -1.
         22    1    3    3    0    0  0.17058454620E+03 -0.98320492553E+02 -0.17444744263E+03  0.26305496935E+03  0.00000000000E+00 0. -1.
         22    1    3    3    0    0 -0.16534260792E+02  0.19923195056E+01  0.21593251691E+01  0.16793266572E+02  0.00000000000E+00 0. -1.
</event>
<event>
 7    1  0.6681656E-006  0.1412562E+03  0.7818608E-02  0.1274325E+00
          2   -1    0    0  502    0  0.00000000000E+00  0.00000000000E+00  0.29259313723E+04  0.29259313723E+04  0.00000000000E+00 0. -1.
          1   -1    0    0  501    0 -0.00000000000E+00 -0.00000000000E+00 -0.18318393705E+03  0.18318393705E+03  0.00000000000E+00 0. -1.
         25    2    1    2    0    0 -0.54451967439E+01 -0.12940141755E+03  0.60749151086E+03  0.63359741791E+03  0.12500150072E+03 0.  0.
          2    1    1    2  501    0 -0.74614327722E+02  0.70912308457E+01 -0.15943601418E+03  0.17617441946E+03  0.00000000000E+00 0. -1.
          1    1    1    2  502    0  0.80059524466E+02  0.12231018670E+03  0.22946919385E+04  0.22993434720E+04  0.00000000000E+00 0. -1.
         22    1    3    3    0    0  0.52012673289E+01 -0.98089080507E+02  0.58595379342E+03  0.59412992596E+03  0.00000000000E+00 0.  1.
         22    1    3    3    0    0 -0.10646464073E+02 -0.31312337043E+02  0.21537717443E+02  0.39467491953E+02  0.00000000000E+00 0.  1.
</event>
<event>
 7    1  0.6681656E-006  0.2019216E+03  0.7818608E-02  0.1211700E+00
          2   -1    0    0  502    0  0.00000000000E+00  0.00000000000E+00  0.41478839379E+03  0.41478839379E+03  0.00000000000E+00 0. -1.
          1   -1    0    0  501    0 -0.00000000000E+00 -0.00000000000E+00 -0.24896905657E+03  0.24896905657E+03  0.00000000000E+00 0. -1.
         25    2    1    2    0    0 -0.12303688039E+03 -0.15118411189E+03  0.13091736664E+03  0.26600614206E+03  0.12500080440E+03 0.  0.
          2    1    1    2  501    0 -0.76874547133E+02  0.62003363928E+02 -0.10005745302E+03  0.14059020961E+03  0.00000000000E+00 0. -1.
          1    1    1    2  502    0  0.19991142752E+03  0.89180747960E+02  0.13495942360E+03  0.25716109869E+03  0.00000000000E+00 0. -1.
         22    1    3    3    0    0 -0.14433280692E+03 -0.11792100216E+03  0.12860302808E+03  0.22644217967E+03  0.00000000000E+00 0.  1.
         22    1    3    3    0    0  0.21295926539E+02 -0.33263109733E+02  0.23143385582E+01  0.39563962380E+02  0.00000000000E+00 0.  1.
</event>
<event>
 7    1  0.6681656E-006  0.1541513E+03  0.7818608E-02  0.1380550E+00
          2   -1    0    0  502    0  0.00000000000E+00  0.00000000000E+00  0.10042945898E+03  0.10042945898E+03  0.00000000000E+00 0. -1.
          1   -1    0    0  501    0 -0.00000000000E+00 -0.00000000000E+00 -0.10497667110E+04  0.10497667110E+04  0.00000000000E+00 0. -1.
         25    2    1    2    0    0  0.17697622484E+03 -0.20140174192E+02 -0.67455214855E+03  0.70878208291E+03  0.12500091669E+03 0.  0.
          2    1    1    2  501    0 -0.26791142450E+02 -0.15709533703E+01 -0.28785746816E+03  0.28910578546E+03  0.00000000000E+00 0. -1.
          1    1    1    2  502    0 -0.15018508239E+03  0.21711127562E+02  0.13072364650E+02  0.15230830165E+03  0.00000000000E+00 0. -1.
         22    1    3    3    0    0  0.80743806449E+02 -0.23426644157E+02 -0.12362765475E+03  0.14950641108E+03  0.00000000000E+00 0. -1.
         22    1    3    3    0    0  0.96232418392E+02  0.32864699656E+01 -0.55092449380E+03  0.55927567183E+03  0.00000000000E+00 0. -1.
</event>
<event>
 7    1  0.6681656E-006  0.9680157E+02  0.7818608E-02  0.1306141E+00
          2   -1    0    0  502    0  0.00000000000E+00  0.00000000000E+00  0.52303517841E+03  0.52303517841E+03  0.00000000000E+00 0. -1.
          1   -1    0    0  501    0 -0.00000000000E+00 -0.00000000000E+00 -0.25016834545E+04  0.25016834545E+04  0.00000000000E+00 0. -1.
         25    2    1    2    0    0 -0.14073043145E+02  0.45133743543E+02 -0.19999915023E+02  0.13512912626E+03  0.12499911524E+03 0.  0.
          2    1    1    2  501    0 -0.80735361261E+02 -0.86235988888E+01 -0.24178857022E+04  0.24192486093E+04  0.00000000000E+00 0. -1.
          1    1    1    2  502    0  0.94808404407E+02 -0.36510144655E+02  0.45923734112E+03  0.47034089731E+03  0.00000000000E+00 0. -1.
         22    1    3    3    0    0 -0.55869604435E+02  0.46390069019E+02  0.21984683780E+02  0.75873430951E+02  0.00000000000E+00 0. -1.
         22    1    3    3    0    0  0.41796561290E+02 -0.12563254758E+01 -0.41984598803E+02  0.59255695304E+02  0.00000000000E+00 0. -1.
</event>
<event>
 7    1  0.6681656E-006  0.2045690E+03  0.7818608E-02  0.1332375E+00
          2   -1    0    0  502    0  0.00000000000E+00  0.00000000000E+00  0.95804698294E+03  0.95804698294E+03  0.00000000000E+00 0. -1.
          1   -1    0    0  501    0 -0.00000000000E+00 -0.00000000000E+00 -0.42938402853E+03  0.42938402853E+03  0.00000000000E+00 0. -1.
         25    2    1    2    0    0 -0.19962123302E+03 -0.91467002683E+02 -0.21844403634E+03  0.33400284284E+03  0.12500101101E+03 0.  0.
          2    1    1    2  501    0  0.51098884840E+01  0.29952014987E+02 -0.13995208557E+03  0.14321250092E+03  0.00000000000E+00 0. -1.
          1    1    1    2  502    0  0.19451134454E+03  0.61514987697E+02  0.88705907633E+03  0.91021566772E+03  0.00000000000E+00 0. -1.
         22    1    3    3    0    0 -0.98950187211E+02 -0.57879916548E+02 -0.31249879948E+02  0.11881826158E+03  0.00000000000E+00 0.  1.
         22    1    3    3    0    0 -0.10067104581E+03 -0.33587086136E+02 -0.18719415640E+03  0.21518458125E+03  0.00000000000E+00 0.  1.
</event>
<event>
 7    1  0.6681656E-006  0.2106037E+03  0.7818608E-02  0.1281802E+00
          2   -1    0    0  502    0  0.00000000000E+00  0.00000000000E+00  0.41612226341E+03  0.41612226341E+03  0.00000000000E+00 0. -1.
          1   -1    0    0  501    0 -0.00000000000E+00 -0.00000000000E+00 -0.20712284783E+04  0.20712284783E+04  0.00000000000E+00 0. -1.
         25    2    1    2    0    0  0.97453507343E+01 -0.18147620163E+03 -0.52423653197E+03  0.56875045754E+03  0.12499823151E+03 0.  0.
          2    1    1    2  501    0  0.15514778910E+02  0.22088337412E+03 -0.15152686529E+04  0.15313618983E+04  0.00000000000E+00 0. -1.
          1    1    1    2  502    0 -0.25260129644E+02 -0.39407172482E+02  0.38439896993E+03  0.38723838585E+03  0.00000000000E+00 0. -1.
         22    1    3    3    0    0 -0.13334197695E+02 -0.74748468154E+01  0.64284968731E+00  0.15299915647E+02  0.00000000000E+00 0. -1.
         22    1    3    3    0    0  0.23079548430E+02 -0.17400135482E+03 -0.52487938166E+03  0.55345054189E+03  0.00000000000E+00 0. -1.
</event>
<event>
 7    1  0.6681656E-006  0.3296499E+02  0.7818608E-02  0.1578530E+00
          2   -1    0    0  502    0  0.00000000000E+00  0.00000000000E+00  0.86935820624E+02  0.86935820624E+02  0.00000000000E+00 0. -1.
          1   -1    0    0  501    0 -0.00000000000E+00 -0.00000000000E+00 -0.15942669233E+04  0.15942669233E+04  0.00000000000E+00 0. -1.
         25    2    1    2    0    0  0.13504793621E+02 -0.11078693698E+02 -0.20837623113E+03  0.24361979138E+03  0.12499932859E+03 0.  0.
          2    1    1    2  501    0  0.16386049972E+02  0.26039399706E+02 -0.13640555487E+04  0.13644024673E+04  0.00000000000E+00 0. -1.
          1    1    1    2  502    0 -0.29890843592E+02 -0.14960706008E+02  0.65100677127E+02  0.73180485222E+02  0.00000000000E+00 0. -1.
         22    1    3    3    0    0  0.58564734081E+02  0.29239802883E+02 -0.11655930703E+03  0.13368195917E+03  0.00000000000E+00 0. -1.
         22    1    3    3    0    0 -0.45059940461E+02 -0.40318496581E+02 -0.91816924096E+02  0.10993783221E+03  0.00000000000E+00 0. -1.
</event>
<event>
 7    1  0.6681656E-006  0.1818942E+03  0.7818608E-02  0.1184807E+00
          2   -1    0    0  502    0  0.00000000000E+00  0.00000000000E+00  0.64686765285E+03  0.64686765285E+03  0.00000000000E+00 0. -1.
          1   -1    0    0  501    0 -0.00000000000E+00 -0.00000000000E+00 -0.33268057145E+04  0.33268057145E+04  0.00000000000E+00 0. -1.
         25    2    1    2    0    0  0.40698691797E+02  0.21872655937E+03 -0.17213234052E+04  0.17401370886E+04  0.12500052186E+03 0.  0.
          2    1    1    2  501    0  0.10201237196E+03 -0.10577997221E+03 -0.15796046648E+04  0.15864258015E+04  0.00000000000E+00 0. -1.
          1    1    1    2  502    0 -0.14271106376E+03 -0.11294658716E+03  0.62099000838E+03  0.64711047726E+03  0.00000000000E+00 0. -1.
         22    1    3    3    0    0  0.17840631776E+02  0.19979556568E+03 -0.16592744325E+04  0.16713551982E+04  0.00000000000E+00 0.  1.
         22    1    3    3    0    0  0.22858060021E+02  0.18930993689E+02 -0.62048972653E+02  0.68781890329E+02  0.00000000000E+00 0.  1.
</event>
<event>
 7    1  0.6681656E-006  0.8307424E+02  0.7818608E-02  0.1323496E+00
          2   -1    0    0  502    0  0.00000000000E+00  0.00000000000E+00  0.97290010972E+02  0.97290010972E+02  0.00000000000E+00 0. -1.
          1   -1    0    0  501    0 -0.00000000000E+00 -0.00000000000E+00 -0.40297547795E+03  0.40297547795E+03  0.00000000000E+00 0. -1.
         25    2    1    2    0    0  0.72339543699E+02  0.32352904951E+02 -0.85438037804E+02  0.17089381680E+03  0.12500127309E+03 0.  0.
          2    1    1    2  501    0 -0.71598112755E+02  0.50718024237E+02 -0.22957941828E+03  0.24577493166E+03  0.00000000000E+00 0. -1.
          1    1    1    2  502    0 -0.74143094421E+00 -0.83070929188E+02  0.93319891086E+01  0.83596740467E+02  0.00000000000E+00 0. -1.
         22    1    3    3    0    0  0.76792408713E+02 -0.31251637118E+02 -0.59551566490E+02  0.10207902787E+03  0.00000000000E+00 0. -1.
         22    1    3    3    0    0 -0.44528650140E+01  0.63604542069E+02 -0.25886471314E+02  0.68814788931E+02  0.00000000000E+00 0. -1.
</event>
<event>
 7    1  0.6681656E-006  0.1961366E+03  0.7818608E-02  0.1210968E+00
          2   -1    0    0  502    0  0.00000000000E+00  0.00000000000E+00  0.24172850404E+04  0.24172850404E+04  0.00000000000E+00 0. -1.
          1   -1    0    0  501    0 -0.00000000000E+00 -0.00000000000E+00 -0.13526395419E+03  0.13526395419E+03  0.00000000000E+00 0. -1.
         25    2    1    2    0    0 -0.23232738417E+03  0.99925048998E+02  0.62719861382E+03  0.68772359946E+03  0.12499847687E+03 0.  0.
          2    1    1    2  501    0  0.43619021301E+02 -0.92725334670E+02 -0.73569663735E+02  0.12614714476E+03  0.00000000000E+00 0. -1.
          1    1    1    2  502    0  0.18870836287E+03 -0.71997143274E+01  0.17283921362E+04  0.17386782504E+04  0.00000000000E+00 0. -1.
         22    1    3    3    0    0 -0.81860244496E+02 -0.42975677727E+01  0.97994095536E+02  0.12775919332E+03  0.00000000000E+00 0.  1.
         22    1    3    3    0    0 -0.15046713967E+03  0.10422261677E+03  0.52920451828E+03  0.55996440614E+03  0.00000000000E+00 0.  1.
</event>
<event>
 7    1  0.6681656E-006  0.1270186E+03  0.7818608E-02  0.1338621E+00
          2   -1    0    0  502    0  0.00000000000E+00  0.00000000000E+00  0.45043640961E+03  0.45043640961E+03  0.00000000000E+00 0. -1.
          1   -1    0    0  501    0 -0.00000000000E+00 -0.00000000000E+00 -0.78743458398E+03  0.78743458398E+03  0.00000000000E+00 0. -1.
         25    2    1    2    0    0 -0.11574829697E+03 -0.82891554542E+02  0.11964032505E+02  0.18983155272E+03  0.12499680904E+03 0.  0.
          2    1    1    2  501    0 -0.46498123001E+01  0.46107506938E+02 -0.68635860865E+03  0.68792126193E+03  0.00000000000E+00 0. -1.
          1    1    1    2  502    0  0.12039810927E+03  0.36784047604E+02  0.33739640177E+03  0.36011817894E+03  0.00000000000E+00 0. -1.
         22    1    3    3    0    0 -0.54385537522E+02 -0.10743913584E+03 -0.82958577049E+01  0.12070532655E+03  0.00000000000E+00 0. -1.
         22    1    3    3    0    0 -0.61362759446E+02  0.24547581296E+02  0.20259890210E+02  0.69126226178E+02  0.00000000000E+00 0. -1.
</event>
<event>
 7    1  0.6681656E-006  0.1173126E+03  0.7818608E-02  0.1271569E+00
          2   -1    0    0  502    0  0.00000000000E+00  0.00000000000E+00  0.75857124449E+03  0.75857124449E+03  0.00000000000E+00 0. -1.
          1   -1    0    0  501    0 -0.00000000000E+00 -0.00000000000E+00 -0.38867018317E+03  0.38867018317E+03  0.00000000000E+00 0. -1.
         25    2    1    2    0    0  0.18239331315E+03  0.93486712354E+02  0.13716935088E+03  0.27649130642E+03  0.12499970256E+03 0.  0.
          2    1    1    2  501    0 -0.96283774589E+02 -0.59230821717E+02 -0.30490437712E+03  0.32518538509E+03  0.00000000000E+00 0. -1.
          1    1    1    2  502    0 -0.86109538559E+02 -0.34255890637E+02  0.53763608756E+03  0.54556473614E+03  0.00000000000E+00 0. -1.
         22    1    3    3    0    0  0.34676578359E+02  0.80565683493E+02  0.76115961839E+02  0.11613326005E+03  0.00000000000E+00 0. -1.
         22    1    3    3    0    0  0.14771673479E+03  0.12921028861E+02  0.61053389036E+02  0.16035804637E+03  0.00000000000E+00 0. -1.
</event>
<event>
 7    1  0.6681656E-006  0.9832456E+02  0.7818608E-02  0.1323341E+00
          2   -1    0    0  502    0  0.00000000000E+00  0.00000000000E+00  0.43139376203E+03  0.43139376203E+03  0.00000000000E+00 0. -1.
          1   -1    0    0  501    0 -0.00000000000E+00 -0.00000000000E+00 -0.55157310888E+03  0.55157310888E+03  0.00000000000E+00 0. -1.
         25    2    1    2    0    0 -0.15387360008E+03 -0.58450849156E+02 -0.42724249769E+03  0.47461013329E+03  0.12500016087E+03 0.  0.
          2    1    1    2  501    0  0.66924269363E+02  0.14438960571E+02 -0.82258958438E+02  0.10702279036E+03  0.00000000000E+00 0. -1.
          1    1    1    2  502    0  0.86949330718E+02  0.44011888585E+02  0.38932210928E+03  0.40133394726E+03  0.00000000000E+00 0. -1.
         22    1    3    3    0    0 -0.62311150411E+02  0.38237443025E+02 -0.13730860671E+03  0.15555846165E+03  0.00000000000E+00 0. -1.
         22    1    3    3    0    0 -0.91562449669E+02 -0.96688292182E+02 -0.28993389098E+03  0.31905167163E+03  0.00000000000E+00 0. -1.
</event>
<event>
 7    1  0.6681656E-006  0.9523597E+02  0.7818608E-02  0.1323447E+00
          2   -1    0    0  502    0  0.00000000000E+00  0.00000000000E+00  0.12027726943E+03  0.12027726943E+03  0.00000000000E+00 0. -1.
          1   -1    0    0  501    0 -0.00000000000E+00 -0.00000000000E+00 -0.67845300730E+03  0.67845300730E+03  0.00000000000E+00 0. -1.
         25    2    1    2    0    0  0.10794246293E+03 -0.67498462945E+02 -0.59079627836E+02  0.18794000868E+03  0.12499370638E+03 0.  0.
          2    1    1    2  501    0 -0.94375237297E+02 -0.18035047582E+01 -0.52660945647E+03  0.53500229690E+03  0.00000000000E+00 0. -1.
          1    1    1    2  502    0 -0.13567225635E+02  0.69301967703E+02  0.27513346432E+02  0.75787971149E+02  0.00000000000E+00 0. -1.
         22    1    3    3    0    0  0.49049441200E+02  0.10177855876E+02 -0.73964532701E+02  0.89331900964E+02  0.00000000000E+00 0.  1.
         22    1    3    3    0    0  0.58893021733E+02 -0.77676318821E+02  0.14884904865E+02  0.98608107715E+02  0.00000000000E+00 0.  1.
</event>
<event>
 7    1  0.6681656E-006  0.4840319E+02  0.7818608E-02  0.1532197E+00
          2   -1    0    0  502    0  0.00000000000E+00  0.00000000000E+00  0.93097385410E+03  0.93097385410E+03  0.00000000000E+00 0. -1.
          1   -1    0    0  501    0 -0.00000000000E+00 -0.00000000000E+00 -0.15044451400E+04  0.15044451400E+04  0.00000000000E+00 0. -1.
         25    2    1    2    0    0  0.18444306541E+02 -0.32421183724E+02 -0.42638562994E+03  0.44590464144E+03  0.12503966667E+03 0.  0.
          2    1    1    2  501    0 -0.44445531233E+02  0.21612031479E+02 -0.10675129949E+04  0.10686563898E+04  0.00000000000E+00 0. -1.
          1    1    1    2  502    0  0.26001224692E+02  0.10809152245E+02  0.92042733896E+03  0.92085796286E+03  0.00000000000E+00 0. -1.
         22    1    3    3    0    0  0.70907008326E+02 -0.32483669546E+02 -0.25945631142E+03  0.27092539592E+03  0.00000000000E+00 0.  1.
         22    1    3    3    0    0 -0.52462701785E+02  0.62485822414E-01 -0.16692931852E+03  0.17497924553E+03  0.00000000000E+00 0.  1.
</event>
<event>
 7    1  0.6681656E-006  0.7919977E+02  0.7818608E-02  0.1347863E+00
          2   -1    0    0  502    0  0.00000000000E+00  0.00000000000E+00  0.32898911680E+04  0.32898911680E+04  0.00000000000E+00 0. -1.
          1   -1    0    0  501    0 -0.00000000000E+00 -0.00000000000E+00 -0.96765301667E+01  0.96765301667E+01  0.00000000000E+00 0. -1.
         25    2    1    2    0    0  0.62763046112E+01 -0.19041787357E+02  0.25080427354E+04  0.25112356183E+04  0.12499594426E+03 0.  0.
          2    1    1    2  501    0 -0.44517503046E+02  0.76030056922E+02  0.36989567299E+03  0.38024358842E+03  0.00000000000E+00 0. -1.
          1    1    1    2  502    0  0.38241198435E+02 -0.56988269565E+02  0.40227622938E+03  0.40808849144E+03  0.00000000000E+00 0. -1.
         22    1    3    3    0    0  0.34945101141E+02 -0.27081437052E+02  0.32537644305E+03  0.32836624982E+03  0.00000000000E+00 0.  1.
         22    1    3    3    0    0 -0.28668796530E+02  0.80396496947E+01  0.21826662924E+04  0.21828693684E+04  0.00000000000E+00 0.  1.
</event>
<event>
 7    1  0.6681656E-006  0.1050445E+03  0.7818608E-02  0.1411242E+00
          2   -1    0    0  502    0  0.00000000000E+00  0.00000000000E+00  0.26584271975E+04  0.26584271975E+04  0.00000000000E+00 0. -1.
          1   -1    0    0  501    0 -0.00000000000E+00 -0.00000000000E+00 -0.36521606476E+03  0.36521606476E+03  0.00000000000E+00 0. -1.
         25    2    1    2    0    0 -0.93632585119E+02  0.98121783872E+02 -0.81517540209E+02  0.20165372156E+03  0.12499667433E+03 0.  0.
          2    1    1    2  501    0  0.22119938659E+02 -0.21490407832E+02 -0.22150461042E+03  0.22364127918E+03  0.00000000000E+00 0. -1.
          1    1    1    2  502    0  0.71512646460E+02 -0.76631376040E+02  0.25962332834E+04  0.25983482615E+04  0.00000000000E+00 0. -1.
         22    1    3    3    0    0 -0.97677063906E+02  0.37964506838E+02 -0.93194570882E+02  0.14024029604E+03  0.00000000000E+00 0. -1.
         22    1    3    3    0    0  0.40444787873E+01  0.60157277034E+02  0.11677030673E+02  0.61413425520E+02  0.00000000000E+00 0. -1.
</event>
<event>
 7    1  0.6681656E-006  0.1334593E+03  0.7818608E-02  0.1358385E+00
          2   -1    0    0  502    0  0.00000000000E+00  0.00000000000E+00  0.15749874512E+03  0.15749874512E+03  0.00000000000E+00 0. -1.
          1   -1    0    0  501    0 -0.00000000000E+00 -0.00000000000E+00 -0.16012272854E+04  0.16012272854E+04  0.00000000000E+00 0. -1.
         25    2    1    2    0    0 -0.10257275315E+03  0.46537021088E+00 -0.33354682768E+02  0.16510084763E+03  0.12499747504E+03 0.  0.
          2    1    1    2  501    0  0.13337836064E+03  0.20470744284E+02 -0.14950457365E+04  0.15011231104E+04  0.00000000000E+00 0. -1.
          1    1    1    2  502    0 -0.30805607488E+02 -0.20936114495E+02  0.84671878919E+02  0.92502072531E+02  0.00000000000E+00 0. -1.
         22    1    3    3    0    0 -0.70070955176E+02  0.48249307577E+02 -0.57271792636E+02  0.10255726533E+03  0.00000000000E+00 0.  1.
         22    1    3    3    0    0 -0.32501797974E+02 -0.47783937366E+02  0.23917109868E+02  0.62543582294E+02  0.00000000000E+00 0.  1.
</event>
<event>
 7    1  0.6681656E-006  0.8362092E+02  0.7818608E-02  0.1385558E+00
          2   -1    0    0  502    0  0.00000000000E+00  0.00000000000E+00  0.39768543170E+03  0.39768543170E+03  0.00000000000E+00 0. -1.
          1   -1    0    0  501    0 -0.00000000000E+00 -0.00000000000E+00 -0.27961480110E+04  0.27961480110E+04  0.00000000000E+00 0. -1.
         25    2    1    2    0    0 -0.74413010471E+02 -0.62510688568E+02 -0.22768304239E+02  0.15996432682E+03  0.12500123145E+03 0.  0.
          2    1    1    2  501    0 -0.76222971698E+01  0.46886508708E+02 -0.26992714454E+04  0.26996893859E+04  0.00000000000E+00 0. -1.
          1    1    1    2  502    0  0.82035307641E+02  0.15624179860E+02  0.32357717042E+03  0.33417972995E+03  0.00000000000E+00 0. -1.
         22    1    3    3    0    0  0.27460114273E+02 -0.38202045004E+02  0.13801815345E+02  0.49030033909E+02  0.00000000000E+00 0. -1.
         22    1    3    3    0    0 -0.10187312474E+03 -0.24308643565E+02 -0.36570119584E+02  0.11093429291E+03  0.00000000000E+00 0. -1.
</event>
<event>
 7    1  0.6681656E-006  0.1258043E+03  0.7818608E-02  0.1439343E+00
          2   -1    0    0  502    0  0.00000000000E+00  0.00000000000E+00  0.10733399896E+04  0.10733399896E+04  0.00000000000E+00 0. -1.
          1   -1    0    0  501    0 -0.00000000000E+00 -0.00000000000E+00 -0.61553354807E+03  0.61553354807E+03  0.00000000000E+00 0. -1.
         25    2    1    2    0    0 -0.43626128291E+02 -0.12156672285E+03 -0.89665216060E+02  0.20086579229E+03  0.12500203345E+03 0.  0.
          2    1    1    2  501    0  0.60770506784E+02  0.10982430301E+03 -0.46178394592E+03  0.47853823749E+03  0.00000000000E+00 0. -1.
          1    1    1    2  502    0 -0.17144378494E+02  0.11742419844E+02  0.10092556035E+04  0.10094695079E+04  0.00000000000E+00 0. -1.
         22    1    3    3    0    0  0.37203946003E+01 -0.25461509488E+02 -0.90128499573E+02  0.93729804421E+02  0.00000000000E+00 0.  1.
         22    1    3    3    0    0 -0.47346522891E+02 -0.96105213366E+02  0.46328351334E+00  0.10713598787E+03  0.00000000000E+00 0.  1.
</event>
<event>
 7    1  0.6681656E-006  0.7033301E+02  0.7818608E-02  0.1451213E+00
          2   -1    0    0  502    0  0.00000000000E+00  0.00000000000E+00  0.48965606500E+03  0.48965606500E+03  0.00000000000E+00 0. -1.
          1   -1    0    0  501    0 -0.00000000000E+00 -0.00000000000E+00 -0.87113541567E+03  0.87113541567E+03  0.00000000000E+00 0. -1.
         25    2    1    2    0    0  0.12999203201E+02 -0.86599829959E+02 -0.65684115155E+03  0.67433665161E+03  0.12498444501E+03 0.  0.
          2    1    1    2  501    0 -0.27592760966E+02  0.55850337056E+02 -0.20020438997E+03  0.20967216880E+03  0.00000000000E+00 0. -1.
          1    1    1    2  502    0  0.14593557764E+02  0.30749492903E+02  0.47556619085E+03  0.47678266026E+03  0.00000000000E+00 0. -1.
         22    1    3    3    0    0  0.62102708935E+02 -0.81510813074E+02 -0.41042568570E+03  0.42302482503E+03  0.00000000000E+00 0. -1.
         22    1    3    3    0    0 -0.49103505733E+02 -0.50890168850E+01 -0.24641546585E+03  0.25131182658E+03  0.00000000000E+00 0. -1.
</event>
<event>
 7    1  0.6681656E-006  0.1479370E+03  0.7818608E-02  0.1314959E+00
          2   -1    0    0  502    0  0.00000000000E+00  0.00000000000E+00  0.12832181852E+04  0.12832181852E+04  0.00000000000E+00 0. -1.
          1   -1    0    0  501    0 -0.00000000000E+00 -0.00000000000E+00 -0.13260685229E+04  0.13260685229E+04  0.00000000000E+00 0. -1.
         25    2    1    2    0    0 -0.49199653266E+02  0.16655173414E+03  0.52340699470E+02  0.22028257110E+03  0.12499910512E+03 0.  0.
          2    1    1    2  501    0  0.76548992743E+02 -0.12583768804E+03 -0.12372027799E+04  0.12459396417E+04  0.00000000000E+00 0. -1.
          1    1    1    2  502    0 -0.27349339477E+02 -0.40714046101E+02  0.11420117427E+04  0.11430644953E+04  0.00000000000E+00 0. -1.
         22    1    3    3    0    0  0.11156946731E+02  0.12393904429E+03 -0.82759749800E+01  0.12471509901E+03  0.00000000000E+00 0.  1.
         22    1    3    3    0    0 -0.60356599997E+02  0.42612689855E+02  0.60616674450E+02  0.95567472088E+02  0.00000000000E+00 0.  1.
</event>
<event>
 7    1  0.6681656E-006  0.5178285E+02  0.7818608E-02  0.1463061E+00
          2   -1    0    0  502    0  0.00000000000E+00  0.00000000000E+00  0.51857293451E+03  0.51857293451E+03  0.00000000000E+00 0. -1.
          1   -1    0    0  501    0 -0.00000000000E+00 -0.00000000000E+00 -0.49848658232E+03  0.49848658232E+03  0.00000000000E+00 0. -1.
         25    2    1    2    0    0 -0.14766565492E+01 -0.86636393699E+02  0.28403733803E+03  0.32219942590E+03  0.12500886139E+03 0.  0.
          2    1    1    2  501    0 -0.17354535901E+02  0.48644490428E+02 -0.47590848816E+03  0.47870278407E+03  0.00000000000E+00 0. -1.
          1    1    1    2  502    0  0.18831192450E+02  0.37991903270E+02  0.21195750232E+03  0.21615730687E+03  0.00000000000E+00 0. -1.
         22    1    3    3    0    0 -0.36721607419E+02 -0.97270762963E+02  0.25477044788E+03  0.27516914596E+03  0.00000000000E+00 0. -1.
         22    1    3    3    0    0  0.35244950870E+02  0.10634369264E+02  0.29266890155E+02  0.47030279935E+02  0.00000000000E+00 0. -1.
</event>
<event>
 7    1  0.6681656E-006  0.1260901E+03  0.7818608E-02  0.1306147E+00
          2   -1    0    0  502    0  0.00000000000E+00  0.00000000000E+00  0.24087269217E+04  0.24087269217E+04  0.00000000000E+00 0. -1.
          1   -1    0    0  501    0 -0.00000000000E+00 -0.00000000000E+00 -0.21338937212E+04  0.21338937212E+04  0.00000000000E+00 0. -1.
         25    2    1    2    0    0  0.62954560350E+02 -0.17263512056E+03  0.47296150968E+03  0.52257475284E+03  0.12500248458E+03 0.  0.
          2    1    1    2  501    0 -0.17761857133E+02  0.59746572775E+02 -0.21066912905E+04  0.21076131832E+04  0.00000000000E+00 0. -1.
          1    1    1    2  502    0 -0.45192703217E+02  0.11288854779E+03  0.19085629813E+04  0.19124327069E+04  0.00000000000E+00 0. -1.
         22    1    3    3    0    0  0.58582453453E+02 -0.16537738139E+03  0.48031544010E+03  0.51135555549E+03  0.00000000000E+00 0.  1.
         22    1    3    3    0    0  0.43721068964E+01 -0.72577391690E+01 -0.73539304251E+01  0.11219197353E+02  0.00000000000E+00 0.  1.
</event>
<event>
 7    1  0.6681656E-006  0.1384428E+03  0.7818608E-02  0.1242007E+00
          2   -1    0    0  502    0  0.00000000000E+00  0.00000000000E+00  0.63925694769E+03  0.63925694769E+03  0.00000000000E+00 0. -1.
          1   -1    0    0  501    0 -0.00000000000E+00 -0.00000000000E+00 -0.12202560687E+04  0.12202560687E+04  0.00000000000E+00 0. -1.
         25    2    1    2    0    0 -0.74743393022E+01  0.22982103637E+03 -0.49478204040E+02  0.26635767158E+03  0.12499896811E+03 0.  0.
          2    1    1    2  501    0  0.35624708214E+02 -0.98949554289E+02 -0.10512327621E+04  0.10564802195E+04  0.00000000000E+00 0. -1.
          1    1    1    2  502    0 -0.28150368912E+02 -0.13087148208E+03  0.51971184515E+03  0.53667512527E+03  0.00000000000E+00 0. -1.
         22    1    3    3    0    0  0.58104942647E+02  0.89387434450E+02 -0.24096348487E+02  0.10930202106E+03  0.00000000000E+00 0.  1.
         22    1    3    3    0    0 -0.65579281949E+02  0.14043360192E+03 -0.25381855553E+02  0.15705565052E+03  0.00000000000E+00 0.  1.
</event>
<event>
 7    1  0.6681656E-006  0.1110357E+03  0.7818608E-02  0.1325036E+00
          2   -1    0    0  502    0  0.00000000000E+00  0.00000000000E+00  0.81027210472E+03  0.81027210472E+03  0.00000000000E+00 0. -1.
          1   -1    0    0  501    0 -0.00000000000E+00 -0.00000000000E+00 -0.83975161604E+03  0.83975161604E+03  0.00000000000E+00 0. -1.
         25    2    1    2    0    0 -0.24985187755E+02  0.70814342736E+02 -0.19896752280E+03  0.24668261542E+03  0.12500122749E+03 0.  0.
          2    1    1    2  501    0 -0.72216272221E+01 -0.12110674516E+03 -0.60980833392E+03  0.62175976048E+03  0.00000000000E+00 0. -1.
          1    1    1    2  502    0  0.32206814977E+02  0.50292402428E+02  0.77929634541E+03  0.78158134487E+03  0.00000000000E+00 0. -1.
         22    1    3    3    0    0 -0.30862566354E+02 -0.15219985529E+02 -0.54759721837E+01  0.34844400308E+02  0.00000000000E+00 0.  1.
         22    1    3    3    0    0  0.58773785997E+01  0.86034328265E+02 -0.19349155062E+03  0.21183821511E+03  0.00000000000E+00 0.  1.
</event>
<event>
 7    1  0.6681656E-006  0.3342501E+02  0.7818608E-02  0.1569407E+00
          2   -1    0    0  502    0  0.00000000000E+00  0.00000000000E+00  0.18273932885E+04  0.18273932885E+04  0.00000000000E+00 0. -1.
          1   -1    0    0  501    0 -0.00000000000E+00 -0.00000000000E+00 -0.70415367621E+01  0.70415367621E+01  0.00000000000E+00 0. -1.
         25    2    1    2    0    0  0.15626136554E+02  0.39547241953E+02  0.95223258263E+03  0.96134294117E+03  0.12500079449E+03 0.  0.
          2    1    1    2  501    0 -0.30720618171E+02 -0.93613200449E+01  0.12034394180E+03  0.12455542951E+03  0.00000000000E+00 0. -1.
          1    1    1    2  502    0  0.15094481617E+02 -0.30185921908E+02  0.74777522735E+03  0.74853645462E+03  0.00000000000E+00 0. -1.
         22    1    3    3    0    0 -0.38806151474E+02  0.22755194925E+02  0.13857952839E+03  0.14569832524E+03  0.00000000000E+00 0. -1.
         22    1    3    3    0    0  0.54432288028E+02  0.16792047028E+02  0.81365305423E+03  0.81564461592E+03  0.00000000000E+00 0. -1.
</event>
<event>
 7    1  0.6681656E-006  0.1288174E+03  0.7818608E-02  0.1369111E+00
          2   -1    0    0  502    0  0.00000000000E+00  0.00000000000E+00  0.74937503919E+03  0.74937503919E+03  0.00000000000E+00 0. -1.
          1   -1    0    0  501    0 -0.00000000000E+00 -0.00000000000E+00 -0.18042779498E+04  0.18042779498E+04  0.00000000000E+00 0. -1.
         25    2    1    2    0    0 -0.15844710244E+02  0.12280897311E+03 -0.34463302183E+03  0.38694884252E+03  0.12499755307E+03 0.  0.
          2    1    1    2  501    0  0.50985663733E+02 -0.11967301041E+03 -0.14351162967E+04  0.14409996365E+04  0.00000000000E+00 0. -1.
          1    1    1    2  502    0 -0.35140953489E+02 -0.31359627031E+01  0.72484640786E+03  0.72570451002E+03  0.00000000000E+00 0. -1.
         22    1    3    3    0    0  0.37472662593E+02  0.79328148012E+02 -0.10098029546E+03  0.13376911295E+03  0.00000000000E+00 0.  1.
         22    1    3    3    0    0 -0.53317372838E+02  0.43480825102E+02 -0.24365272637E+03  0.25317972957E+03  0.00000000000E+00 0.  1.
</event>
<event>
 7    1  0.6681656E-006  0.5387394E+02  0.7818608E-02  0.1438983E+00
          2   -1    0    0  502    0  0.00000000000E+00  0.00000000000E+00  0.33149915145E+03  0.33149915145E+03  0.00000000000E+00 0. -1.
          1   -1    0    0  501    0 -0.00000000000E+00 -0.00000000000E+00 -0.10107364525E+04  0.10107364525E+04  0.00000000000E+00 0. -1.
         25    2    1    2    0    0 -0.80178433125E+02  0.58706635002E+02 -0.75701329086E+03  0.77367243991E+03  0.12499948645E+03 0.  0.
          2    1    1    2  501    0  0.45266877131E+02 -0.17840814664E+02 -0.24070770192E+03  0.24557602204E+03  0.00000000000E+00 0. -1.
          1    1    1    2  502    0  0.34911555994E+02 -0.40865820338E+02  0.31848369172E+03  0.32298714201E+03  0.00000000000E+00 0. -1.
         22    1    3    3    0    0 -0.25995542160E+02  0.76069391782E+02 -0.23094218631E+03  0.24453346191E+03  0.00000000000E+00 0.  1.
         22    1    3    3    0    0 -0.54182890965E+02 -0.17362756780E+02 -0.52607110455E+03  0.52913897800E+03  0.00000000000E+00 0.  1.
</event>
<event>
 7    1  0.6681656E-006  0.2032738E+03  0.7818608E-02  0.1294320E+00
          2   -1    0    0  502    0  0.00000000000E+00  0.00000000000E+00  0.12713857031E+04  0.12713857031E+04  0.00000000000E+00 0. -1.
          1   -1    0    0  501    0 -0.00000000000E+00 -0.00000000000E+00 -0.29544396487E+03  0.29544396487E+03  0.00000000000E+00 0. -1.
         25    2    1    2    0    0 -0.19035692444E+03 -0.82995053764E+02 -0.10000989480E+03  0.26220461230E+03  0.12500136808E+03 0.  0.
          2    1    1    2  501    0  0.16343225270E+03  0.11667045820E+03 -0.25423202549E+02  0.20240661123E+03  0.00000000000E+00 0. -1.
          1    1    1    2  502    0  0.26924671734E+02 -0.33675404434E+02  0.11013748356E+04  0.11022184445E+04  0.00000000000E+00 0. -1.
         22    1    3    3    0    0 -0.17986964595E+03 -0.82773610206E+02 -0.40913213620E+02  0.20218420099E+03  0.00000000000E+00 0. -1.
         22    1    3    3    0    0 -0.10487278489E+02 -0.22144355824E+00 -0.59096681183E+02  0.60020411313E+02  0.00000000000E+00 0. -1.
</event>
<event>
 7    1  0.6681656E-006  0.9035221E+02  0.7818608E-02  0.1357275E+00
          2   -1    0    0  502    0  0.00000000000E+00  0.00000000000E+00  0.31165406464E+04  0.31165406464E+04  0.00000000000E+00 0. -1.
          1   -1    0    0  501    0 -0.00000000000E+00 -0.00000000000E+00 -0.35401494135E+02  0.35401494135E+02  0.00000000000E+00 0. -1.
         25    2    1    2    0    0 -0.12105081179E+03 -0.74119641715E+02  0.15225088845E+04  0.15342117068E+04  0.12500095102E+03 0.  0.
          2    1    1    2  501    0  0.68944488602E+02  0.54910370785E+02  0.37826700487E+02  0.95913245165E+02  0.00000000000E+00 0. -1.
          1    1    1    2  502    0  0.52106323187E+02  0.19209270930E+02  0.15208035673E+04  0.15218171885E+04  0.00000000000E+00 0. -1.
         22    1    3    3    0    0 -0.13242337956E+03 -0.88032023100E+02  0.11122363226E+04  0.11235458272E+04  0.00000000000E+00 0. -1.
         22    1    3    3    0    0  0.11372567770E+02  0.13912381386E+02  0.41027256193E+03  0.41066587967E+03  0.00000000000E+00 0. -1.
</event>
<event>
 7    1  0.6681656E-006  0.1129430E+03  0.7818608E-02  0.1322200E+00
          2   -1    0    0  502    0  0.00000000000E+00  0.00000000000E+00  0.30509264786E+04  0.30509264786E+04  0.00000000000E+00 0. -1.
          1   -1    0    0  501    0 -0.00000000000E+00 -0.00000000000E+00 -0.11312975148E+03  0.11312975148E+03  0.00000000000E+00 0. -1.
         25    2    1    2    0    0  0.28434818070E+02 -0.69275549326E+02  0.43074329928E+03  0.45472241268E+03  0.12500016842E+03 0.  0.
          2    1    1    2  501    0 -0.88278974230E+02  0.75905870362E+02 -0.67165969743E+02  0.13441036395E+03  0.00000000000E+00 0. -1.
          1    1    1    2  502    0  0.59844156160E+02 -0.66303210363E+01  0.25742193976E+04  0.25749234534E+04  0.00000000000E+00 0. -1.
         22    1    3    3    0    0 -0.16482465989E+02  0.29029033821E+02  0.61371418419E+02  0.69862776129E+02  0.00000000000E+00 0. -1.
         22    1    3    3    0    0  0.44917284058E+02 -0.98304583147E+02  0.36937188086E+03  0.38485963655E+03  0.00000000000E+00 0. -1.
</event>
<event>
 7    1  0.6681656E-006  0.1038017E+03  0.7818608E-02  0.1350615E+00
          2   -1    0    0  502    0  0.00000000000E+00  0.00000000000E+00  0.21205177353E+04  0.21205177353E+04  0.00000000000E+00 0. -1.
          1   -1    0    0  501    0 -0.00000000000E+00 -0.00000000000E+00 -0.13923376912E+03  0.13923376912E+03  0.00000000000E+00 0. -1.
         25    2    1    2    0    0  0.56353165678E+02  0.43869429031E+02  0.81613850191E+02  0.16547041034E+03  0.12497771829E+03 0.  0.
          2    1    1    2  501    0 -0.62356871140E+02 -0.94663369997E+02 -0.63845702661E+02  0.13009921885E+03  0.00000000000E+00 0. -1.
          1    1    1    2  502    0  0.60037054617E+01  0.50793940966E+02  0.19635158187E+04  0.19641818753E+04  0.00000000000E+00 0. -1.
         22    1    3    3    0    0  0.61906566892E+02 -0.61331978841E+01  0.94865993576E+02  0.11344424127E+03  0.00000000000E+00 0.  1.
         22    1    3    3    0    0 -0.55534012135E+01  0.50002626915E+02 -0.13252143385E+02  0.52026169067E+02  0.00000000000E+00 0.  1.
</event>
<event>
 7    1  0.6681656E-006  0.2350670E+03  0.7818608E-02  0.1230373E+00
          2   -1    0    0  502    0  0.00000000000E+00  0.00000000000E+00  0.73383495503E+03  0.73383495503E+03  0.00000000000E+00 0. -1.
          1   -1    0    0  501    0 -0.00000000000E+00 -0.00000000000E+00 -0.81858215918E+03  0.81858215918E+03  0.00000000000E+00 0. -1.
         25    2    1    2    0    0 -0.21270994643E+03  0.49619667898E+02  0.32085808214E+03  0.40777558730E+03  0.12499355172E+03 0.  0.
          2    1    1    2  501    0 -0.14325730641E+02  0.68270982805E+02 -0.72898180273E+03  0.73231183410E+03  0.00000000000E+00 0. -1.
          1    1    1    2  502    0  0.22703567708E+03 -0.11789065070E+03  0.32337651645E+03  0.41232969282E+03  0.00000000000E+00 0. -1.
         22    1    3    3    0    0 -0.93950446886E+01  0.15976580462E+02  0.11502718256E+03  0.11651081802E+03  0.00000000000E+00 0. -1.
         22    1    3    3    0    0 -0.20331490175E+03  0.33643087436E+02  0.20583089957E+03  0.29126476928E+03  0.00000000000E+00 0. -1.
</event>
<event>
 7    1  0.6681656E-006  0.3730331E+03  0.7818608E-02  0.1111608E+00
          2   -1    0    0  502    0  0.00000000000E+00  0.00000000000E+00  0.27712576197E+03  0.27712576197E+03  0.00000000000E+00 0. -1.
          1   -1    0    0  501    0 -0.00000000000E+00 -0.00000000000E+00 -0.19497083201E+04  0.19497083201E+04  0.00000000000E+00 0. -1.
         25    2    1    2    0    0  0.13296324838E+03 -0.24423029171E+03 -0.24210530938E+03  0.38931876963E+03  0.12500585085E+03 0.  0.
          2    1    1    2  501    0 -0.30006087756E+03  0.28143209590E+03 -0.15660261981E+04  0.16191598463E+04  0.00000000000E+00 0. -1.
          1    1    1    2  502    0  0.16709762918E+03 -0.37201804187E+02  0.13554894935E+03  0.21835546611E+03  0.00000000000E+00 0. -1.
         22    1    3    3    0    0  0.75234333976E+02 -0.95718977021E+02 -0.32469083197E+02  0.12600225766E+03  0.00000000000E+00 0.  1.
         22    1    3    3    0    0  0.57728914406E+02 -0.14851131469E+03 -0.20963622618E+03  0.26331651197E+03  0.00000000000E+00 0.  1.
</event>
<event>
 7    1  0.6681656E-006  0.6280487E+02  0.7818608E-02  0.1400538E+00
          2   -1    0    0  502    0  0.00000000000E+00  0.00000000000E+00  0.37451399083E+03  0.37451399083E+03  0.00000000000E+00 0. -1.
          1   -1    0    0  501    0 -0.00000000000E+00 -0.00000000000E+00 -0.26846992188E+03  0.26846992188E+03  0.00000000000E+00 0. -1.
         25    2    1    2    0    0  0.47446656219E+01 -0.72332521134E+02  0.16731314140E+02  0.14546286488E+03  0.12500001088E+03 0.  0.
          2    1    1    2  501    0  0.45258620222E+02  0.33155297573E+02 -0.19669709460E+03  0.20454183799E+03  0.00000000000E+00 0. -1.
          1    1    1    2  502    0 -0.50003285844E+02  0.39177223561E+02  0.28600984941E+03  0.29297920984E+03  0.00000000000E+00 0. -1.
         22    1    3    3    0    0  0.41603479299E+02  0.38136040497E+01  0.39878501362E+02  0.57755414781E+02  0.00000000000E+00 0. -1.
         22    1    3    3    0    0 -0.36858813677E+02 -0.76146125184E+02 -0.23147187221E+02  0.87707450097E+02  0.00000000000E+00 0. -1.
</event>
<event>
 7    1  0.6681656E-006  0.9428579E+02  0.7818608E-02  0.1341573E+00
          2   -1    0    0  502    0  0.00000000000E+00  0.00000000000E+00  0.58258759213E+03  0.58258759213E+03  0.00000000000E+00 0. -1.
          1   -1    0    0  501    0 -0.00000000000E+00 -0.00000000000E+00 -0.96837978689E+03  0.96837978689E+03  0.00000000000E+00 0. -1.
         25    2    1    2    0    0 -0.16826353664E+02 -0.41567596669E+02  0.89343594876E+02  0.16005582776E+03  0.12499839512E+03 0.  0.
          2    1    1    2  501    0 -0.13302684325E+02  0.94438988821E+02 -0.92854849256E+03  0.93343344008E+03  0.00000000000E+00 0. -1.
          1    1    1    2  502    0  0.30129037989E+02 -0.52871392152E+02  0.45341270293E+03  0.45747811119E+03  0.00000000000E+00 0. -1.
         22    1    3    3    0    0  0.43128423102E+02 -0.34937671640E+02  0.82381899390E+02  0.99335185740E+02  0.00000000000E+00 0.  1.
         22    1    3    3    0    0 -0.59954776766E+02 -0.66299250284E+01  0.69616954858E+01  0.60720642017E+02  0.00000000000E+00 0.  1.
</event>
<event>
 7    1  0.6681656E-006  0.7441604E+02  0.7818608E-02  0.1427721E+00
          2   -1    0    0  502    0  0.00000000000E+00  0.00000000000E+00  0.91766459348E+03  0.91766459348E+03  0.00000000000E+00 0. -1.
          1   -1    0    0  501    0 -0.00000000000E+00 -0.00000000000E+00 -0.90413442464E+03  0.90413442464E+03  0.00000000000E+00 0. -1.
         25    2    1    2    0    0 -0.69598998497E+02 -0.38119419286E+02 -0.47174845330E+02  0.15538122083E+03  0.12498298699E+03 0.  0.
          2    1    1    2  501    0 -0.48903420361E+01  0.38035110325E+02 -0.80079036319E+03  0.80170804589E+03  0.00000000000E+00 0. -1.
          1    1    1    2  502    0  0.74489340533E+02  0.84308961293E-01  0.86149537736E+03  0.86470975140E+03  0.00000000000E+00 0. -1.
         22    1    3    3    0    0  0.15511141053E+00 -0.51311187455E+02  0.22394307515E+02  0.55985417982E+02  0.00000000000E+00 0. -1.
         22    1    3    3    0    0 -0.69754109907E+02  0.13191768169E+02 -0.69569152845E+02  0.99395802849E+02  0.00000000000E+00 0. -1.
</event>
<event>
 7    1  0.6681656E-006  0.9495266E+02  0.7818608E-02  0.1378729E+00
          2   -1    0    0  502    0  0.00000000000E+00  0.00000000000E+00  0.54566701191E+03  0.54566701191E+03  0.00000000000E+00 0. -1.
          1   -1    0    0  501    0 -0.00000000000E+00 -0.00000000000E+00 -0.46796381407E+03  0.46796381407E+03  0.00000000000E+00 0. -1.
         25    2    1    2    0    0 -0.11684113584E+03  0.33042004479E+02 -0.13412475301E+03  0.21991272305E+03  0.12501412443E+03 0.  0.
          2    1    1    2  501    0  0.76156163953E+02 -0.50369660056E+02 -0.28277063071E+03  0.29714658597E+03  0.00000000000E+00 0. -1.
          1    1    1    2  502    0  0.40684971883E+02  0.17327655577E+02  0.49459858156E+03  0.49657151697E+03  0.00000000000E+00 0. -1.
         22    1    3    3    0    0 -0.22372035669E+02  0.70209014821E+01  0.24214238843E+02  0.33706533496E+02  0.00000000000E+00 0. -1.
         22    1    3    3    0    0 -0.94469100167E+02  0.26021102997E+02 -0.15833899185E+03  0.18620618955E+03  0.00000000000E+00 0. -1.
</event>
<event>
 7    1  0.6681656E-006  0.6836871E+02  0.7818608E-02  0.1463574E+00
          2   -1    0    0  502    0  0.00000000000E+00  0.00000000000E+00  0.37469619752E+03  0.37469619752E+03  0.00000000000E+00 0. -1.
          1   -1    0    0  501    0 -0.00000000000E+00 -0.00000000000E+00 -0.66347406428E+03  0.66347406428E+03  0.00000000000E+00 0. -1.
         25    2    1    2    0    0  0.54734621290E+02 -0.81849314865E+02 -0.26354715347E+02  0.16129013825E+03  0.12499899426E+03 0.  0.
          2    1    1    2  501    0 -0.12833895390E+02  0.29310686835E+02 -0.56551920601E+03  0.56642369089E+03  0.00000000000E+00 0. -1.
          1    1    1    2  502    0 -0.41900725900E+02  0.52538628029E+02  0.30309605459E+03  0.31045643265E+03  0.00000000000E+00 0. -1.
         22    1    3    3    0    0  0.85095270705E+02 -0.64161019130E+02 -0.51221803912E+02  0.11824345508E+03  0.00000000000E+00 0. -1.
         22    1    3    3    0    0 -0.30360649415E+02 -0.17688295735E+02  0.24867088565E+02  0.43046683178E+02  0.00000000000E+00 0. -1.
</event>
<event>
 7    1  0.6681656E-006  0.5536743E+02  0.7818608E-02  0.1425807E+00
          2   -1    0    0  502    0  0.00000000000E+00  0.00000000000E+00  0.91398390892E+03  0.91398390892E+03  0.00000000000E+00 0. -1.
          1   -1    0    0  501    0 -0.00000000000E+00 -0.00000000000E+00 -0.29080590494E+03  0.29080590494E+03  0.00000000000E+00 0. -1.
         25    2    1    2    0    0 -0.82141053762E+01 -0.16285808999E+02  0.15049194707E+03  0.19647933587E+03  0.12499441663E+03 0.  0.
          2    1    1    2  501    0  0.43056681520E+02 -0.29685308386E+02 -0.26412098350E+03  0.26924893553E+03  0.00000000000E+00 0. -1.
          1    1    1    2  502    0 -0.34842576144E+02  0.45971117385E+02  0.73680704041E+03  0.73906154246E+03  0.00000000000E+00 0. -1.
         22    1    3    3    0    0 -0.59728296233E+01  0.50224900461E+02  0.10291779464E+03  0.11467470416E+03  0.00000000000E+00 0.  1.
         22    1    3    3    0    0 -0.22412757530E+01 -0.66510709460E+02  0.47574152433E+02  0.81804631712E+02  0.00000000000E+00 0.  1.
</event>
<event>
 7    1  0.6681656E-006  0.4517898E+02  0.7818608E-02  0.1486998E+00
          2   -1    0    0  502    0  0.00000000000E+00  0.00000000000E+00  0.29850130697E+03  0.29850130697E+03  0.00000000000E+00 0. -1.
          1   -1    0    0  501    0 -0.00000000000E+00 -0.00000000000E+00 -0.54368311383E+03  0.54368311383E+03  0.00000000000E+00 0. -1.
         25    2    1    2    0    0 -0.27690353418E+02 -0.36997995191E+02 -0.12420082680E+03  0.18216468919E+03  0.12499008477E+03 0.  0.
          2    1    1    2  501    0 -0.17705113197E+02  0.36971186810E+02 -0.38750008018E+03  0.38966222786E+03  0.00000000000E+00 0. -1.
          1    1    1    2  502    0  0.45395466615E+02  0.26808380549E-01  0.26651910011E+03  0.27035750375E+03  0.00000000000E+00 0. -1.
         22    1    3    3    0    0  0.78197286690E+01 -0.97890894301E+01 -0.13545646368E+03  0.13603465728E+03  0.00000000000E+00 0. -1.
         22    1    3    3    0    0 -0.35510082087E+02 -0.27208905761E+02  0.11255636880E+02  0.46130031911E+02  0.00000000000E+00 0. -1.
</event>
<event>
 7    1  0.6681656E-006  0.4173366E+02  0.7818608E-02  0.1522986E+00
          2   -1    0    0  502    0  0.00000000000E+00  0.00000000000E+00  0.30331087815E+04  0.30331087815E+04  0.00000000000E+00 0. -1.
          1   -1    0    0  501    0 -0.00000000000E+00 -0.00000000000E+00 -0.50826141866E+03  0.50826141866E+03  0.00000000000E+00 0. -1.
         25    2    1    2    0    0  0.73765755417E+01 -0.80899536328E+01  0.14469365423E+04  0.14523665247E+04  0.12499321278E+03 0.  0.
          2    1    1    2  501    0  0.17118609294E+02 -0.30196664957E+02 -0.50462392070E+03  0.50581635669E+03  0.00000000000E+00 0. -1.
          1    1    1    2  502    0 -0.24495184836E+02  0.38286618590E+02  0.15825347412E+04  0.15831873188E+04  0.00000000000E+00 0. -1.
         22    1    3    3    0    0  0.94455885578E+01  0.35073834994E+02  0.13749274322E+03  0.14220987126E+03  0.00000000000E+00 0.  1.
         22    1    3    3    0    0 -0.20690130161E+01 -0.43163788627E+02  0.13094437991E+04  0.13101566534E+04  0.00000000000E+00 0.  1.
</event>
<event>
 7    1  0.6681656E-006  0.9502121E+02  0.7818608E-02  0.1387616E+00
          2   -1    0    0  502    0  0.00000000000E+00  0.00000000000E+00  0.36145503330E+03  0.36145503330E+03  0.00000000000E+00 0. -1.
          1   -1    0    0  501    0 -0.00000000000E+00 -0.00000000000E+00 -0.37452586075E+03  0.37452586075E+03  0.00000000000E+00 0. -1.
         25    2    1    2    0    0 -0.10175226175E+03  0.54963286079E+02 -0.24934715106E+03  0.30194981167E+03  0.12500080574E+03 0.  0.
          2    1    1    2  501    0  0.60651920668E+02 -0.56022101617E+02 -0.80075777183E+02  0.11501852652E+03  0.00000000000E+00 0. -1.
          1    1    1    2  502    0  0.41100341083E+02  0.10588155386E+01  0.31635210079E+03  0.31901255587E+03  0.00000000000E+00 0. -1.
         22    1    3    3    0    0 -0.10450683368E+03  0.64449839257E+02 -0.25993174589E+03  0.28747169006E+03  0.00000000000E+00 0.  1.
         22    1    3    3    0    0  0.27545719311E+01 -0.94865531778E+01  0.10584594823E+02  0.14478121608E+02  0.00000000000E+00 0.  1.
</event>
<event>
 7    1  0.6681656E-006  0.1018837E+03  0.7818608E-02  0.1302125E+00
          2   -1    0    0  502    0  0.00000000000E+00  0.00000000000E+00  0.12188655041E+04  0.12188655041E+04  0.00000000000E+00 0. -1.
          1   -1    0    0  501    0 -0.00000000000E+00 -0.00000000000E+00 -0.37185037542E+03  0.37185037542E+03  0.00000000000E+00 0. -1.
         25    2    1    2    0    0 -0.11824775907E+03 -0.80314173426E+02  0.14194636696E+03  0.23708362749E+03  0.12500790516E+03 0.  0.
          2    1    1    2  501    0  0.10105759231E+03  0.21472210396E+01 -0.31479886199E+03  0.33062905352E+03  0.00000000000E+00 0. -1.
          1    1    1    2  502    0  0.17190166757E+02  0.78166952386E+02  0.10198676237E+04  0.10230031985E+04  0.00000000000E+00 0. -1.
         22    1    3    3    0    0 -0.63582023531E+02 -0.90270704562E+02  0.33757720340E+02  0.11546019877E+03  0.00000000000E+00 0. -1.
         22    1    3    3    0    0 -0.54665735535E+02  0.99565311369E+01  0.10818864662E+03  0.12162342871E+03  0.00000000000E+00 0. -1.
</event>
<event>
 7    1  0.6681656E-006  0.5073787E+02  0.7818608E-02  0.1462570E+00
          2   -1    0    0  502    0  0.00000000000E+00  0.00000000000E+00  0.75680281645E+02  0.75680281645E+02  0.00000000000E+00 0. -1.
          1   -1    0    0  501    0 -0.00000000000E+00 -0.00000000000E+00 -0.10479362796E+04  0.10479362796E+04  0.00000000000E+00 0. -1.
         25    2    1    2    0    0  0.54339185882E+02 -0.37793899033E+02 -0.14628434148E+03  0.20348847319E+03  0.12500929659E+03 0.  0.
          2    1    1    2  501    0 -0.12433467453E+02  0.49199187962E+02 -0.86212633126E+03  0.86361852821E+03  0.00000000000E+00 0. -1.
          1    1    1    2  502    0 -0.41905718429E+02 -0.11405288930E+02  0.36154674745E+02  0.56509559886E+02  0.00000000000E+00 0. -1.
         22    1    3    3    0    0  0.30061455145E+02  0.81708838931E+01 -0.14823154643E+03  0.15146962001E+03  0.00000000000E+00 0. -1.
         22    1    3    3    0    0  0.24277730737E+02 -0.45964782926E+02  0.19472049529E+01  0.52018853181E+02  0.00000000000E+00 0. -1.
</event>
<event>
 7    1  0.6681656E-006  0.5878937E+02  0.7818608E-02  0.1469860E+00
          2   -1    0    0  502    0  0.00000000000E+00  0.00000000000E+00  0.10097325687E+04  0.10097325687E+04  0.00000000000E+00 0. -1.
          1   -1    0    0  501    0 -0.00000000000E+00 -0.00000000000E+00 -0.26193210929E+03  0.26193210929E+03  0.00000000000E+00 0. -1.
         25    2    1    2    0    0 -0.52557842819E+02  0.29860670840E+02  0.67099936874E+03  0.68521567768E+03  0.12500554219E+03 0.  0.
          2    1    1    2  501    0  0.58605629113E+02  0.51867768870E+01 -0.25045160710E+03  0.25726937229E+03  0.00000000000E+00 0. -1.
          1    1    1    2  502    0 -0.60477862939E+01 -0.35047447727E+02  0.32725269777E+03  0.32917962803E+03  0.00000000000E+00 0. -1.
         22    1    3    3    0    0 -0.37302193331E+00 -0.17137630500E+02  0.87366773837E+01  0.19239725991E+02  0.00000000000E+00 0. -1.
         22    1    3    3    0    0 -0.52184820886E+02  0.46998301340E+02  0.66226269136E+03  0.66597595168E+03  0.00000000000E+00 0. -1.
</event>
<event>
 7    1  0.6681656E-006  0.2897282E+03  0.7818608E-02  0.1250788E+00
          2   -1    0    0  502    0  0.00000000000E+00  0.00000000000E+00  0.16483187472E+03  0.16483187472E+03  0.00000000000E+00 0. -1.
          1   -1    0    0  501    0 -0.00000000000E+00 -0.00000000000E+00 -0.21379971409E+04  0.21379971409E+04  0.00000000000E+00 0. -1.
         25    2    1    2    0    0  0.17321287530E+03 -0.21364068891E+03 -0.30882867598E+03  0.43202458856E+03  0.12500019953E+03 0.  0.
          2    1    1    2  501    0 -0.21639341704E+03  0.19775934817E+03 -0.17495632296E+04  0.17739521879E+04  0.00000000000E+00 0. -1.
          1    1    1    2  502    0  0.43180541734E+02  0.15881340745E+02  0.85226639378E+02  0.96852239148E+02  0.00000000000E+00 0. -1.
         22    1    3    3    0    0  0.13439742193E+03 -0.22030553314E+03 -0.29054276713E+03  0.38860300370E+03  0.00000000000E+00 0.  1.
         22    1    3    3    0    0  0.38815453370E+02  0.66648442280E+01 -0.18285908848E+02  0.43421584855E+02  0.00000000000E+00 0.  1.
</event>
<event>
 7    1  0.6681656E-006  0.6351872E+02  0.7818608E-02  0.1407781E+00
          2   -1    0    0  502    0  0.00000000000E+00  0.00000000000E+00  0.13004525460E+04  0.13004525460E+04  0.00000000000E+00 0. -1.
          1   -1    0    0  501    0 -0.00000000000E+00 -0.00000000000E+00 -0.58900317617E+02  0.58900317617E+02  0.00000000000E+00 0. -1.
         25    2    1    2    0    0  0.78395778766E+02 -0.19331337407E+02  0.28405741066E+03  0.32067603465E+03  0.12499963164E+03 0.  0.
          2    1    1    2  501    0 -0.21540962785E+02  0.47767235350E+02 -0.22209654421E+02  0.56912130519E+02  0.00000000000E+00 0. -1.
          1    1    1    2  502    0 -0.56854815981E+02 -0.28435897943E+02  0.97970447218E+03  0.98176469849E+03  0.00000000000E+00 0. -1.
         22    1    3    3    0    0  0.59628140168E+02  0.29181205262E+02  0.56270283709E+02  0.87025299018E+02  0.00000000000E+00 0.  1.
         22    1    3    3    0    0  0.18767638598E+02 -0.48512542669E+02  0.22778712696E+03  0.23365073563E+03  0.00000000000E+00 0.  1.
</event>
<event>
 7    1  0.6681656E-006  0.1041231E+03  0.7818608E-02  0.1342540E+00
          2   -1    0    0  502    0  0.00000000000E+00  0.00000000000E+00  0.17488621293E+03  0.17488621293E+03  0.00000000000E+00 0. -1.
          1   -1    0    0  501    0 -0.00000000000E+00 -0.00000000000E+00 -0.44502300958E+03  0.44502300958E+03  0.00000000000E+00 0. -1.
         25    2    1    2    0    0 -0.51529344634E+02  0.56194355666E+02 -0.24599426265E+02  0.14846626243E+03  0.12499608130E+03 0.  0.
          2    1    1    2  501    0  0.13426299429E+02  0.52971159542E+02 -0.32601847073E+03  0.33056656292E+03  0.00000000000E+00 0. -1.
          1    1    1    2  502    0  0.38103045205E+02 -0.10916551521E+03  0.80481100348E+02  0.14087639716E+03  0.00000000000E+00 0. -1.
         22    1    3    3    0    0 -0.48190297487E+02 -0.23046400893E+02  0.20515244560E+02  0.57221644728E+02  0.00000000000E+00 0.  1.
         22    1    3    3    0    0 -0.33390471476E+01  0.79240756559E+02 -0.45114670825E+02  0.91244617702E+02  0.00000000000E+00 0.  1.
</event>
<event>
 7    1  0.6681656E-006  0.3989606E+02  0.7818608E-02  0.1531210E+00
          2   -1    0    0  502    0  0.00000000000E+00  0.00000000000E+00  0.18448081117E+03  0.18448081117E+03  0.00000000000E+00 0. -1.
          1   -1    0    0  501    0 -0.00000000000E+00 -0.00000000000E+00 -0.50684447281E+03  0.50684447281E+03  0.00000000000E+00 0. -1.
         25    2    1    2    0    0 -0.16694188956E+02  0.71980282580E+00 -0.43977149409E+02  0.13355905330E+03  0.12499926795E+03 0.  0.
          2    1    1    2  501    0  0.23676878296E+02  0.32949191833E+02 -0.41495577329E+03  0.41693469224E+03  0.00000000000E+00 0. -1.
          1    1    1    2  502    0 -0.69826893400E+01 -0.33668994658E+02  0.13656926106E+03  0.14083153844E+03  0.00000000000E+00 0. -1.
         22    1    3    3    0    0  0.38122043609E+02  0.88071637933E+01 -0.63689367823E+02  0.74747521140E+02  0.00000000000E+00 0.  1.
         22    1    3    3    0    0 -0.54816232565E+02 -0.80873609675E+01  0.19712218413E+02  0.58811532159E+02  0.00000000000E+00 0.  1.
</event>
<event>
 7    1  0.6681656E-006  0.1132751E+03  0.7818608E-02  0.1260214E+00
          2   -1    0    0  502    0  0.00000000000E+00  0.00000000000E+00  0.24971040382E+03  0.24971040382E+03  0.00000000000E+00 0. -1.
          1   -1    0    0  501    0 -0.00000000000E+00 -0.00000000000E+00 -0.36642886987E+03  0.36642886987E+03  0.00000000000E+00 0. -1.
         25    2    1    2    0    0 -0.59209415131E+02  0.40350665520E+02 -0.47004059759E+02  0.15155753803E+03  0.12500549849E+03 0.  0.
          2    1    1    2  501    0 -0.12141053540E+02 -0.12833001528E+03 -0.23274783803E+03  0.26605930563E+03  0.00000000000E+00 0. -1.
          1    1    1    2  502    0  0.71350468670E+02  0.87979349755E+02  0.16303343173E+03  0.19852243003E+03  0.00000000000E+00 0. -1.
         22    1    3    3    0    0 -0.93320305815E+02  0.40210061949E+01 -0.22762171431E+02  0.96140337094E+02  0.00000000000E+00 0. -1.
         22    1    3    3    0    0  0.34110890685E+02  0.36329659325E+02 -0.24241888329E+02  0.55417200937E+02  0.00000000000E+00 0. -1.
</event>
<event>
 7    1  0.6681656E-006  0.7363489E+02  0.7818608E-02  0.1379242E+00
          2   -1    0    0  502    0  0.00000000000E+00  0.00000000000E+00  0.25292990024E+03  0.25292990024E+03  0.00000000000E+00 0. -1.
          1   -1    0    0  501    0 -0.00000000000E+00 -0.00000000000E+00 -0.12266565217E+04  0.12266565217E+04  0.00000000000E+00 0. -1.
         25    2    1    2    0    0 -0.46209153890E+02  0.62455896409E+02 -0.59841401851E+02  0.15887755955E+03  0.12500024261E+03 0.  0.
          2    1    1    2  501    0  0.73016469461E+02 -0.12396813527E+02 -0.11120781171E+04  0.11145415310E+04  0.00000000000E+00 0. -1.
          1    1    1    2  502    0 -0.26807315570E+02 -0.50059082882E+02  0.19819289745E+03  0.20616733143E+03  0.00000000000E+00 0. -1.
         22    1    3    3    0    0 -0.44888918910E+02  0.39642852901E+02 -0.97736715392E+02  0.11462563571E+03  0.00000000000E+00 0. -1.
         22    1    3    3    0    0 -0.13202349802E+01  0.22813043508E+02  0.37895313541E+02  0.44251923833E+02  0.00000000000E+00 0. -1.
</event>
<event>
 7    1  0.6681656E-006  0.5260257E+02  0.7818608E-02  0.1539803E+00
          2   -1    0    0  502    0  0.00000000000E+00  0.00000000000E+00  0.17501402138E+04  0.17501402138E+04  0.00000000000E+00 0. -1.
          1   -1    0    0  501    0 -0.00000000000E+00 -0.00000000000E+00 -0.72696212703E+01  0.72696212703E+01  0.00000000000E+00 0. -1.
         25    2    1    2    0    0  0.40547869021E+02  0.63203370168E+00  0.91236830105E+03  0.92178372090E+03  0.12499912886E+03 0.  0.
          2    1    1    2  501    0 -0.55215016534E+02  0.19182548527E+02  0.38193947094E+03  0.38638637098E+03  0.00000000000E+00 0. -1.
          1    1    1    2  502    0  0.14667147512E+02 -0.19814582229E+02  0.44856282059E+03  0.44923974323E+03  0.00000000000E+00 0. -1.
         22    1    3    3    0    0  0.40289607433E+02 -0.41941276093E+02  0.20375096101E+03  0.21188859624E+03  0.00000000000E+00 0.  1.
         22    1    3    3    0    0  0.25826158802E+00  0.42573309795E+02  0.70861734004E+03  0.70989512466E+03  0.00000000000E+00 0.  1.
</event>
<event>
 7    1  0.6681656E-006  0.3068951E+03  0.7818608E-02  0.1128913E+00
          2   -1    0    0  502    0  0.00000000000E+00  0.00000000000E+00  0.51504161451E+03  0.51504161451E+03  0.00000000000E+00 0. -1.
          1   -1    0    0  501    0 -0.00000000000E+00 -0.00000000000E+00 -0.12061970939E+04  0.12061970939E+04  0.00000000000E+00 0. -1.
         25    2    1    2    0    0  0.35484046025E+03  0.85560376136E+02 -0.25930124285E+03  0.46485894268E+03  0.12499748738E+03 0.  0.
          2    1    1    2  501    0 -0.12484410658E+03  0.11183068857E+03 -0.77825732124E+03  0.79610088049E+03  0.00000000000E+00 0. -1.
          1    1    1    2  502    0 -0.22999635367E+03 -0.19739106471E+03  0.34640308469E+03  0.46027888525E+03  0.00000000000E+00 0. -1.
         22    1    3    3    0    0  0.15303729325E+03  0.91568591602E+01 -0.42766573330E+02  0.15916419506E+03  0.00000000000E+00 0. -1.
         22    1    3    3    0    0  0.20180316700E+03  0.76403516976E+02 -0.21653466952E+03  0.30569474762E+03  0.00000000000E+00 0. -1.
</event>
<event>
 7    1  0.6681656E-006  0.3916057E+02  0.7818608E-02  0.1587983E+00
          2   -1    0    0  502    0  0.00000000000E+00  0.00000000000E+00  0.15593695209E+04  0.15593695209E+04  0.00000000000E+00 0. -1.
          1   -1    0    0  501    0 -0.00000000000E+00 -0.00000000000E+00 -0.13462739970E+03  0.13462739970E+03  0.00000000000E+00 0. -1.
         25    2    1    2    0    0 -0.62571555624E+01 -0.37118849724E+02  0.59653569054E+03  0.61065112053E+03  0.12499199945E+03 0.  0.
          2    1    1    2  501    0  0.28476339796E+02  0.26948100501E+02 -0.12439701522E+03  0.13042898238E+03  0.00000000000E+00 0. -1.
          1    1    1    2  502    0 -0.22219184234E+02  0.10170749224E+02  0.95260344594E+03  0.95291681772E+03  0.00000000000E+00 0. -1.
         22    1    3    3    0    0 -0.19149760191E+02  0.43538839601E+02  0.17972909888E+03  0.18591635984E+03  0.00000000000E+00 0. -1.
         22    1    3    3    0    0  0.12892604628E+02 -0.80657689326E+02  0.41680659165E+03  0.42473476070E+03  0.00000000000E+00 0. -1.
</event>
<event>
 7    1  0.6681656E-006  0.4475636E+02  0.7818608E-02  0.1526294E+00
          2   -1    0    0  502    0  0.00000000000E+00  0.00000000000E+00  0.13745354835E+04  0.13745354835E+04  0.00000000000E+00 0. -1.
          1   -1    0    0  501    0 -0.00000000000E+00 -0.00000000000E+00 -0.31098804405E+03  0.31098804405E+03  0.00000000000E+00 0. -1.
         25    2    1    2    0    0  0.41816842046E+02 -0.61140345439E+02  0.77616290160E+03  0.78964571736E+03  0.12499887605E+03 0.  0.
          2    1    1    2  501    0 -0.17163181686E+02  0.41271575185E+02 -0.30217782064E+03  0.30546579680E+03  0.00000000000E+00 0. -1.
          1    1    1    2  502    0 -0.24653660361E+02  0.19868770254E+02  0.58956235850E+03  0.59041201339E+03  0.00000000000E+00 0. -1.
         22    1    3    3    0    0  0.59466948700E+02  0.10698279924E+02  0.20520542739E+03  0.21391596156E+03  0.00000000000E+00 0. -1.
         22    1    3    3    0    0 -0.17650106654E+02 -0.71838625363E+02  0.57095747421E+03  0.57572975580E+03  0.00000000000E+00 0. -1.
</event>
<event>
 7    1  0.6681656E-006  0.4555006E+02  0.7818608E-02  0.1477038E+00
          2   -1    0    0  502    0  0.00000000000E+00  0.00000000000E+00  0.10387572829E+04  0.10387572829E+04  0.00000000000E+00 0. -1.
          1   -1    0    0  501    0 -0.00000000000E+00 -0.00000000000E+00 -0.80733713189E+02  0.80733713189E+02  0.00000000000E+00 0. -1.
         25    2    1    2    0    0 -0.79051461756E+02  0.29486553726E+02  0.14014306914E+03  0.20587489216E+03  0.12500320372E+03 0.  0.
          2    1    1    2  501    0  0.34196074530E+02 -0.27068712146E+02 -0.37220327982E+02  0.57336197168E+02  0.00000000000E+00 0. -1.
          1    1    1    2  502    0  0.44855387226E+02 -0.24178415806E+01  0.85510082852E+03  0.85627990672E+03  0.00000000000E+00 0. -1.
         22    1    3    3    0    0 -0.83751262519E+02 -0.25867490219E+02  0.11576920268E+03  0.14520988022E+03  0.00000000000E+00 0. -1.
         22    1    3    3    0    0  0.46998007633E+01  0.55354043946E+02  0.24373866461E+02  0.60665011948E+02  0.00000000000E+00 0. -1.
</event>
<event>
 7    1  0.6681656E-006  0.1013246E+03  0.7818608E-02  0.1319379E+00
          2   -1    0    0  502    0  0.00000000000E+00  0.00000000000E+00  0.39378898236E+03  0.39378898236E+03  0.00000000000E+00 0. -1.
          1   -1    0    0  501    0 -0.00000000000E+00 -0.00000000000E+00 -0.41613754642E+03  0.41613754642E+03  0.00000000000E+00 0. -1.
         25    2    1    2    0    0  0.54895805824E+02  0.85392060657E+02  0.15033345856E+03  0.22029650129E+03  0.12500018479E+03 0.  0.
          2    1    1    2  501    0  0.12030362069E+02 -0.10144840317E+03 -0.36832709427E+03  0.38223207151E+03  0.00000000000E+00 0. -1.
          1    1    1    2  502    0 -0.66926167893E+02  0.16056342508E+02  0.19564507165E+03  0.20739795598E+03  0.00000000000E+00 0. -1.
         22    1    3    3    0    0  0.55756506899E+02  0.69885598247E+02  0.17187731366E+03  0.19373847283E+03  0.00000000000E+00 0.  1.
         22    1    3    3    0    0 -0.86070107572E+00  0.15506462410E+02 -0.21543855102E+02  0.26558028456E+02  0.00000000000E+00 0.  1.
</event>
<event>
 7    1  0.6681656E-006  0.1363402E+03  0.7818608E-02  0.1303664E+00
          2   -1    0    0  502    0  0.00000000000E+00  0.00000000000E+00  0.66882486416E+02  0.66882486416E+02  0.00000000000E+00 0. -1.
          1   -1    0    0  501    0 -0.00000000000E+00 -0.00000000000E+00 -0.17005457569E+04  0.17005457569E+04  0.00000000000E+00 0. -1.
         25    2    1    2    0    0 -0.82587306546E+02 -0.14415250145E+03 -0.29483863823E+03  0.36077052168E+03  0.12499975937E+03 0.  0.
          2    1    1    2  501    0 -0.10956636661E+02  0.57942437177E+02 -0.12502682236E+04  0.12516581023E+04  0.00000000000E+00 0. -1.
          1    1    1    2  502    0  0.93543943207E+02  0.86210064274E+02 -0.88556408559E+02  0.15499961932E+03  0.00000000000E+00 0. -1.
         22    1    3    3    0    0 -0.94188446109E+02 -0.14184102816E+03 -0.30218075530E+03  0.34684802079E+03  0.00000000000E+00 0. -1.
         22    1    3    3    0    0  0.11601139563E+02 -0.23114732959E+01  0.73421170733E+01  0.13922500891E+02  0.00000000000E+00 0. -1.
</event>
<event>
 7    1  0.6681656E-006  0.5726395E+02  0.7818608E-02  0.1506554E+00
          2   -1    0    0  502    0  0.00000000000E+00  0.00000000000E+00  0.35742693628E+03  0.35742693628E+03  0.00000000000E+00 0. -1.
          1   -1    0    0  501    0 -0.00000000000E+00 -0.00000000000E+00 -0.39745445227E+03  0.39745445227E+03  0.00000000000E+00 0. -1.
         25    2    1    2    0    0  0.50692108017E+02 -0.84024987838E+01 -0.14812728657E+02  0.13595737993E+03  0.12499880170E+03 0.  0.
          2    1    1    2  501    0 -0.45119818509E+02  0.36105315110E+02 -0.31879338904E+03  0.32398860582E+03  0.00000000000E+00 0. -1.
          1    1    1    2  502    0 -0.55722895087E+01 -0.27702816326E+02  0.29357860171E+03  0.29493540280E+03  0.00000000000E+00 0. -1.
         22    1    3    3    0    0  0.87515927845E+02 -0.24326202996E+02  0.54777394672E+01  0.90998941798E+02  0.00000000000E+00 0.  1.
         22    1    3    3    0    0 -0.36823819827E+02  0.15923704212E+02 -0.20290468125E+02  0.44958438131E+02  0.00000000000E+00 0.  1.
</event>
<event>
 7    1  0.6681656E-006  0.1111976E+03  0.7818608E-02  0.1334193E+00
          2   -1    0    0  502    0  0.00000000000E+00  0.00000000000E+00  0.34113512392E+03  0.34113512392E+03  0.00000000000E+00 0. -1.
          1   -1    0    0  501    0 -0.00000000000E+00 -0.00000000000E+00 -0.18226459439E+03  0.18226459439E+03  0.00000000000E+00 0. -1.
         25    2    1    2    0    0  0.74923362204E+02  0.19880101078E+01 -0.28314081835E+02  0.14847190837E+03  0.12499903183E+03 0.  0.
          2    1    1    2  501    0  0.34902852657E+02 -0.42527350744E+02 -0.71951342586E+02  0.90574722659E+02  0.00000000000E+00 0. -1.
          1    1    1    2  502    0 -0.10982621486E+03  0.40539340636E+02  0.25913595395E+03  0.28435308727E+03  0.00000000000E+00 0. -1.
         22    1    3    3    0    0  0.71482500313E+00  0.51376498606E+02  0.84049126849E+01  0.52064365367E+02  0.00000000000E+00 0.  1.
         22    1    3    3    0    0  0.74208537201E+02 -0.49388488498E+02 -0.36718994520E+02  0.96407543005E+02  0.00000000000E+00 0.  1.
</event>
<event>
 7    1  0.6681656E-006  0.1369365E+03  0.7818608E-02  0.1382960E+00
          2   -1    0    0  502    0  0.00000000000E+00  0.00000000000E+00  0.38837003653E+03  0.38837003653E+03  0.00000000000E+00 0. -1.
          1   -1    0    0  501    0 -0.00000000000E+00 -0.00000000000E+00 -0.25075271384E+03  0.25075271384E+03  0.00000000000E+00 0. -1.
         25    2    1    2    0    0 -0.14666338048E+03  0.68932814665E+02 -0.16706055917E+02  0.20534615855E+03  0.12500428959E+03 0.  0.
          2    1    1    2  501    0  0.22940967324E+02 -0.18743662556E+02 -0.12271690310E+03  0.12624203411E+03  0.00000000000E+00 0. -1.
          1    1    1    2  502    0  0.12372241315E+03 -0.50189152109E+02  0.27704028170E+03  0.30753455772E+03  0.00000000000E+00 0. -1.
         22    1    3    3    0    0 -0.43991090103E+02  0.23739644896E+02  0.53333915578E+02  0.73097833751E+02  0.00000000000E+00 0.  1.
         22    1    3    3    0    0 -0.10267229037E+03  0.45193169769E+02 -0.70039971495E+02  0.13224832479E+03  0.00000000000E+00 0.  1.
</event>
<event>
 7    1  0.6681656E-006  0.7226758E+02  0.7818608E-02  0.1411461E+00
          2   -1    0    0  502    0  0.00000000000E+00  0.00000000000E+00  0.86869282872E+03  0.86869282872E+03  0.00000000000E+00 0. -1.
          1   -1    0    0  501    0 -0.00000000000E+00 -0.00000000000E+00 -0.76212741744E+03  0.76212741744E+03  0.00000000000E+00 0. -1.
         25    2    1    2    0    0  0.77994422684E+02 -0.59558950224E+02  0.42151630796E+03  0.45047948697E+03  0.12500148714E+03 0.  0.
          2    1    1    2  501    0 -0.11317826811E+02  0.43297022456E+02 -0.74424802325E+03  0.74559227831E+03  0.00000000000E+00 0. -1.
          1    1    1    2  502    0 -0.66676595873E+02  0.16261927768E+02  0.42929712658E+03  0.43474848088E+03  0.00000000000E+00 0. -1.
         22    1    3    3    0    0 -0.32873187909E+02 -0.54507255687E+01  0.12401569953E+03  0.12841437078E+03  0.00000000000E+00 0. -1.
         22    1    3    3    0    0  0.11086761059E+03 -0.54108224655E+02  0.29750060842E+03  0.32206511619E+03  0.00000000000E+00 0. -1.
</event>
<event>
 7    1  0.6681656E-006  0.9154060E+02  0.7818608E-02  0.1446233E+00
          2   -1    0    0  502    0  0.00000000000E+00  0.00000000000E+00  0.15632517481E+03  0.15632517481E+03  0.00000000000E+00 0. -1.
          1   -1    0    0  501    0 -0.00000000000E+00 -0.00000000000E+00 -0.14772437113E+04  0.14772437113E+04  0.00000000000E+00 0. -1.
         25    2    1    2    0    0 -0.75431285000E+02  0.86825178924E+02 -0.20903534830E+03  0.26934774890E+03  0.12499577012E+03 0.  0.
          2    1    1    2  501    0  0.66324446253E+02 -0.61268852086E+02 -0.12349261117E+04  0.12382226398E+04  0.00000000000E+00 0. -1.
          1    1    1    2  502    0  0.91068387470E+01 -0.25556326838E+02  0.12304292344E+03  0.12599849746E+03  0.00000000000E+00 0. -1.
         22    1    3    3    0    0 -0.37772626458E+01 -0.30678742537E+02 -0.26318673602E+02  0.40597112421E+02  0.00000000000E+00 0.  1.
         22    1    3    3    0    0 -0.71654022354E+02  0.11750392146E+03 -0.18271667469E+03  0.22875063648E+03  0.00000000000E+00 0.  1.
</event>
<event>
 7    1  0.6681656E-006  0.1663003E+03  0.7818608E-02  0.1333602E+00
          2   -1    0    0  502    0  0.00000000000E+00  0.00000000000E+00  0.88428077952E+03  0.88428077952E+03  0.00000000000E+00 0. -1.
          1   -1    0    0  501    0 -0.00000000000E+00 -0.00000000000E+00 -0.49236942458E+03  0.49236942458E+03  0.00000000000E+00 0. -1.
         25    2    1    2    0    0 -0.12521328994E+03 -0.45542209005E+02  0.26757905332E+02  0.18464483942E+03  0.12500108180E+03 0.  0.
          2    1    1    2  501    0 -0.34320571804E+02 -0.13763373145E+02 -0.40326833674E+03  0.40496010113E+03  0.00000000000E+00 0. -1.
          1    1    1    2  502    0  0.15953386174E+03  0.59305582150E+02  0.76842178635E+03  0.78704526354E+03  0.00000000000E+00 0. -1.
         22    1    3    3    0    0 -0.60008239200E+01 -0.42292597187E+02 -0.30369148917E+02  0.52411438355E+02  0.00000000000E+00 0.  1.
         22    1    3    3    0    0 -0.11921246602E+03 -0.32496118174E+01  0.57127054248E+02  0.13223340107E+03  0.00000000000E+00 0.  1.
</event>
<event>
 7    1  0.6681656E-006  0.7352195E+02  0.7818608E-02  0.1369030E+00
          2   -1    0    0  502    0  0.00000000000E+00  0.00000000000E+00  0.86226826125E+03  0.86226826125E+03  0.00000000000E+00 0. -1.
          1   -1    0    0  501    0 -0.00000000000E+00 -0.00000000000E+00 -0.72167916187E+02  0.72167916187E+02  0.00000000000E+00 0. -1.
         25    2    1    2    0    0 -0.64345362940E+01 -0.96090464808E+02  0.35961890524E+03  0.39271532853E+03  0.12499916629E+03 0.  0.
          2    1    1    2  501    0 -0.43954325697E+02  0.43522948831E+02 -0.34666075120E+02  0.70908155995E+02  0.00000000000E+00 0. -1.
          1    1    1    2  502    0  0.50388861991E+02  0.52567515977E+02  0.46514751494E+03  0.47081269291E+03  0.00000000000E+00 0. -1.
         22    1    3    3    0    0 -0.25582885146E+02 -0.15266068244E+01  0.62061844538E+01  0.26369134728E+02  0.00000000000E+00 0.  1.
         22    1    3    3    0    0  0.19148348852E+02 -0.94563857983E+02  0.35341272079E+03  0.36634619380E+03  0.00000000000E+00 0.  1.
</event>
<event>
 7    1  0.6681656E-006  0.9793749E+02  0.7818608E-02  0.1300893E+00
          2   -1    0    0  502    0  0.00000000000E+00  0.00000000000E+00  0.85806845669E+03  0.85806845669E+03  0.00000000000E+00 0. -1.
          1   -1    0    0  501    0 -0.00000000000E+00 -0.00000000000E+00 -0.12661935249E+04  0.12661935249E+04  0.00000000000E+00 0. -1.
         25    2    1    2    0    0  0.75506439448E+02  0.67082778321E+01 -0.36292466802E+02  0.15064455148E+03  0.12502165554E+03 0.  0.
          2    1    1    2  501    0 -0.11722723730E+02 -0.83388298815E+02 -0.11680981053E+04  0.11711294610E+04  0.00000000000E+00 0. -1.
          1    1    1    2  502    0 -0.63783715718E+02  0.76680020983E+02  0.79626550389E+03  0.80248796919E+03  0.00000000000E+00 0. -1.
         22    1    3    3    0    0  0.94889296983E+02  0.31827091959E+02  0.30148164249E+01  0.10013007332E+03  0.00000000000E+00 0. -1.
         22    1    3    3    0    0 -0.19382857535E+02 -0.25118814127E+02 -0.39307283227E+02  0.50514478163E+02  0.00000000000E+00 0. -1.
</event>
<event>
 7    1  0.6681656E-006  0.8124847E+02  0.7818608E-02  0.1410018E+00
          2   -1    0    0  502    0  0.00000000000E+00  0.00000000000E+00  0.22060169588E+04  0.22060169588E+04  0.00000000000E+00 0. -1.
          1   -1    0    0  501    0 -0.00000000000E+00 -0.00000000000E+00 -0.71021163139E+03  0.71021163139E+03  0.00000000000E+00 0. -1.
         25    2    1    2    0    0  0.62829864816E+02 -0.52061076833E+02  0.40381905732E+03  0.43052564043E+03  0.12499819348E+03 0.  0.
          2    1    1    2  501    0  0.17504580993E+02  0.36250094472E+02 -0.69533903692E+03  0.69650330650E+03  0.00000000000E+00 0. -1.
          1    1    1    2  502    0 -0.80334445810E+02  0.15810982361E+02  0.17873253070E+04  0.17891996433E+04  0.00000000000E+00 0. -1.
         22    1    3    3    0    0  0.30891327150E+02  0.49709612057E+01  0.33177586820E+03  0.33324797264E+03  0.00000000000E+00 0.  1.
         22    1    3    3    0    0  0.31938537667E+02 -0.57032038039E+02  0.72043189120E+02  0.97277667786E+02  0.00000000000E+00 0.  1.
</event>
<event>
 7    1  0.7650232E-006  0.4116385E+02  0.7818608E-02  0.1553501E+00
          2   -1    0    0  502    0  0.00000000000E+00  0.00000000000E+00  0.10784989981E+04  0.10784989981E+04  0.00000000000E+00 0. -1.
          1   -1    0    0  501    0 -0.00000000000E+00 -0.00000000000E+00 -0.14126545293E+04  0.14126545293E+04  0.00000000000E+00 0. -1.
         25    2    1    2    0    0  0.38327118885E+02 -0.90297369528E+01 -0.24510056170E+03  0.27793932378E+03  0.12500191265E+03 0.  0.
          2    1    1    2  501    0 -0.21770776263E+01  0.28755971204E+02 -0.11505546367E+04  0.11509159906E+04  0.00000000000E+00 0. -1.
          1    1    1    2  502    0 -0.36150041259E+02 -0.19726234252E+02  0.10614996672E+04  0.10622982130E+04  0.00000000000E+00 0. -1.
         22    1    3    3    0    0  0.15629530719E+02 -0.42134429601E+02 -0.19829483208E+02  0.49120268653E+02  0.00000000000E+00 0.  1.
         22    1    3    3    0    0  0.22697588166E+02  0.33104692648E+02 -0.22527107850E+03  0.22881905513E+03  0.00000000000E+00 0.  1.
</event>
<event>
 7    1  0.6681656E-006  0.1976816E+03  0.7818608E-02  0.1263392E+00
          2   -1    0    0  502    0  0.00000000000E+00  0.00000000000E+00  0.15579458382E+04  0.15579458382E+04  0.00000000000E+00 0. -1.
          1   -1    0    0  501    0 -0.00000000000E+00 -0.00000000000E+00 -0.30684135769E+03  0.30684135769E+03  0.00000000000E+00 0. -1.
         25    2    1    2    0    0  0.76925163628E+02  0.21189357786E+03  0.15374217347E+03  0.30012948707E+03  0.12499873586E+03 0.  0.
          2    1    1    2  501    0 -0.20588162531E+02 -0.19262725085E+03 -0.19268703107E+03  0.27323510417E+03  0.00000000000E+00 0. -1.
          1    1    1    2  502    0 -0.56337001097E+02 -0.19266327007E+02  0.12900493382E+04  0.12914226047E+04  0.00000000000E+00 0. -1.
         22    1    3    3    0    0 -0.25819990590E+02  0.35349232419E+02  0.62758444729E+02  0.76517073464E+02  0.00000000000E+00 0. -1.
         22    1    3    3    0    0  0.10274515422E+03  0.17654434544E+03  0.90983728740E+02  0.22361241361E+03  0.00000000000E+00 0. -1.
</event>
<event>
 7    1  0.6681656E-006  0.6361324E+02  0.7818608E-02  0.1506020E+00
          2   -1    0    0  502    0  0.00000000000E+00  0.00000000000E+00  0.43153879140E+03  0.43153879140E+03  0.00000000000E+00 0. -1.
          1   -1    0    0  501    0 -0.00000000000E+00 -0.00000000000E+00 -0.10047631963E+04  0.10047631963E+04  0.00000000000E+00 0. -1.
         25    2    1    2    0    0  0.36453439711E+01 -0.54121169169E+02 -0.19801438589E+03  0.24036479042E+03  0.12499258366E+03 0.  0.
          2    1    1    2  501    0 -0.24806567358E+02 -0.60338133726E+01 -0.78288694849E+03  0.78330310021E+03  0.00000000000E+00 0. -1.
          1    1    1    2  502    0  0.21161223387E+02  0.60154982542E+02  0.40767692944E+03  0.41263409711E+03  0.00000000000E+00 0. -1.
         22    1    3    3    0    0 -0.32249537333E+02  0.11686424904E+02 -0.14384986247E+03  0.14788302174E+03  0.00000000000E+00 0.  1.
         22    1    3    3    0    0  0.35894881304E+02 -0.65807594074E+02 -0.54164523412E+02  0.92481768679E+02  0.00000000000E+00 0.  1.
</event>
<event>
 7    1  0.1509087E-005  0.5717946E+02  0.7818608E-02  0.1445695E+00
          2   -1    0    0  502    0  0.00000000000E+00  0.00000000000E+00  0.22210526859E+04  0.22210526859E+04  0.00000000000E+00 0. -1.
          1   -1    0    0  501    0 -0.00000000000E+00 -0.00000000000E+00 -0.79730133633E+03  0.79730133633E+03  0.00000000000E+00 0. -1.
         25    2    1    2    0    0 -0.21511744965E+02 -0.69193479212E+02 -0.26254621260E+03  0.29967937390E+03  0.12500688242E+03 0.  0.
          2    1    1    2  501    0 -0.19237884259E+02  0.53666115328E+02 -0.51439777012E+03  0.51754730608E+03  0.00000000000E+00 0. -1.
          1    1    1    2  502    0  0.40749629223E+02  0.15527363884E+02  0.22006953323E+04  0.22011273423E+04  0.00000000000E+00 0. -1.
         22    1    3    3    0    0 -0.48226250033E+02  0.57056522092E+01 -0.38602560081E+02  0.62036145143E+02  0.00000000000E+00 0.  1.
         22    1    3    3    0    0  0.26714505069E+02 -0.74899131421E+02 -0.22394365252E+03  0.23764322876E+03  0.00000000000E+00 0.  1.
</event>
<event>
 7    1  0.6681656E-006  0.7912358E+02  0.7818608E-02  0.1344091E+00
          2   -1    0    0  502    0  0.00000000000E+00  0.00000000000E+00  0.28603110516E+04  0.28603110516E+04  0.00000000000E+00 0. -1.
          1   -1    0    0  501    0 -0.00000000000E+00 -0.00000000000E+00 -0.40008514700E+02  0.40008514700E+02  0.00000000000E+00 0. -1.
         25    2    1    2    0    0 -0.56891431155E+01  0.60533493938E+02  0.65238136535E+03  0.66702800541E+03  0.12501297495E+03 0.  0.
          2    1    1    2  501    0 -0.67998430844E+02 -0.20274495767E+02  0.76261197204E+01  0.71365253996E+02  0.00000000000E+00 0. -1.
          1    1    1    2  502    0  0.73687573960E+02 -0.40258998171E+02  0.21602950518E+04  0.21619263069E+04  0.00000000000E+00 0. -1.
         22    1    3    3    0    0 -0.58137533179E+02 -0.10192226093E+01  0.27291920310E+03  0.27904462546E+03  0.00000000000E+00 0.  1.
         22    1    3    3    0    0  0.52448390063E+02  0.61552716547E+02  0.37946216225E+03  0.38798337995E+03  0.00000000000E+00 0.  1.
</event>
<event>
 7    1  0.7441179E-006  0.6365367E+02  0.7818608E-02  0.1417044E+00
          2   -1    0    0  502    0  0.00000000000E+00  0.00000000000E+00  0.65598489767E+03  0.65598489767E+03  0.00000000000E+00 0. -1.
          1   -1    0    0  501    0 -0.00000000000E+00 -0.00000000000E+00 -0.10857778254E+04  0.10857778254E+04  0.00000000000E+00 0. -1.
         25    2    1    2    0    0  0.25130243336E+02  0.96653758874E+02 -0.28686753902E+03  0.32846885078E+03  0.12500129100E+03 0.  0.
          2    1    1    2  501    0 -0.37171947885E+02 -0.49512410538E+02 -0.77594301266E+03  0.77840914139E+03  0.00000000000E+00 0. -1.
          1    1    1    2  502    0  0.12041704549E+02 -0.47141348336E+02  0.63301762393E+03  0.63488473093E+03  0.00000000000E+00 0. -1.
         22    1    3    3    0    0  0.94982791949E+01  0.12620578384E+03 -0.22756069241E+03  0.26038814472E+03  0.00000000000E+00 0. -1.
         22    1    3    3    0    0  0.15631964141E+02 -0.29552024962E+02 -0.59306846614E+02  0.68080706059E+02  0.00000000000E+00 0. -1.
</event>
<event>
 7    1  0.6681656E-006  0.4245419E+03  0.7818608E-02  0.1207796E+00
          2   -1    0    0  502    0  0.00000000000E+00  0.00000000000E+00  0.12722384554E+04  0.12722384554E+04  0.00000000000E+00 0. -1.
          1   -1    0    0  501    0 -0.00000000000E+00 -0.00000000000E+00 -0.50713946092E+03  0.50713946092E+03  0.00000000000E+00 0. -1.
         25    2    1    2    0    0 -0.20831065556E+03  0.34115496611E+03 -0.18276248818E+02  0.41921110892E+03  0.12499556971E+03 0.  0.
          2    1    1    2  501    0  0.24654547515E+03 -0.37175837805E+03 -0.11483236443E+03  0.46062504805E+03  0.00000000000E+00 0. -1.
          1    1    1    2  502    0 -0.38234819588E+02  0.30603411939E+02  0.89820760776E+03  0.89954175939E+03  0.00000000000E+00 0. -1.
         22    1    3    3    0    0  0.12551081193E+02  0.49067074007E+02 -0.15656256327E+02  0.53011562446E+02  0.00000000000E+00 0.  1.
         22    1    3    3    0    0 -0.22086173675E+03  0.29208789210E+03 -0.26199924911E+01  0.36619954647E+03  0.00000000000E+00 0.  1.
</event>
<event>
 7    1  0.6681656E-006  0.1631761E+03  0.7818608E-02  0.1242663E+00
          2   -1    0    0  502    0  0.00000000000E+00  0.00000000000E+00  0.24216652659E+04  0.24216652659E+04  0.00000000000E+00 0. -1.
          1   -1    0    0  501    0 -0.00000000000E+00 -0.00000000000E+00 -0.42389074842E+03  0.42389074842E+03  0.00000000000E+00 0. -1.
         25    2    1    2    0    0  0.71940104676E+02  0.21971812593E+03  0.14911054853E+02  0.26324661508E+03  0.12500002909E+03 0.  0.
          2    1    1    2  501    0 -0.67041902397E+02 -0.57980823078E+02 -0.29023041275E+03  0.30346348216E+03  0.00000000000E+00 0. -1.
          1    1    1    2  502    0 -0.48982022790E+01 -0.16173730285E+03  0.22730938754E+04  0.22788459171E+04  0.00000000000E+00 0. -1.
         22    1    3    3    0    0  0.64800435225E+02  0.16542152736E+03 -0.43778087572E+02  0.18297513239E+03  0.00000000000E+00 0. -1.
         22    1    3    3    0    0  0.71396694501E+01  0.54296598568E+02  0.58689142425E+02  0.80271482698E+02  0.00000000000E+00 0. -1.
</event>
<event>
 7    1  0.6681656E-006  0.7244718E+02  0.7818608E-02  0.1379262E+00
          2   -1    0    0  502    0  0.00000000000E+00  0.00000000000E+00  0.53967452023E+03  0.53967452023E+03  0.00000000000E+00 0. -1.
          1   -1    0    0  501    0 -0.00000000000E+00 -0.00000000000E+00 -0.17359825345E+03  0.17359825345E+03  0.00000000000E+00 0. -1.
         25    2    1    2    0    0 -0.55031064476E+02 -0.42594255458E+01  0.15292474793E+03  0.20507926280E+03  0.12499985896E+03 0.  0.
          2    1    1    2  501    0  0.71261511612E+01 -0.57264892151E+02 -0.13742542415E+03  0.14904964645E+03  0.00000000000E+00 0. -1.
          1    1    1    2  502    0  0.47904913315E+02  0.61524317697E+02  0.35057694301E+03  0.35914386443E+03  0.00000000000E+00 0. -1.
         22    1    3    3    0    0 -0.69729374189E+02 -0.20088528732E+02  0.16505727531E+03  0.18030429486E+03  0.00000000000E+00 0. -1.
         22    1    3    3    0    0  0.14698309713E+02  0.15829103186E+02 -0.12132527381E+02  0.24774967946E+02  0.00000000000E+00 0. -1.
</event>
<event>
 7    1  0.6681656E-006  0.9220829E+02  0.7818608E-02  0.1368212E+00
          2   -1    0    0  502    0  0.00000000000E+00  0.00000000000E+00  0.41411048611E+03  0.41411048611E+03  0.00000000000E+00 0. -1.
          1   -1    0    0  501    0 -0.00000000000E+00 -0.00000000000E+00 -0.11668814638E+03  0.11668814638E+03  0.00000000000E+00 0. -1.
         25    2    1    2    0    0  0.10406176804E+03 -0.72502653462E+02  0.10953158316E+03  0.20906499703E+03  0.12500207578E+03 0.  0.
          2    1    1    2  501    0 -0.21073111072E+02  0.44963762890E+02 -0.48669491290E+02  0.69530823135E+02  0.00000000000E+00 0. -1.
          1    1    1    2  502    0 -0.82988656965E+02  0.27538890572E+02  0.23656024786E+03  0.25220281233E+03  0.00000000000E+00 0. -1.
         22    1    3    3    0    0  0.38593229573E+02 -0.32363810994E+02  0.12133122169E+03  0.13137016018E+03  0.00000000000E+00 0. -1.
         22    1    3    3    0    0  0.65468538463E+02 -0.40138842468E+02 -0.11799638528E+02  0.77694836846E+02  0.00000000000E+00 0. -1.
</event>
<event>
 7    1  0.6681656E-006  0.1816270E+03  0.7818608E-02  0.1386304E+00
          2   -1    0    0  502    0  0.00000000000E+00  0.00000000000E+00  0.40841021024E+04  0.40841021024E+04  0.00000000000E+00 0. -1.
          1   -1    0    0  501    0 -0.00000000000E+00 -0.00000000000E+00 -0.55636384700E+03  0.55636384700E+03  0.00000000000E+00 0. -1.
         25    2    1    2    0    0  0.13553328383E+03 -0.10273708278E+03  0.44157722049E+02  0.21564170934E+03  0.12500905241E+03 0.  0.
          2    1    1    2  501    0 -0.26936893571E+01 -0.21570893265E+02 -0.46827693303E+03  0.46878123406E+03  0.00000000000E+00 0. -1.
          1    1    1    2  502    0 -0.13283959447E+03  0.12430797604E+03  0.39518574664E+04  0.39560430060E+04  0.00000000000E+00 0. -1.
         22    1    3    3    0    0  0.82250212403E+02  0.32298827546E+00  0.55263468309E+02  0.99092142429E+02  0.00000000000E+00 0. -1.
         22    1    3    3    0    0  0.53283071428E+02 -0.10306007105E+03 -0.11105746259E+02  0.11654956691E+03  0.00000000000E+00 0. -1.
</event>
<event>
 7    1  0.9149874E-006  0.7207235E+02  0.7818608E-02  0.1376834E+00
          2   -1    0    0  502    0  0.00000000000E+00  0.00000000000E+00  0.83496705131E+03  0.83496705131E+03  0.00000000000E+00 0. -1.
          1   -1    0    0  501    0 -0.00000000000E+00 -0.00000000000E+00 -0.20168786469E+04  0.20168786469E+04  0.00000000000E+00 0. -1.
         25    2    1    2    0    0  0.31476933818E+02 -0.31000623745E+02 -0.10755910143E+04  0.10837345844E+04  0.12503112921E+03 0.  0.
          2    1    1    2  501    0 -0.66162496075E+02 -0.32176388872E+02 -0.93420395710E+03  0.93709648881E+03  0.00000000000E+00 0. -1.
          1    1    1    2  502    0  0.34685562257E+02  0.63177012618E+02  0.82788337578E+03  0.83101462505E+03  0.00000000000E+00 0. -1.
         22    1    3    3    0    0  0.32779310965E+02 -0.41616911338E+02 -0.16961693059E+03  0.17769736542E+03  0.00000000000E+00 0. -1.
         22    1    3    3    0    0 -0.13023771472E+01  0.10616287592E+02 -0.90597408372E+03  0.90603721895E+03  0.00000000000E+00 0. -1.
</event>
<event>
 7    1  0.6681656E-006  0.1014820E+03  0.7818608E-02  0.1352716E+00
          2   -1    0    0  502    0  0.00000000000E+00  0.00000000000E+00  0.17664348745E+04  0.17664348745E+04  0.00000000000E+00 0. -1.
          1   -1    0    0  501    0 -0.00000000000E+00 -0.00000000000E+00 -0.22937654804E+04  0.22937654804E+04  0.00000000000E+00 0. -1.
         25    2    1    2    0    0  0.60705877928E+02 -0.53361754024E+02  0.64520806671E+03  0.66215774509E+03  0.12500699828E+03 0.  0.
          2    1    1    2  501    0 -0.32375070266E+02  0.96236636568E+02 -0.22835685964E+04  0.22858248336E+04  0.00000000000E+00 0. -1.
          1    1    1    2  502    0 -0.28330807662E+02 -0.42874882544E+02  0.11110299238E+04  0.11122177762E+04  0.00000000000E+00 0. -1.
         22    1    3    3    0    0  0.68354052782E+02 -0.76787444100E+02  0.32202442668E+03  0.33803597365E+03  0.00000000000E+00 0. -1.
         22    1    3    3    0    0 -0.76481748536E+01  0.23425690076E+02  0.32318364003E+03  0.32412177144E+03  0.00000000000E+00 0. -1.
</event>
<event>
 7    1  0.6957241E-006  0.1621168E+03  0.7818608E-02  0.1271893E+00
          2   -1    0    0  502    0  0.00000000000E+00  0.00000000000E+00  0.19111817063E+04  0.19111817063E+04  0.00000000000E+00 0. -1.
          1   -1    0    0  501    0 -0.00000000000E+00 -0.00000000000E+00 -0.77001553872E+03  0.77001553872E+03  0.00000000000E+00 0. -1.
         25    2    1    2    0    0 -0.11215045715E+03  0.69685108230E+02 -0.14995827897E+03  0.23568344011E+03  0.12500183664E+03 0.  0.
          2    1    1    2  501    0 -0.48920580515E+02 -0.45562997164E+02 -0.57169382433E+03  0.57558929688E+03  0.00000000000E+00 0. -1.
          1    1    1    2  502    0  0.16107103766E+03 -0.24122111066E+02  0.18628182709E+04  0.18699245081E+04  0.00000000000E+00 0. -1.
         22    1    3    3    0    0 -0.54892774745E+02 -0.32721970401E+02 -0.62080238580E+02  0.89094893727E+02  0.00000000000E+00 0.  1.
         22    1    3    3    0    0 -0.57257682403E+02  0.10240707863E+03 -0.87878040393E+02  0.14658854638E+03  0.00000000000E+00 0.  1.
</event>
<event>
 7    1  0.6681656E-006  0.1482754E+03  0.7818608E-02  0.1335010E+00
          2   -1    0    0  502    0  0.00000000000E+00  0.00000000000E+00  0.18771075268E+04  0.18771075268E+04  0.00000000000E+00 0. -1.
          1   -1    0    0  501    0 -0.00000000000E+00 -0.00000000000E+00 -0.39748427545E+03  0.39748427545E+03  0.00000000000E+00 0. -1.
         25    2    1    2    0    0  0.10422105194E+03  0.37313213441E+02  0.19370594528E+03  0.25573676841E+03  0.12499999166E+03 0.  0.
          2    1    1    2  501    0 -0.13866718050E+03 -0.59486295017E+02 -0.35067020594E+03  0.38175489464E+03  0.00000000000E+00 0. -1.
          1    1    1    2  502    0  0.34446128563E+02  0.22173081576E+02  0.16365875120E+04  0.16371001392E+04  0.00000000000E+00 0. -1.
         22    1    3    3    0    0  0.89282143532E+02  0.51117854191E+02  0.57177303717E+02  0.11770123292E+03  0.00000000000E+00 0. -1.
         22    1    3    3    0    0  0.14938908403E+02 -0.13804640750E+02  0.13652864156E+03  0.13803553549E+03  0.00000000000E+00 0. -1.
</event>
<event>
 7    1  0.6681656E-006  0.3334795E+02  0.7818608E-02  0.1576752E+00
          2   -1    0    0  502    0  0.00000000000E+00  0.00000000000E+00  0.60894425078E+02  0.60894425078E+02  0.00000000000E+00 0. -1.
          1   -1    0    0  501    0 -0.00000000000E+00 -0.00000000000E+00 -0.35767758818E+03  0.35767758818E+03  0.00000000000E+00 0. -1.
         25    2    1    2    0    0 -0.39007768856E+02  0.48614104047E+02 -0.54599555103E+02  0.14997054080E+03  0.12500045818E+03 0.  0.
          2    1    1    2  501    0  0.15528272868E+02 -0.28758362558E+02 -0.23468626661E+03  0.23695108020E+03  0.00000000000E+00 0. -1.
          1    1    1    2  502    0  0.23479495988E+02 -0.19855741489E+02 -0.74973413883E+01  0.31650392254E+02  0.00000000000E+00 0. -1.
         22    1    3    3    0    0 -0.29710617745E+02  0.60084516019E+02 -0.89649809606E+02  0.11193729599E+03  0.00000000000E+00 0.  1.
         22    1    3    3    0    0 -0.92971511103E+01 -0.11470411972E+02  0.35050254503E+02  0.38033244804E+02  0.00000000000E+00 0.  1.
</event>
<event>
 7    1  0.6681656E-006  0.4202219E+02  0.7818608E-02  0.1559524E+00
          2   -1    0    0  502    0  0.00000000000E+00  0.00000000000E+00  0.92028271466E+03  0.92028271466E+03  0.00000000000E+00 0. -1.
          1   -1    0    0  501    0 -0.00000000000E+00 -0.00000000000E+00 -0.18079259031E+02  0.18079259031E+02  0.00000000000E+00 0. -1.
         25    2    1    2    0    0  0.19535538145E+02  0.78424531465E+01  0.53850644083E+03  0.55322498164E+03  0.12500220867E+03 0.  0.
          2    1    1    2  501    0 -0.28682426700E+02 -0.33443850720E+02  0.37637698634E+02  0.57946260542E+02  0.00000000000E+00 0. -1.
          1    1    1    2  502    0  0.91468885542E+01  0.25601397574E+02  0.32605931617E+03  0.32719073151E+03  0.00000000000E+00 0. -1.
         22    1    3    3    0    0 -0.27836489081E+02  0.16255674690E+02  0.35613873973E+02  0.48036081266E+02  0.00000000000E+00 0.  1.
         22    1    3    3    0    0  0.47372027226E+02 -0.84132215432E+01  0.50289256686E+03  0.50518890037E+03  0.00000000000E+00 0.  1.
</event>
<event>
 7    1  0.6681656E-006  0.7598507E+02  0.7818608E-02  0.1395237E+00
          2   -1    0    0  502    0  0.00000000000E+00  0.00000000000E+00  0.17579973090E+03  0.17579973090E+03  0.00000000000E+00 0. -1.
          1   -1    0    0  501    0 -0.00000000000E+00 -0.00000000000E+00 -0.10978876283E+04  0.10978876283E+04  0.00000000000E+00 0. -1.
         25    2    1    2    0    0 -0.57585149085E+02 -0.50490418129E+02 -0.28566665718E+03  0.32108605764E+03  0.12500194265E+03 0.  0.
          2    1    1    2  501    0  0.77141440020E+02  0.62540255299E+01 -0.78887338978E+03  0.79266079738E+03  0.00000000000E+00 0. -1.
          1    1    1    2  502    0 -0.19556290936E+02  0.44236392599E+02  0.15245214960E+03  0.15994050413E+03  0.00000000000E+00 0. -1.
         22    1    3    3    0    0  0.30196099892E+02 -0.22759846189E+02 -0.26824973150E+02  0.46361559850E+02  0.00000000000E+00 0. -1.
         22    1    3    3    0    0 -0.87781248977E+02 -0.27730571940E+02 -0.25884168403E+03  0.27472449779E+03  0.00000000000E+00 0. -1.
</event>
<event>
 7    1  0.6681656E-006  0.5340958E+02  0.7818608E-02  0.1439834E+00
          2   -1    0    0  502    0  0.00000000000E+00  0.00000000000E+00  0.34781973119E+02  0.34781973119E+02  0.00000000000E+00 0. -1.
          1   -1    0    0  501    0 -0.00000000000E+00 -0.00000000000E+00 -0.13369192733E+04  0.13369192733E+04  0.00000000000E+00 0. -1.
         25    2    1    2    0    0  0.45875469926E+02  0.14238815524E+02 -0.96928317841E+03  0.97848983652E+03  0.12500071046E+03 0.  0.
          2    1    1    2  501    0 -0.40688488918E+01 -0.48597314918E+02 -0.33550691132E+03  0.33903265638E+03  0.00000000000E+00 0. -1.
          1    1    1    2  502    0 -0.41806621034E+02  0.34358499395E+02  0.26527895283E+01  0.54178753541E+02  0.00000000000E+00 0. -1.
         22    1    3    3    0    0  0.57697372308E+02 -0.44620810959E+02 -0.58857230597E+03  0.59307450029E+03  0.00000000000E+00 0. -1.
         22    1    3    3    0    0 -0.11821902382E+02  0.58859626483E+02 -0.38071087243E+03  0.38541533622E+03  0.00000000000E+00 0. -1.
</event>
<event>
 7    1  0.6681656E-006  0.1364243E+03  0.7818608E-02  0.1376597E+00
          2   -1    0    0  502    0  0.00000000000E+00  0.00000000000E+00  0.12291414388E+04  0.12291414388E+04  0.00000000000E+00 0. -1.
          1   -1    0    0  501    0 -0.00000000000E+00 -0.00000000000E+00 -0.59325145689E+03  0.59325145689E+03  0.00000000000E+00 0. -1.
         25    2    1    2    0    0 -0.16178138285E+03  0.39125412373E+02 -0.37028737078E+03  0.42478449027E+03  0.12500044994E+03 0.  0.
          2    1    1    2  501    0  0.31319079032E+02 -0.23657898140E+00 -0.19057829081E+03  0.19313473434E+03  0.00000000000E+00 0. -1.
          1    1    1    2  502    0  0.13046230382E+03 -0.38888833391E+02  0.11967556435E+04  0.12044736711E+04  0.00000000000E+00 0. -1.
         22    1    3    3    0    0 -0.12785329376E+02  0.28028462339E+02 -0.18116335794E+03  0.18376403786E+03  0.00000000000E+00 0.  1.
         22    1    3    3    0    0 -0.14899605347E+03  0.11096950034E+02 -0.18912401284E+03  0.24102045241E+03  0.00000000000E+00 0.  1.
</event>
<event>
 7    1  0.6681656E-006  0.1556112E+03  0.7818608E-02  0.1270828E+00
          2   -1    0    0  502    0  0.00000000000E+00  0.00000000000E+00  0.12241590936E+04  0.12241590936E+04  0.00000000000E+00 0. -1.
          1   -1    0    0  501    0 -0.00000000000E+00 -0.00000000000E+00 -0.42091215731E+04  0.42091215731E+04  0.00000000000E+00 0. -1.
         25    2    1    2    0    0 -0.47727566459E+02  0.95317491223E+02 -0.23055623822E+03  0.28309546695E+03  0.12499407863E+03 0.  0.
          2    1    1    2  501    0  0.11700226077E+03 -0.10766635914E+03 -0.39496613744E+04  0.39528605524E+04  0.00000000000E+00 0. -1.
          1    1    1    2  502    0 -0.69274694312E+02  0.12348867916E+02  0.11952551331E+04  0.11973246473E+04  0.00000000000E+00 0. -1.
         22    1    3    3    0    0 -0.70450180636E+02  0.11420655670E+03 -0.19730936058E+03  0.23861548424E+03  0.00000000000E+00 0. -1.
         22    1    3    3    0    0  0.22722614177E+02 -0.18889065473E+02 -0.33246877637E+02  0.44479982712E+02  0.00000000000E+00 0. -1.
</event>
<event>
 7    1  0.6681656E-006  0.1033560E+03  0.7818608E-02  0.1322360E+00
          2   -1    0    0  502    0  0.00000000000E+00  0.00000000000E+00  0.46371478099E+03  0.46371478099E+03  0.00000000000E+00 0. -1.
          1   -1    0    0  501    0 -0.00000000000E+00 -0.00000000000E+00 -0.69994338644E+03  0.69994338644E+03  0.00000000000E+00 0. -1.
         25    2    1    2    0    0 -0.37310234724E+02 -0.13962044592E+03 -0.64938134917E+02  0.20181254172E+03  0.12500167236E+03 0.  0.
          2    1    1    2  501    0 -0.26445301533E+02  0.60144505406E+02 -0.55804290970E+03  0.56189732564E+03  0.00000000000E+00 0. -1.
          1    1    1    2  502    0  0.63755536257E+02  0.79475940515E+02  0.38675243917E+03  0.39994830007E+03  0.00000000000E+00 0. -1.
         22    1    3    3    0    0 -0.15918010861E+02 -0.10968591345E+02 -0.68671835704E+02  0.71340830419E+02  0.00000000000E+00 0.  1.
         22    1    3    3    0    0 -0.21392223863E+02 -0.12865185458E+03  0.37337007875E+01  0.13047171130E+03  0.00000000000E+00 0.  1.
</event>
<event>
 7    1  0.6681656E-006  0.1343210E+03  0.7818608E-02  0.1371078E+00
          2   -1    0    0  502    0  0.00000000000E+00  0.00000000000E+00  0.14002908567E+04  0.14002908567E+04  0.00000000000E+00 0. -1.
          1   -1    0    0  501    0 -0.00000000000E+00 -0.00000000000E+00 -0.41345841781E+03  0.41345841781E+03  0.00000000000E+00 0. -1.
         25    2    1    2    0    0 -0.10845461842E+03  0.10703532863E+03  0.40783881029E+03  0.45296409948E+03  0.12500005764E+03 0.  0.
          2    1    1    2  501    0  0.11167487013E+03 -0.73902638941E+02 -0.37912913724E+03  0.40208429385E+03  0.00000000000E+00 0. -1.
          1    1    1    2  502    0 -0.32202517118E+01 -0.33132689687E+02  0.95812276585E+03  0.95870088119E+03  0.00000000000E+00 0. -1.
         22    1    3    3    0    0 -0.80555622334E+02  0.55466711069E+02  0.10107803054E+03  0.14065039134E+03  0.00000000000E+00 0. -1.
         22    1    3    3    0    0 -0.27898996089E+02  0.51568617560E+02  0.30676077975E+03  0.31231370814E+03  0.00000000000E+00 0. -1.
</event>
<event>
 7    1  0.6681656E-006  0.1215756E+03  0.7818608E-02  0.1340585E+00
          2   -1    0    0  502    0  0.00000000000E+00  0.00000000000E+00  0.57623664924E+03  0.57623664924E+03  0.00000000000E+00 0. -1.
          1   -1    0    0  501    0 -0.00000000000E+00 -0.00000000000E+00 -0.32729284499E+03  0.32729284499E+03  0.00000000000E+00 0. -1.
         25    2    1    2    0    0 -0.67618627506E+02 -0.55876703647E+02  0.42480359101E+02  0.15850640279E+03  0.12500085608E+03 0.  0.
          2    1    1    2  501    0 -0.65029527654E+01 -0.47152515792E+02 -0.25860378087E+03  0.26294783441E+03  0.00000000000E+00 0. -1.
          1    1    1    2  502    0  0.74121580271E+02  0.10302921944E+03  0.46506722602E+03  0.48207525702E+03  0.00000000000E+00 0. -1.
         22    1    3    3    0    0 -0.67562837489E+02  0.23734994201E+02  0.91257152396E+01  0.72189789014E+02  0.00000000000E+00 0. -1.
         22    1    3    3    0    0 -0.55790016694E-01 -0.79611697847E+02  0.33354643861E+02  0.86316613776E+02  0.00000000000E+00 0. -1.
</event>
<event>
 7    1  0.6681656E-006  0.7378671E+02  0.7818608E-02  0.1407803E+00
          2   -1    0    0  502    0  0.00000000000E+00  0.00000000000E+00  0.11120130818E+04  0.11120130818E+04  0.00000000000E+00 0. -1.
          1   -1    0    0  501    0 -0.00000000000E+00 -0.00000000000E+00 -0.26694582860E+03  0.26694582860E+03  0.00000000000E+00 0. -1.
         25    2    1    2    0    0 -0.10067122785E+02  0.30389395882E+02  0.47351522850E+03  0.49078161821E+03  0.12500025125E+03 0.  0.
          2    1    1    2  501    0 -0.35673991900E+00 -0.74268323090E+02 -0.25214310068E+03  0.26285367469E+03  0.00000000000E+00 0. -1.
          1    1    1    2  502    0  0.10423862704E+02  0.43878927208E+02  0.62369512535E+03  0.62532361746E+03  0.00000000000E+00 0. -1.
         22    1    3    3    0    0 -0.23594040307E+02  0.26411959873E+02  0.47525712629E+03  0.47657486972E+03  0.00000000000E+00 0.  1.
         22    1    3    3    0    0  0.13526917522E+02  0.39774360095E+01 -0.17418977874E+01  0.14206748493E+02  0.00000000000E+00 0.  1.
</event>
<event>
 7    1  0.6681656E-006  0.6929375E+02  0.7818608E-02  0.1404496E+00
          2   -1    0    0  502    0  0.00000000000E+00  0.00000000000E+00  0.20402905568E+04  0.20402905568E+04  0.00000000000E+00 0. -1.
          1   -1    0    0  501    0 -0.00000000000E+00 -0.00000000000E+00 -0.41780666843E+02  0.41780666843E+02  0.00000000000E+00 0. -1.
         25    2    1    2    0    0 -0.27284917633E+02  0.54586459729E+02  0.35350524929E+03  0.37988205588E+03  0.12498106573E+03 0.  0.
          2    1    1    2  501    0 -0.39018243171E+02 -0.30112355044E+02 -0.60195741916E+01  0.49652920356E+02  0.00000000000E+00 0. -1.
          1    1    1    2  502    0  0.66303160804E+02 -0.24474104684E+02  0.16510242148E+04  0.16525362474E+04  0.00000000000E+00 0. -1.
         22    1    3    3    0    0  0.13803794148E+02 -0.36566523038E+02  0.10172081050E+03  0.10897145786E+03  0.00000000000E+00 0.  1.
         22    1    3    3    0    0 -0.41088711781E+02  0.91152982766E+02  0.25178443879E+03  0.27091059802E+03  0.00000000000E+00 0.  1.
</event>
<event>
 7    1  0.6681656E-006  0.1133094E+03  0.7818608E-02  0.1293403E+00
          2   -1    0    0  502    0  0.00000000000E+00  0.00000000000E+00  0.95190706565E+02  0.95190706565E+02  0.00000000000E+00 0. -1.
          1   -1    0    0  501    0 -0.00000000000E+00 -0.00000000000E+00 -0.12917287479E+04  0.12917287479E+04  0.00000000000E+00 0. -1.
         25    2    1    2    0    0 -0.91134572846E+02  0.59243005084E+02 -0.10288754045E+03  0.19500327644E+03  0.12500075128E+03 0.  0.
          2    1    1    2  501    0  0.11420658477E+03  0.15278553244E+02 -0.11068195778E+04  0.11128010406E+04  0.00000000000E+00 0. -1.
          1    1    1    2  502    0 -0.23072011924E+02 -0.74521558328E+02  0.13169076870E+02  0.79115137461E+02  0.00000000000E+00 0. -1.
         22    1    3    3    0    0 -0.70408833577E+02 -0.18058394872E+02 -0.11610757440E+02  0.73609232840E+02  0.00000000000E+00 0. -1.
         22    1    3    3    0    0 -0.20725739269E+02  0.77301399956E+02 -0.91276783014E+02  0.12139404360E+03  0.00000000000E+00 0. -1.
</event>
<event>
 7    1  0.6681656E-006  0.1114846E+03  0.7818608E-02  0.1385988E+00
          2   -1    0    0  502    0  0.00000000000E+00  0.00000000000E+00  0.30536237484E+03  0.30536237484E+03  0.00000000000E+00 0. -1.
          1   -1    0    0  501    0 -0.00000000000E+00 -0.00000000000E+00 -0.20932386915E+03  0.20932386915E+03  0.00000000000E+00 0. -1.
         25    2    1    2    0    0  0.36758583848E+02 -0.12129037108E+03 -0.96283698976E+02  0.20238258323E+03  0.12500244678E+03 0.  0.
          2    1    1    2  501    0 -0.48451738745E+02  0.87764933179E+02 -0.15524646469E+02  0.10144589263E+03  0.00000000000E+00 0. -1.
          1    1    1    2  502    0  0.11693154897E+02  0.33525437902E+02  0.20784685113E+03  0.21085776814E+03  0.00000000000E+00 0. -1.
         22    1    3    3    0    0  0.60823462261E+02 -0.72661009796E+02 -0.11121343454E+03  0.14610798722E+03  0.00000000000E+00 0.  1.
         22    1    3    3    0    0 -0.24064878413E+02 -0.48629361286E+02  0.14929735564E+02  0.56274596010E+02  0.00000000000E+00 0.  1.
</event>
<event>
 7    1  0.6681656E-006  0.8985587E+02  0.7818608E-02  0.1411431E+00
          2   -1    0    0  502    0  0.00000000000E+00  0.00000000000E+00  0.27266466022E+04  0.27266466022E+04  0.00000000000E+00 0. -1.
          1   -1    0    0  501    0 -0.00000000000E+00 -0.00000000000E+00 -0.21477985395E+04  0.21477985395E+04  0.00000000000E+00 0. -1.
         25    2    1    2    0    0  0.68156077881E+02  0.78802025005E+02 -0.64990641847E+02  0.17522484882E+03  0.12499981607E+03 0.  0.
          2    1    1    2  501    0 -0.78064129491E+02 -0.44191921248E+02 -0.20265772779E+04  0.20285616573E+04  0.00000000000E+00 0. -1.
          1    1    1    2  502    0  0.99080516095E+01 -0.34610103757E+02  0.26704159824E+04  0.26706586356E+04  0.00000000000E+00 0. -1.
         22    1    3    3    0    0 -0.69597248131E+01 -0.42058218298E+01  0.28334041235E+02  0.29477866263E+02  0.00000000000E+00 0.  1.
         22    1    3    3    0    0  0.75115802695E+02  0.83007846835E+02 -0.93324683082E+02  0.14574698255E+03  0.00000000000E+00 0.  1.
</event>
<event>
 7    1  0.6681656E-006  0.9461664E+02  0.7818608E-02  0.1440836E+00
          2   -1    0    0  502    0  0.00000000000E+00  0.00000000000E+00  0.73679139339E+03  0.73679139339E+03  0.00000000000E+00 0. -1.
          1   -1    0    0  501    0 -0.00000000000E+00 -0.00000000000E+00 -0.37947755265E+03  0.37947755265E+03  0.00000000000E+00 0. -1.
         25    2    1    2    0    0 -0.10790324692E+03 -0.12271523146E+02  0.36883162697E+03  0.40429585249E+03  0.12499866523E+03 0.  0.
          2    1    1    2  501    0  0.93781803901E+02 -0.11119438417E+02 -0.35503008114E+03  0.36737586634E+03  0.00000000000E+00 0. -1.
          1    1    1    2  502    0  0.14121443024E+02  0.23390961563E+02  0.34351229492E+03  0.34459722721E+03  0.00000000000E+00 0. -1.
         22    1    3    3    0    0 -0.46025253944E+00 -0.48361010338E+02  0.73730551467E+02  0.88177056953E+02  0.00000000000E+00 0.  1.
         22    1    3    3    0    0 -0.10744299438E+03  0.36089487193E+02  0.29510107550E+03  0.31611879553E+03  0.00000000000E+00 0.  1.
</event>
<event>
 7    1  0.6681656E-006  0.1096125E+03  0.7818608E-02  0.1290435E+00
          2   -1    0    0  502    0  0.00000000000E+00  0.00000000000E+00  0.13133812868E+04  0.13133812868E+04  0.00000000000E+00 0. -1.
          1   -1    0    0  501    0 -0.00000000000E+00 -0.00000000000E+00 -0.12296618528E+04  0.12296618528E+04  0.00000000000E+00 0. -1.
         25    2    1    2    0    0  0.13254685018E+02 -0.13971131876E+03  0.10236134905E+03  0.21400587458E+03  0.12500291721E+03 0.  0.
          2    1    1    2  501    0  0.56008323097E+02  0.94144367559E+02 -0.11697897401E+04  0.11749077114E+04  0.00000000000E+00 0. -1.
          1    1    1    2  502    0 -0.69263008115E+02  0.45566951197E+02  0.11511478251E+04  0.11541295537E+04  0.00000000000E+00 0. -1.
         22    1    3    3    0    0  0.62634337899E+02 -0.10724201906E+03  0.46286460681E+02  0.13253809783E+03  0.00000000000E+00 0. -1.
         22    1    3    3    0    0 -0.49379652881E+02 -0.32469299701E+02  0.56074888368E+02  0.81467776741E+02  0.00000000000E+00 0. -1.
</event>
<event>
 7    1  0.6681656E-006  0.8236358E+02  0.7818608E-02  0.1328346E+00
          2   -1    0    0  502    0  0.00000000000E+00  0.00000000000E+00  0.18696131272E+03  0.18696131272E+03  0.00000000000E+00 0. -1.
          1   -1    0    0  501    0 -0.00000000000E+00 -0.00000000000E+00 -0.14232384988E+04  0.14232384988E+04  0.00000000000E+00 0. -1.
         25    2    1    2    0    0 -0.11927041247E+03  0.74776121191E+02 -0.23656148184E+03  0.30233000858E+03  0.12500079921E+03 0.  0.
          2    1    1    2  501    0  0.41290340963E+02 -0.69066639144E+02 -0.11423659769E+04  0.11451965413E+04  0.00000000000E+00 0. -1.
          1    1    1    2  502    0  0.77980071512E+02 -0.57094820477E+01  0.14265027273E+03  0.16267326162E+03  0.00000000000E+00 0. -1.
         22    1    3    3    0    0 -0.10087392170E+03  0.18151003681E+02 -0.66574307163E+02  0.12221761489E+03  0.00000000000E+00 0.  1.
         22    1    3    3    0    0 -0.18396490771E+02  0.56625117510E+02 -0.16998717468E+03  0.18011239369E+03  0.00000000000E+00 0.  1.
</event>
<event>
 7    1  0.6681656E-006  0.1155729E+03  0.7818608E-02  0.1404326E+00
          2   -1    0    0  502    0  0.00000000000E+00  0.00000000000E+00  0.29148375145E+04  0.29148375145E+04  0.00000000000E+00 0. -1.
          1   -1    0    0  501    0 -0.00000000000E+00 -0.00000000000E+00 -0.63336621846E+03  0.63336621846E+03  0.00000000000E+00 0. -1.
         25    2    1    2    0    0  0.76685066733E+02 -0.10632945475E+03 -0.47229020078E+02  0.18718866188E+03  0.12498984916E+03 0.  0.
          2    1    1    2  501    0  0.84499085223E+01  0.28358125759E+02 -0.51456095856E+03  0.51541106345E+03  0.00000000000E+00 0. -1.
          1    1    1    2  502    0 -0.85134975255E+02  0.77971328994E+02  0.28432612747E+04  0.28456040076E+04  0.00000000000E+00 0. -1.
         22    1    3    3    0    0  0.10269391455E+03 -0.63873608074E+02 -0.61110728595E+02  0.13550054997E+03  0.00000000000E+00 0.  1.
         22    1    3    3    0    0 -0.26008847812E+02 -0.42455846679E+02  0.13881708518E+02  0.51688111913E+02  0.00000000000E+00 0.  1.
</event>
<event>
 7    1  0.6681656E-006  0.1431925E+03  0.7818608E-02  0.1235392E+00
          2   -1    0    0  502    0  0.00000000000E+00  0.00000000000E+00  0.25215721839E+04  0.25215721839E+04  0.00000000000E+00 0. -1.
          1   -1    0    0  501    0 -0.00000000000E+00 -0.00000000000E+00 -0.29907814989E+03  0.29907814989E+03  0.00000000000E+00 0. -1.
         25    2    1    2    0    0 -0.34328012063E+02 -0.46956316367E+01  0.64457741087E+03  0.65749987388E+03  0.12500233673E+03 0.  0.
          2    1    1    2  501    0 -0.13957554643E+02 -0.14251062230E+03 -0.27166454589E+03  0.30709235792E+03  0.00000000000E+00 0. -1.
          1    1    1    2  502    0  0.48285566706E+02  0.14720625393E+03  0.18495811690E+04  0.18560581020E+04  0.00000000000E+00 0. -1.
         22    1    3    3    0    0 -0.51461391248E+02 -0.27224140507E+02  0.13353613917E+03  0.14567542374E+03  0.00000000000E+00 0. -1.
         22    1    3    3    0    0  0.17133379185E+02  0.22528508870E+02  0.51104127169E+03  0.51182445015E+03  0.00000000000E+00 0. -1.
</event>
<event>
 7    1  0.6681656E-006  0.2908651E+03  0.7818608E-02  0.1242261E+00
          2   -1    0    0  502    0  0.00000000000E+00  0.00000000000E+00  0.27786234863E+03  0.27786234863E+03  0.00000000000E+00 0. -1.
          1   -1    0    0  501    0 -0.00000000000E+00 -0.00000000000E+00 -0.75167743230E+03  0.75167743230E+03  0.00000000000E+00 0. -1.
         25    2    1    2    0    0  0.26285777094E+03 -0.12948352927E+03 -0.17215564160E+03  0.36210781214E+03  0.12499724228E+03 0.  0.
          2    1    1    2  501    0 -0.27322462770E+02 -0.41788348896E+02 -0.36583111489E+03  0.36922240953E+03  0.00000000000E+00 0. -1.
          1    1    1    2  502    0 -0.23553530818E+03  0.17127187817E+03  0.64171672820E+02  0.29820955927E+03  0.00000000000E+00 0. -1.
         22    1    3    3    0    0  0.19407287671E+03 -0.56172410981E+02 -0.16583269234E+03  0.26138114523E+03  0.00000000000E+00 0. -1.
         22    1    3    3    0    0  0.68784894232E+02 -0.73311118290E+02 -0.63229492611E+01  0.10072666691E+03  0.00000000000E+00 0. -1.
</event>
<event>
 7    1  0.6681656E-006  0.4774324E+02  0.7818608E-02  0.1563343E+00
          2   -1    0    0  502    0  0.00000000000E+00  0.00000000000E+00  0.38758256915E+03  0.38758256915E+03  0.00000000000E+00 0. -1.
          1   -1    0    0  501    0 -0.00000000000E+00 -0.00000000000E+00 -0.14749790352E+04  0.14749790352E+04  0.00000000000E+00 0. -1.
         25    2    1    2    0    0  0.46923931499E+02  0.31801502648E+02  0.19172789765E+03  0.23579532630E+03  0.12500663282E+03 0.  0.
          2    1    1    2  501    0 -0.46982973083E+02 -0.84441327540E+01 -0.14517665775E+04  0.14525511690E+04  0.00000000000E+00 0. -1.
          1    1    1    2  502    0  0.59041584245E-01 -0.23357369894E+02  0.17264221381E+03  0.17421510900E+03  0.00000000000E+00 0. -1.
         22    1    3    3    0    0  0.82754765028E+02 -0.76056443847E+01  0.10346189141E+03  0.13270478490E+03  0.00000000000E+00 0.  1.
         22    1    3    3    0    0 -0.35830833529E+02  0.39407147032E+02  0.88266006240E+02  0.10309054140E+03  0.00000000000E+00 0.  1.
</event>
<event>
 7    1  0.6681656E-006  0.1133130E+03  0.7818608E-02  0.1355091E+00
          2   -1    0    0  502    0  0.00000000000E+00  0.00000000000E+00  0.12130739807E+04  0.12130739807E+04  0.00000000000E+00 0. -1.
          1   -1    0    0  501    0 -0.00000000000E+00 -0.00000000000E+00 -0.23536247814E+04  0.23536247814E+04  0.00000000000E+00 0. -1.
         25    2    1    2    0    0  0.38555525205E+02 -0.92505013713E+02  0.21194310780E+03  0.26569872219E+03  0.12502889243E+03 0.  0.
          2    1    1    2  501    0 -0.38573352763E+02 -0.23381515914E+02 -0.23230811156E+04  0.23235189839E+04  0.00000000000E+00 0. -1.
          1    1    1    2  502    0  0.17827557588E-01  0.11588652963E+03  0.97058720718E+03  0.97748105599E+03  0.00000000000E+00 0. -1.
         22    1    3    3    0    0 -0.64870481295E+01 -0.70470019576E+02  0.20271574511E+03  0.21471324777E+03  0.00000000000E+00 0. -1.
         22    1    3    3    0    0  0.45042573335E+02 -0.22034994137E+02  0.92273626863E+01  0.50985474416E+02  0.00000000000E+00 0. -1.
</event>
<event>
 7    1  0.6681656E-006  0.6346965E+02  0.7818608E-02  0.1385933E+00
          2   -1    0    0  502    0  0.00000000000E+00  0.00000000000E+00  0.25417578700E+04  0.25417578700E+04  0.00000000000E+00 0. -1.
          1   -1    0    0  501    0 -0.00000000000E+00 -0.00000000000E+00 -0.28383539879E+04  0.28383539879E+04  0.00000000000E+00 0. -1.
         25    2    1    2    0    0 -0.45600223115E+02 -0.75734926370E+02 -0.32716041715E+03  0.36121184807E+03  0.12499960486E+03 0.  0.
          2    1    1    2  501    0  0.61571292567E+02  0.15419274582E+02 -0.24933784197E+04  0.24941861843E+04  0.00000000000E+00 0. -1.
          1    1    1    2  502    0 -0.15971069452E+02  0.60315651788E+02  0.25239427189E+04  0.25247138256E+04  0.00000000000E+00 0. -1.
         22    1    3    3    0    0 -0.73128232560E+02 -0.22975967013E+01 -0.18329983611E+03  0.19736222350E+03  0.00000000000E+00 0.  1.
         22    1    3    3    0    0  0.27528009445E+02 -0.73437329668E+02 -0.14386058104E+03  0.16384962457E+03  0.00000000000E+00 0.  1.
</event>
<event>
 7    1  0.6681656E-006  0.1531501E+03  0.7818608E-02  0.1273281E+00
          2   -1    0    0  502    0  0.00000000000E+00  0.00000000000E+00  0.66631043626E+03  0.66631043626E+03  0.00000000000E+00 0. -1.
          1   -1    0    0  501    0 -0.00000000000E+00 -0.00000000000E+00 -0.16568232047E+04  0.16568232047E+04  0.00000000000E+00 0. -1.
         25    2    1    2    0    0  0.74960315578E+02 -0.78060395707E+02  0.17525753742E+03  0.24093931071E+03  0.12499629087E+03 0.  0.
          2    1    1    2  501    0 -0.53506336904E+02  0.14450935555E+03 -0.16176391439E+04  0.16249622401E+04  0.00000000000E+00 0. -1.
          1    1    1    2  502    0 -0.21453978673E+02 -0.66448959839E+02  0.45186883804E+03  0.45723209014E+03  0.00000000000E+00 0. -1.
         22    1    3    3    0    0  0.55156718257E+02  0.21404038125E+02  0.38142729938E+02  0.70393637952E+02  0.00000000000E+00 0.  1.
         22    1    3    3    0    0  0.19803597321E+02 -0.99464433832E+02  0.13711480749E+03  0.17054567276E+03  0.00000000000E+00 0.  1.
</event>
<event>
 7    1  0.6681656E-006  0.4081233E+02  0.7818608E-02  0.1521557E+00
          2   -1    0    0  502    0  0.00000000000E+00  0.00000000000E+00  0.42841144165E+03  0.42841144165E+03  0.00000000000E+00 0. -1.
          1   -1    0    0  501    0 -0.00000000000E+00 -0.00000000000E+00 -0.15112424789E+04  0.15112424789E+04  0.00000000000E+00 0. -1.
         25    2    1    2    0    0 -0.96767353872E+01 -0.60365586673E+02 -0.26263164498E+03  0.29721787120E+03  0.12500175500E+03 0.  0.
          2    1    1    2  501    0  0.27906859512E+02  0.29514541961E+02 -0.12302010113E+04  0.12308714105E+04  0.00000000000E+00 0. -1.
          1    1    1    2  502    0 -0.18230124125E+02  0.30851044712E+02  0.41000161900E+03  0.41156463887E+03  0.00000000000E+00 0. -1.
         22    1    3    3    0    0 -0.50372134321E+02 -0.76160711825E+02 -0.20892797035E+03  0.22801031279E+03  0.00000000000E+00 0.  1.
         22    1    3    3    0    0  0.40695398934E+02  0.15795125152E+02 -0.53703674630E+02  0.69207558414E+02  0.00000000000E+00 0.  1.
</event>
<event>
 7    1  0.6681656E-006  0.6306844E+02  0.7818608E-02  0.1440376E+00
          2   -1    0    0  502    0  0.00000000000E+00  0.00000000000E+00  0.35940932685E+04  0.35940932685E+04  0.00000000000E+00 0. -1.
          1   -1    0    0  501    0 -0.00000000000E+00 -0.00000000000E+00 -0.29012530924E+02  0.29012530924E+02  0.00000000000E+00 0. -1.
         25    2    1    2    0    0 -0.66401143920E+02 -0.79059645364E+02  0.42826913012E+03  0.45792893502E+03  0.12499968909E+03 0.  0.
          2    1    1    2  501    0  0.24572353860E+02  0.32985133592E+02  0.16616608418E+02  0.44361371571E+02  0.00000000000E+00 0. -1.
          1    1    1    2  502    0  0.41828790060E+02  0.46074511771E+02  0.31201949990E+04  0.31208154928E+04  0.00000000000E+00 0. -1.
         22    1    3    3    0    0  0.23828216749E+02 -0.26713423140E+02  0.31520853568E+02  0.47696489378E+02  0.00000000000E+00 0. -1.
         22    1    3    3    0    0 -0.90229360669E+02 -0.52346222223E+02  0.39674827655E+03  0.41023244564E+03  0.00000000000E+00 0. -1.
</event>
<event>
 7    1  0.6681656E-006  0.6065450E+02  0.7818608E-02  0.1400004E+00
          2   -1    0    0  502    0  0.00000000000E+00  0.00000000000E+00  0.20053400531E+03  0.20053400531E+03  0.00000000000E+00 0. -1.
          1   -1    0    0  501    0 -0.00000000000E+00 -0.00000000000E+00 -0.16550623279E+04  0.16550623279E+04  0.00000000000E+00 0. -1.
         25    2    1    2    0    0 -0.92383059707E+02  0.71710914379E+02  0.61823277201E+02  0.18199894027E+03  0.12499764676E+03 0.  0.
          2    1    1    2  501    0  0.40726503536E+02 -0.44599360505E+02 -0.15834969530E+04  0.15846483368E+04  0.00000000000E+00 0. -1.
          1    1    1    2  502    0  0.51656556171E+02 -0.27111553874E+02  0.67145353175E+02  0.88949056217E+02  0.00000000000E+00 0. -1.
         22    1    3    3    0    0  0.65228728043E+01  0.34551146026E+02 -0.26707961176E+02  0.44154781751E+02  0.00000000000E+00 0. -1.
         22    1    3    3    0    0 -0.98905932512E+02  0.37159768353E+02  0.88531238376E+02  0.13784415852E+03  0.00000000000E+00 0. -1.
</event>
<event>
 7    1  0.6681656E-006  0.3277274E+02  0.7818608E-02  0.1626372E+00
          2   -1    0    0  502    0  0.00000000000E+00  0.00000000000E+00  0.12915664270E+04  0.12915664270E+04  0.00000000000E+00 0. -1.
          1   -1    0    0  501    0 -0.00000000000E+00 -0.00000000000E+00 -0.88017921148E+01  0.88017921148E+01  0.00000000000E+00 0. -1.
         25    2    1    2    0    0 -0.12629401863E+02 -0.10918975528E+02  0.67616089482E+03  0.68782080251E+03  0.12500069944E+03 0.  0.
          2    1    1    2  501    0  0.48037385255E+01 -0.22723719697E+02  0.52982508844E+02  0.57849715506E+02  0.00000000000E+00 0. -1.
          1    1    1    2  502    0  0.78256633372E+01  0.33642695225E+02  0.55362123126E+03  0.55469770114E+03  0.00000000000E+00 0. -1.
         22    1    3    3    0    0 -0.26166300587E+02 -0.62559861042E+02  0.46968450628E+03  0.47455447204E+03  0.00000000000E+00 0. -1.
         22    1    3    3    0    0  0.13536898724E+02  0.51640885514E+02  0.20647638855E+03  0.21326633047E+03  0.00000000000E+00 0. -1.
</event>
<event>
 7    1  0.6681656E-006  0.5273042E+02  0.7818608E-02  0.1487052E+00
          2   -1    0    0  502    0  0.00000000000E+00  0.00000000000E+00  0.28246981350E+03  0.28246981350E+03  0.00000000000E+00 0. -1.
          1   -1    0    0  501    0 -0.00000000000E+00 -0.00000000000E+00 -0.11206705196E+04  0.11206705196E+04  0.00000000000E+00 0. -1.
         25    2    1    2    0    0 -0.46757943451E+02 -0.22771348537E+02 -0.29391127431E+03  0.32359601051E+03  0.12500280502E+03 0.  0.
          2    1    1    2  501    0  0.22713314097E+02  0.48353708211E+02 -0.80988163410E+03  0.81164169249E+03  0.00000000000E+00 0. -1.
          1    1    1    2  502    0  0.24044629355E+02 -0.25582359674E+02  0.26559220227E+03  0.26790263014E+03  0.00000000000E+00 0. -1.
         22    1    3    3    0    0 -0.71292574193E+02  0.15473674472E+02 -0.24992621880E+03  0.26035587295E+03  0.00000000000E+00 0.  1.
         22    1    3    3    0    0  0.24534630742E+02 -0.38245023009E+02 -0.43985055509E+02  0.63240137561E+02  0.00000000000E+00 0.  1.
</event>
<event>
 7    1  0.6681656E-006  0.7862056E+02  0.7818608E-02  0.1477845E+00
          2   -1    0    0  502    0  0.00000000000E+00  0.00000000000E+00  0.15952152857E+04  0.15952152857E+04  0.00000000000E+00 0. -1.
          1   -1    0    0  501    0 -0.00000000000E+00 -0.00000000000E+00 -0.19815124156E+03  0.19815124156E+03  0.00000000000E+00 0. -1.
         25    2    1    2    0    0  0.22055321796E+01 -0.81482083096E+02  0.28959459721E+03  0.32578284864E+03  0.12500095797E+03 0.  0.
          2    1    1    2  501    0  0.22184209793E+02  0.75453780253E+02 -0.17133971760E+03  0.18852774583E+03  0.00000000000E+00 0. -1.
          1    1    1    2  502    0 -0.24389741973E+02  0.60283028430E+01  0.12788091645E+04  0.12790559328E+04  0.00000000000E+00 0. -1.
         22    1    3    3    0    0 -0.90755649078E+00 -0.30282518108E+01  0.22244922601E+03  0.22247168836E+03  0.00000000000E+00 0. -1.
         22    1    3    3    0    0  0.31130886704E+01 -0.78453831285E+02  0.67145371202E+02  0.10331116028E+03  0.00000000000E+00 0. -1.
</event>
<event>
 7    1  0.6681656E-006  0.7873841E+02  0.7818608E-02  0.1364929E+00
          2   -1    0    0  502    0  0.00000000000E+00  0.00000000000E+00  0.37844010613E+04  0.37844010613E+04  0.00000000000E+00 0. -1.
          1   -1    0    0  501    0 -0.00000000000E+00 -0.00000000000E+00 -0.22390533161E+03  0.22390533161E+03  0.00000000000E+00 0. -1.
         25    2    1    2    0    0  0.41483144036E+01  0.12409159688E+03  0.58272071176E+03  0.60877253571E+03  0.12499855758E+03 0.  0.
          2    1    1    2  501    0 -0.32247064404E+02 -0.71346951791E+02 -0.20332157953E+03  0.21787594037E+03  0.00000000000E+00 0. -1.
          1    1    1    2  502    0  0.28098750000E+02 -0.52744645092E+02  0.31810965974E+04  0.31816579168E+04  0.00000000000E+00 0. -1.
         22    1    3    3    0    0  0.26265027432E+02  0.70177812171E+02  0.11386019089E+03  0.13630451224E+03  0.00000000000E+00 0. -1.
         22    1    3    3    0    0 -0.22116713028E+02  0.53913784712E+02  0.46886052087E+03  0.47246802348E+03  0.00000000000E+00 0. -1.
</event>
<event>
 7    1  0.6681656E-006  0.4505994E+02  0.7818608E-02  0.1522630E+00
          2   -1    0    0  502    0  0.00000000000E+00  0.00000000000E+00  0.11751793055E+04  0.11751793055E+04  0.00000000000E+00 0. -1.
          1   -1    0    0  501    0 -0.00000000000E+00 -0.00000000000E+00 -0.33569099797E+02  0.33569099797E+02  0.00000000000E+00 0. -1.
         25    2    1    2    0    0 -0.13919534797E+02  0.25693739832E+02  0.64615338549E+03  0.65878094845E+03  0.12499687496E+03 0.  0.
          2    1    1    2  501    0 -0.12589295739E+02 -0.44017310226E+02 -0.71425420001E+01  0.46336053705E+02  0.00000000000E+00 0. -1.
          1    1    1    2  502    0  0.26508830536E+02  0.18323570394E+02  0.50259936218E+03  0.50363140311E+03  0.00000000000E+00 0. -1.
         22    1    3    3    0    0  0.35120890021E+02  0.42761593166E+02  0.51113999728E+03  0.51412656767E+03  0.00000000000E+00 0.  1.
         22    1    3    3    0    0 -0.49040424818E+02 -0.17067853334E+02  0.13501338821E+03  0.14465438078E+03  0.00000000000E+00 0.  1.
</event>
<event>
 7    1  0.6681656E-006  0.5739955E+02  0.7818608E-02  0.1483068E+00
          2   -1    0    0  502    0  0.00000000000E+00  0.00000000000E+00  0.32113996567E+03  0.32113996567E+03  0.00000000000E+00 0. -1.
          1   -1    0    0  501    0 -0.00000000000E+00 -0.00000000000E+00 -0.18317780036E+04  0.18317780036E+04  0.00000000000E+00 0. -1.
         25    2    1    2    0    0  0.50932403597E+02  0.62100842650E+02  0.83628721352E+02  0.17049619170E+03  0.12499825581E+03 0.  0.
          2    1    1    2  501    0 -0.49479385595E+02 -0.28966232534E+02 -0.17864640216E+04  0.17873838292E+04  0.00000000000E+00 0. -1.
          1    1    1    2  502    0 -0.14530180018E+01 -0.33134610116E+02  0.19219726236E+03  0.19503794838E+03  0.00000000000E+00 0. -1.
         22    1    3    3    0    0  0.27187443626E+02 -0.15693684378E+02  0.83449166047E+02  0.89158354260E+02  0.00000000000E+00 0. -1.
         22    1    3    3    0    0  0.23744959971E+02  0.77794527028E+02  0.17955530423E+00  0.81337837442E+02  0.00000000000E+00 0. -1.
</event>
<event>
 7    1  0.6681656E-006  0.7848233E+02  0.7818608E-02  0.1383873E+00
          2   -1    0    0  502    0  0.00000000000E+00  0.00000000000E+00  0.33127512799E+04  0.33127512799E+04  0.00000000000E+00 0. -1.
          1   -1    0    0  501    0 -0.00000000000E+00 -0.00000000000E+00 -0.84511569642E+03  0.84511569642E+03  0.00000000000E+00 0. -1.
         25    2    1    2    0    0  0.44117203575E+02  0.12011187772E+03 -0.55711685261E+01  0.17896653972E+03  0.12499917440E+03 0.  0.
          2    1    1    2  501    0 -0.26622559062E+02 -0.43859902327E+02 -0.75149769999E+03  0.75324713393E+03  0.00000000000E+00 0. -1.
          1    1    1    2  502    0 -0.17494644513E+02 -0.76251975391E+02  0.32247044520E+04  0.32256533027E+04  0.00000000000E+00 0. -1.
         22    1    3    3    0    0 -0.59005218931E+01 -0.53621635947E+01 -0.39007309097E+02  0.39813805646E+02  0.00000000000E+00 0.  1.
         22    1    3    3    0    0  0.50017725468E+02  0.12547404131E+03  0.33436140571E+02  0.13915273408E+03  0.00000000000E+00 0.  1.
</event>
<event>
 7    1  0.6681656E-006  0.9825066E+02  0.7818608E-02  0.1284286E+00
          2   -1    0    0  502    0  0.00000000000E+00  0.00000000000E+00  0.36185537969E+03  0.36185537969E+03  0.00000000000E+00 0. -1.
          1   -1    0    0  501    0 -0.00000000000E+00 -0.00000000000E+00 -0.10857098512E+04  0.10857098512E+04  0.00000000000E+00 0. -1.
         25    2    1    2    0    0 -0.23373079056E+02  0.52384093464E+02 -0.25703777967E+03  0.29152104098E+03  0.12500281230E+03 0.  0.
          2    1    1    2  501    0 -0.65898066912E+02 -0.92819632005E+02 -0.80035322835E+03  0.80840789794E+03  0.00000000000E+00 0. -1.
          1    1    1    2  502    0  0.89271145968E+02  0.40435538541E+02  0.33353653654E+03  0.34763629196E+03  0.00000000000E+00 0. -1.
         22    1    3    3    0    0 -0.43930318876E+01  0.30922064456E+02  0.16264859065E+01  0.31274882187E+02  0.00000000000E+00 0.  1.
         22    1    3    3    0    0 -0.18980047168E+02  0.21462029008E+02 -0.25866426558E+03  0.26024615880E+03  0.00000000000E+00 0.  1.
</event>
<event>
 7    1  0.6681656E-006  0.7945466E+02  0.7818608E-02  0.1504466E+00
          2   -1    0    0  502    0  0.00000000000E+00  0.00000000000E+00  0.10629744183E+03  0.10629744183E+03  0.00000000000E+00 0. -1.
          1   -1    0    0  501    0 -0.00000000000E+00 -0.00000000000E+00 -0.21422904323E+04  0.21422904323E+04  0.00000000000E+00 0. -1.
         25    2    1    2    0    0 -0.34844583085E+02  0.91291414771E+02 -0.58548233880E+03  0.60659971699E+03  0.12500152089E+03 0.  0.
          2    1    1    2  501    0 -0.45567560665E+00 -0.20652610161E+02 -0.15298840412E+04  0.15300235023E+04  0.00000000000E+00 0. -1.
          1    1    1    2  502    0  0.35300258692E+02 -0.70638804610E+02  0.79373389519E+02  0.11196465489E+03  0.00000000000E+00 0. -1.
         22    1    3    3    0    0 -0.60071333528E+02  0.25286316071E+02 -0.44070779874E+03  0.44550120849E+03  0.00000000000E+00 0.  1.
         22    1    3    3    0    0  0.25226750443E+02  0.66005098700E+02 -0.14477454006E+03  0.16109850850E+03  0.00000000000E+00 0.  1.
</event>
<event>
 7    1  0.6681656E-006  0.1357991E+03  0.7818608E-02  0.1375288E+00
          2   -1    0    0  502    0  0.00000000000E+00  0.00000000000E+00  0.15265748925E+04  0.15265748925E+04  0.00000000000E+00 0. -1.
          1   -1    0    0  501    0 -0.00000000000E+00 -0.00000000000E+00 -0.32448242720E+03  0.32448242720E+03  0.00000000000E+00 0. -1.
         25    2    1    2    0    0 -0.15908400327E+03 -0.10931243489E+02  0.19354409750E+03  0.28019927517E+03  0.12500041578E+03 0.  0.
          2    1    1    2  501    0  0.25343601062E+02  0.19214437309E+02 -0.27676121588E+03  0.27858259697E+03  0.00000000000E+00 0. -1.
          1    1    1    2  502    0  0.13374040221E+03 -0.82831938198E+01  0.12853095837E+04  0.12922754476E+04  0.00000000000E+00 0. -1.
         22    1    3    3    0    0 -0.17593668400E+03  0.34358266084E+01  0.14950391212E+03  0.23090461542E+03  0.00000000000E+00 0.  1.
         22    1    3    3    0    0  0.16852680734E+02 -0.14367070097E+02  0.44040185382E+02  0.49294659747E+02  0.00000000000E+00 0.  1.
</event>
<event>
 7    1  0.6681656E-006  0.1069778E+03  0.7818608E-02  0.1368667E+00
          2   -1    0    0  502    0  0.00000000000E+00  0.00000000000E+00  0.11604785672E+04  0.11604785672E+04  0.00000000000E+00 0. -1.
          1   -1    0    0  501    0 -0.00000000000E+00 -0.00000000000E+00 -0.21343766317E+03  0.21343766317E+03  0.00000000000E+00 0. -1.
         25    2    1    2    0    0  0.97319067442E+02 -0.18500682532E+02  0.15014490485E+03  0.21904530845E+03  0.12499631418E+03 0.  0.
          2    1    1    2  501    0 -0.89885510742E+02  0.60487742980E+02 -0.16207495054E+03  0.19495246006E+03  0.00000000000E+00 0. -1.
          1    1    1    2  502    0 -0.74335566999E+01 -0.41987060448E+02  0.95897094969E+03  0.95991846182E+03  0.00000000000E+00 0. -1.
         22    1    3    3    0    0  0.65203469427E+02 -0.43454923741E+02  0.15914605520E+03  0.17739021875E+03  0.00000000000E+00 0. -1.
         22    1    3    3    0    0  0.32115598015E+02  0.24954241209E+02 -0.90011503496E+01  0.41655089699E+02  0.00000000000E+00 0. -1.
</event>
<event>
 7    1  0.6681656E-006  0.2872054E+03  0.7818608E-02  0.1237668E+00
          2   -1    0    0  502    0  0.00000000000E+00  0.00000000000E+00  0.17751518845E+04  0.17751518845E+04  0.00000000000E+00 0. -1.
          1   -1    0    0  501    0 -0.00000000000E+00 -0.00000000000E+00 -0.68265363696E+03  0.68265363696E+03  0.00000000000E+00 0. -1.
         25    2    1    2    0    0  0.32834924750E+02  0.27561176088E+03  0.72136949585E+03  0.78296817804E+03  0.12500097309E+03 0.  0.
          2    1    1    2  501    0  0.52446115608E+02  0.74901580208E+01 -0.62935420335E+03  0.63158009056E+03  0.00000000000E+00 0. -1.
          1    1    1    2  502    0 -0.85281040358E+02 -0.28310191890E+03  0.10004829551E+04  0.10432572529E+04  0.00000000000E+00 0. -1.
         22    1    3    3    0    0 -0.38995067312E+02  0.39702589708E+02  0.99801047287E+02  0.11426793051E+03  0.00000000000E+00 0. -1.
         22    1    3    3    0    0  0.71829992062E+02  0.23590917117E+03  0.62156844856E+03  0.66870024753E+03  0.00000000000E+00 0. -1.
</event>
<event>
 7    1  0.6681656E-006  0.9963701E+02  0.7818608E-02  0.1283884E+00
          2   -1    0    0  502    0  0.00000000000E+00  0.00000000000E+00  0.47078108193E+03  0.47078108193E+03  0.00000000000E+00 0. -1.
          1   -1    0    0  501    0 -0.00000000000E+00 -0.00000000000E+00 -0.12672784405E+04  0.12672784405E+04  0.00000000000E+00 0. -1.
         25    2    1    2    0    0 -0.70835708121E+02 -0.56451875951E+02  0.13919795415E+03  0.20784554030E+03  0.12497674320E+03 0.  0.
          2    1    1    2  501    0  0.79215007672E+02 -0.55993190439E+02 -0.12202673116E+04  0.12241170559E+04  0.00000000000E+00 0. -1.
          1    1    1    2  502    0 -0.83792995511E+01  0.11244506639E+03  0.28457199894E+03  0.30609692615E+03  0.00000000000E+00 0. -1.
         22    1    3    3    0    0 -0.81508704369E+02 -0.88470664221E+02  0.11394556200E+03  0.16569344711E+03  0.00000000000E+00 0. -1.
         22    1    3    3    0    0  0.10672996248E+02  0.32018788270E+02  0.25252392155E+02  0.42152093195E+02  0.00000000000E+00 0. -1.
</event>
<event>
 7    1  0.6681656E-006  0.9048155E+02  0.7818608E-02  0.1366876E+00
          2   -1    0    0  502    0  0.00000000000E+00  0.00000000000E+00  0.36624289382E+03  0.36624289382E+03  0.00000000000E+00 0. -1.
          1   -1    0    0  501    0 -0.00000000000E+00 -0.00000000000E+00 -0.34926725715E+03  0.34926725715E+03  0.00000000000E+00 0. -1.
         25    2    1    2    0    0  0.29912523396E+02 -0.77881545802E+02  0.11824186206E+03  0.19122202409E+03  0.12499772127E+03 0.  0.
          2    1    1    2  501    0  0.19998187878E+02  0.89161479834E+02 -0.30283774199E+03  0.31632324445E+03  0.00000000000E+00 0. -1.
          1    1    1    2  502    0 -0.49910711274E+02 -0.11279934032E+02  0.20157151661E+03  0.20796488242E+03  0.00000000000E+00 0. -1.
         22    1    3    3    0    0 -0.32369265238E+02 -0.80874645758E+02  0.58990125886E+02  0.10520604836E+03  0.00000000000E+00 0. -1.
         22    1    3    3    0    0  0.62281788634E+02  0.29930999560E+01  0.59251736173E+02  0.86015975739E+02  0.00000000000E+00 0. -1.
</event>
<event>
 7    1  0.6681656E-006  0.4093377E+02  0.7818608E-02  0.1553907E+00
          2   -1    0    0  502    0  0.00000000000E+00  0.00000000000E+00  0.15354313361E+04  0.15354313361E+04  0.00000000000E+00 0. -1.
          1   -1    0    0  501    0 -0.00000000000E+00 -0.00000000000E+00 -0.11905375185E+03  0.11905375185E+03  0.00000000000E+00 0. -1.
         25    2    1    2    0    0  0.33732705532E+02 -0.17185887430E+02  0.46065175328E+03  0.47881055843E+03  0.12500505155E+03 0.  0.
          2    1    1    2  501    0  0.62662868967E+01  0.28238390560E+02 -0.10766064819E+03  0.11147864469E+03  0.00000000000E+00 0. -1.
          1    1    1    2  502    0 -0.39998992429E+02 -0.11052503131E+02  0.10633864792E+04  0.10641958848E+04  0.00000000000E+00 0. -1.
         22    1    3    3    0    0 -0.57357584292E+00  0.29995244497E+02  0.24385046760E+02  0.38661016375E+02  0.00000000000E+00 0. -1.
         22    1    3    3    0    0  0.34306281375E+02 -0.47181131926E+02  0.43626670652E+03  0.44014954205E+03  0.00000000000E+00 0. -1.
</event>
<event>
 7    1  0.6681656E-006  0.7009763E+02  0.7818608E-02  0.1464961E+00
          2   -1    0    0  502    0  0.00000000000E+00  0.00000000000E+00  0.19471833156E+04  0.19471833156E+04  0.00000000000E+00 0. -1.
          1   -1    0    0  501    0 -0.00000000000E+00 -0.00000000000E+00 -0.37458225529E+03  0.37458225529E+03  0.00000000000E+00 0. -1.
         25    2    1    2    0    0 -0.33783911088E+02  0.82521748921E+02  0.52570000873E+03  0.54766505220E+03  0.12500127410E+03 0.  0.
          2    1    1    2  501    0  0.56382204896E+01 -0.69776559524E+02 -0.36005908414E+03  0.36680117483E+03  0.00000000000E+00 0. -1.
          1    1    1    2  502    0  0.28145690598E+02 -0.12745189398E+02  0.14069601358E+04  0.14072993439E+04  0.00000000000E+00 0. -1.
         22    1    3    3    0    0 -0.64048831119E+02  0.99802007269E+02  0.41475795347E+03  0.43137785455E+03  0.00000000000E+00 0.  1.
         22    1    3    3    0    0  0.30264920032E+02 -0.17280258347E+02  0.11094205526E+03  0.11628719765E+03  0.00000000000E+00 0.  1.
</event>
<event>
 7    1  0.6681656E-006  0.9503847E+02  0.7818608E-02  0.1372910E+00
          2   -1    0    0  502    0  0.00000000000E+00  0.00000000000E+00  0.23161076854E+03  0.23161076854E+03  0.00000000000E+00 0. -1.
          1   -1    0    0  501    0 -0.00000000000E+00 -0.00000000000E+00 -0.10522263628E+04  0.10522263628E+04  0.00000000000E+00 0. -1.
         25    2    1    2    0    0 -0.10905760184E+03 -0.22791836291E+01 -0.13667016502E+03  0.21494728985E+03  0.12499939284E+03 0.  0.
          2    1    1    2  501    0  0.22400257146E+02  0.40568593073E+02 -0.86410074415E+03  0.86534252080E+03  0.00000000000E+00 0. -1.
          1    1    1    2  502    0  0.86657344694E+02 -0.38289409444E+02  0.18015531492E+03  0.20354732068E+03  0.00000000000E+00 0. -1.
         22    1    3    3    0    0 -0.49279692488E+02 -0.48659403296E+02 -0.13748141566E+02  0.70606210898E+02  0.00000000000E+00 0. -1.
         22    1    3    3    0    0 -0.59777909353E+02  0.46380219667E+02 -0.12292202346E+03  0.14434107896E+03  0.00000000000E+00 0. -1.
</event>
<event>
 7    1  0.6681656E-006  0.5139708E+03  0.7818608E-02  0.1147023E+00
          2   -1    0    0  502    0  0.00000000000E+00  0.00000000000E+00  0.28686758850E+04  0.28686758850E+04  0.00000000000E+00 0. -1.
          1   -1    0    0  501    0 -0.00000000000E+00 -0.00000000000E+00 -0.15149222550E+04  0.15149222550E+04  0.00000000000E+00 0. -1.
         25    2    1    2    0    0  0.43133270629E+03 -0.11149557354E+03  0.33807917340E+03  0.57306338211E+03  0.12499978398E+03 0.  0.
          2    1    1    2  501    0 -0.51119398252E+03  0.10239452884E+03 -0.13480975947E+04  0.14453965034E+04  0.00000000000E+00 0. -1.
          1    1    1    2  502    0  0.79861276233E+02  0.91010446912E+01  0.23637720512E+04  0.23651382545E+04  0.00000000000E+00 0. -1.
         22    1    3    3    0    0  0.30226993954E+03 -0.17224479533E+02  0.22764968009E+03  0.37879833142E+03  0.00000000000E+00 0. -1.
         22    1    3    3    0    0  0.12906276676E+03 -0.94271094003E+02  0.11042949332E+03  0.19426505070E+03  0.00000000000E+00 0. -1.
</event>
<event>
 7    1  0.6681656E-006  0.1126468E+03  0.7818608E-02  0.1337730E+00
          2   -1    0    0  502    0  0.00000000000E+00  0.00000000000E+00  0.87637926868E+03  0.87637926868E+03  0.00000000000E+00 0. -1.
          1   -1    0    0  501    0 -0.00000000000E+00 -0.00000000000E+00 -0.65239719484E+03  0.65239719484E+03  0.00000000000E+00 0. -1.
         25    2    1    2    0    0 -0.78456160058E+02  0.43478710423E+02  0.52043493950E+02  0.16241880324E+03  0.12500230026E+03 0.  0.
          2    1    1    2  501    0  0.11418488294E+03 -0.47937906950E+01 -0.59082582871E+03  0.60177763982E+03  0.00000000000E+00 0. -1.
          1    1    1    2  502    0 -0.35728722884E+02 -0.38684919728E+02  0.76276440860E+03  0.76458002046E+03  0.00000000000E+00 0. -1.
         22    1    3    3    0    0 -0.68651571499E+02 -0.24744430132E+02  0.58030033245E+02  0.93235239316E+02  0.00000000000E+00 0.  1.
         22    1    3    3    0    0 -0.98045885590E+01  0.68223140555E+02 -0.59865392952E+01  0.69183563921E+02  0.00000000000E+00 0.  1.
</event>
<event>
 7    1  0.6681656E-006  0.5596055E+02  0.7818608E-02  0.1421445E+00
          2   -1    0    0  502    0  0.00000000000E+00  0.00000000000E+00  0.50206802976E+03  0.50206802976E+03  0.00000000000E+00 0. -1.
          1   -1    0    0  501    0 -0.00000000000E+00 -0.00000000000E+00 -0.98283776132E+02  0.98283776132E+02  0.00000000000E+00 0. -1.
         25    2    1    2    0    0 -0.19094028984E+02  0.44297435375E+02  0.23198516247E+03  0.26789881035E+03  0.12500324898E+03 0.  0.
          2    1    1    2  501    0 -0.39808657130E+02 -0.39330060864E+02 -0.66510951972E+02  0.86921168896E+02  0.00000000000E+00 0. -1.
          1    1    1    2  502    0  0.58902686114E+02 -0.49673745108E+01  0.23831004313E+03  0.24553182665E+03  0.00000000000E+00 0. -1.
         22    1    3    3    0    0 -0.32801403486E+02  0.21038857093E+02  0.23721934967E+03  0.24039880498E+03  0.00000000000E+00 0. -1.
         22    1    3    3    0    0  0.13707374502E+02  0.23258578282E+02 -0.52341871998E+01  0.27500005365E+02  0.00000000000E+00 0. -1.
</event>
<event>
 7    1  0.6681656E-006  0.1130763E+03  0.7818608E-02  0.1291059E+00
          2   -1    0    0  502    0  0.00000000000E+00  0.00000000000E+00  0.59876790995E+03  0.59876790995E+03  0.00000000000E+00 0. -1.
          1   -1    0    0  501    0 -0.00000000000E+00 -0.00000000000E+00 -0.18404599646E+04  0.18404599646E+04  0.00000000000E+00 0. -1.
         25    2    1    2    0    0  0.11016021074E+03 -0.22997842383E+02 -0.29086077368E+03  0.33598897667E+03  0.12499771996E+03 0.  0.
          2    1    1    2  501    0 -0.42082521917E+02 -0.67920122034E+02 -0.15203785934E+04  0.15224766497E+04  0.00000000000E+00 0. -1.
          1    1    1    2  502    0 -0.68077688821E+02  0.90917964417E+02  0.56954731236E+03  0.58076224824E+03  0.00000000000E+00 0. -1.
         22    1    3    3    0    0 -0.17573109237E+02  0.25251891441E+02 -0.41068363456E+02  0.51313571953E+02  0.00000000000E+00 0.  1.
         22    1    3    3    0    0  0.12773331997E+03 -0.48249733824E+02 -0.24979241023E+03  0.28467540472E+03  0.00000000000E+00 0.  1.
</event>
<event>
 7    1  0.6681656E-006  0.1098150E+03  0.7818608E-02  0.1377242E+00
          2   -1    0    0  502    0  0.00000000000E+00  0.00000000000E+00  0.20046081768E+04  0.20046081768E+04  0.00000000000E+00 0. -1.
          1   -1    0    0  501    0 -0.00000000000E+00 -0.00000000000E+00 -0.69948557142E+02  0.69948557142E+02  0.00000000000E+00 0. -1.
         25    2    1    2    0    0 -0.13786491325E+03 -0.27621901693E+02  0.45171573912E+03  0.48932897766E+03  0.12500414254E+03 0.  0.
          2    1    1    2  501    0  0.31060915951E+02  0.23091805093E+02 -0.41669404322E+02  0.56871356751E+02  0.00000000000E+00 0. -1.
          1    1    1    2  502    0  0.10680399730E+03  0.45300966002E+01  0.15246132849E+04  0.15283563996E+04  0.00000000000E+00 0. -1.
         22    1    3    3    0    0 -0.22379674489E+02  0.43435706639E+02  0.16650648348E+03  0.17352786370E+03  0.00000000000E+00 0. -1.
         22    1    3    3    0    0 -0.11548523876E+03 -0.71057608332E+02  0.28520925565E+03  0.31580111396E+03  0.00000000000E+00 0. -1.
</event>
<event>
 7    1  0.6681656E-006  0.1331676E+03  0.7818608E-02  0.1298246E+00
          2   -1    0    0  502    0  0.00000000000E+00  0.00000000000E+00  0.13137105434E+04  0.13137105434E+04  0.00000000000E+00 0. -1.
          1   -1    0    0  501    0 -0.00000000000E+00 -0.00000000000E+00 -0.59169497241E+03  0.59169497241E+03  0.00000000000E+00 0. -1.
         25    2    1    2    0    0  0.14837985535E+03 -0.10527193200E+03  0.31186327329E+03  0.38207680491E+03  0.12500088993E+03 0.  0.
          2    1    1    2  501    0 -0.12361396966E+03  0.46842525124E+02 -0.54767435842E+03  0.56340202212E+03  0.00000000000E+00 0. -1.
          1    1    1    2  502    0 -0.24765885688E+02  0.58429406877E+02  0.95782665608E+03  0.95992668875E+03  0.00000000000E+00 0. -1.
         22    1    3    3    0    0  0.16283743725E+03 -0.10193914571E+03  0.31293637285E+03  0.36720129882E+03  0.00000000000E+00 0. -1.
         22    1    3    3    0    0 -0.14457581905E+02 -0.33327862904E+01 -0.10730995588E+01  0.14875506098E+02  0.00000000000E+00 0. -1.
</event>
<event>
 7    1  0.6681656E-006  0.2834342E+02  0.7818608E-02  0.1632975E+00
          2   -1    0    0  502    0  0.00000000000E+00  0.00000000000E+00  0.24741169847E+03  0.24741169847E+03  0.00000000000E+00 0. -1.
          1   -1    0    0  501    0 -0.00000000000E+00 -0.00000000000E+00 -0.15746159522E+03  0.15746159522E+03  0.00000000000E+00 0. -1.
         25    2    1    2    0    0  0.22357791703E+02 -0.44422976852E+02  0.15282942088E+03  0.20361449461E+03  0.12501503432E+03 0.  0.
          2    1    1    2  501    0 -0.23207212706E+01  0.28094441646E+02 -0.12806737867E+03  0.13113327907E+03  0.00000000000E+00 0. -1.
          1    1    1    2  502    0 -0.20037070433E+02  0.16328535206E+02  0.65188061043E+02  0.70125520005E+02  0.00000000000E+00 0. -1.
         22    1    3    3    0    0  0.43670441434E+02 -0.74368751974E+02  0.14047811955E+03  0.16483907545E+03  0.00000000000E+00 0.  1.
         22    1    3    3    0    0 -0.21312649730E+02  0.29945775121E+02  0.12351301338E+02  0.38775419158E+02  0.00000000000E+00 0.  1.
</event>
<event>
 7    1  0.6681656E-006  0.1090910E+03  0.7818608E-02  0.1308671E+00
          2   -1    0    0  502    0  0.00000000000E+00  0.00000000000E+00  0.14072751570E+04  0.14072751570E+04  0.00000000000E+00 0. -1.
          1   -1    0    0  501    0 -0.00000000000E+00 -0.00000000000E+00 -0.17652961070E+04  0.17652961070E+04  0.00000000000E+00 0. -1.
         25    2    1    2    0    0 -0.82930039484E+02  0.15056059483E+03  0.19858910386E+03  0.29087496891E+03  0.12499892480E+03 0.  0.
          2    1    1    2  501    0  0.72544173260E+02 -0.80924976004E+02 -0.17163669153E+04  0.17198043194E+04  0.00000000000E+00 0. -1.
          1    1    1    2  502    0  0.10385866224E+02 -0.69635618829E+02  0.11597568615E+04  0.11618919758E+04  0.00000000000E+00 0. -1.
         22    1    3    3    0    0 -0.42496003883E+02  0.15332219955E+03  0.19274352680E+03  0.24992733813E+03  0.00000000000E+00 0.  1.
         22    1    3    3    0    0 -0.40434035601E+02 -0.27616047152E+01  0.58455770608E+01  0.40947630783E+02  0.00000000000E+00 0.  1.
</event>
<event>
 7    1  0.6681656E-006  0.7281699E+02  0.7818608E-02  0.1503327E+00
          2   -1    0    0  502    0  0.00000000000E+00  0.00000000000E+00  0.27419146492E+03  0.27419146492E+03  0.00000000000E+00 0. -1.
          1   -1    0    0  501    0 -0.00000000000E+00 -0.00000000000E+00 -0.75861581311E+02  0.75861581311E+02  0.00000000000E+00 0. -1.
         25    2    1    2    0    0 -0.75539302197E+02  0.98428323081E+01  0.21176927467E+02  0.14790630374E+03  0.12499897962E+03 0.  0.
          2    1    1    2  501    0  0.38522838747E+01 -0.22387903861E+02  0.26991209468E+02  0.35278658122E+02  0.00000000000E+00 0. -1.
          1    1    1    2  502    0  0.71687018322E+02  0.12545071553E+02  0.15016174667E+03  0.16686808437E+03  0.00000000000E+00 0. -1.
         22    1    3    3    0    0 -0.15796834113E+02 -0.38454997403E+02 -0.33682997695E+02  0.53505804610E+02  0.00000000000E+00 0.  1.
         22    1    3    3    0    0 -0.59742468084E+02  0.48297829711E+02  0.54859925163E+02  0.94400499132E+02  0.00000000000E+00 0.  1.
</event>
<event>
 7    1  0.6681656E-006  0.6520250E+02  0.7818608E-02  0.1514800E+00
          2   -1    0    0  502    0  0.00000000000E+00  0.00000000000E+00  0.10159143634E+04  0.10159143634E+04  0.00000000000E+00 0. -1.
          1   -1    0    0  501    0 -0.00000000000E+00 -0.00000000000E+00 -0.31765384928E+02  0.31765384928E+02  0.00000000000E+00 0. -1.
         25    2    1    2    0    0 -0.40959527834E+01  0.75203130066E+02  0.33812588284E+03  0.36827363082E+03  0.12499626759E+03 0.  0.
          2    1    1    2  501    0 -0.15334519838E+02 -0.62040122746E+02  0.45560216766E+02  0.78484760818E+02  0.00000000000E+00 0. -1.
          1    1    1    2  502    0  0.19430472622E+02 -0.13163007321E+02  0.60046287888E+03  0.60092135670E+03  0.00000000000E+00 0. -1.
         22    1    3    3    0    0  0.21605910369E+01  0.57258034138E+02  0.34371977994E+03  0.34846296468E+03  0.00000000000E+00 0. -1.
         22    1    3    3    0    0 -0.62565438203E+01  0.17945095929E+02 -0.55938971006E+01  0.19810666148E+02  0.00000000000E+00 0. -1.
</event>
<event>
 7    1  0.6681656E-006  0.2417274E+03  0.7818608E-02  0.1279112E+00
          2   -1    0    0  502    0  0.00000000000E+00  0.00000000000E+00  0.24243056247E+04  0.24243056247E+04  0.00000000000E+00 0. -1.
          1   -1    0    0  501    0 -0.00000000000E+00 -0.00000000000E+00 -0.23601918585E+04  0.23601918585E+04  0.00000000000E+00 0. -1.
         25    2    1    2    0    0 -0.25141359265E+02  0.26593665020E+03 -0.46360251241E+03  0.54946073945E+03  0.12500169926E+03 0.  0.
          2    1    1    2  501    0 -0.28591281513E+02 -0.30544053272E+02 -0.18473026869E+04  0.18477763982E+04  0.00000000000E+00 0. -1.
          1    1    1    2  502    0  0.53732640778E+02 -0.23539259693E+03  0.23750189654E+04  0.23872603456E+04  0.00000000000E+00 0. -1.
         22    1    3    3    0    0  0.38350584069E+02  0.16204863455E+03 -0.20887957043E+03  0.26713517590E+03  0.00000000000E+00 0.  1.
         22    1    3    3    0    0 -0.63491943335E+02  0.10388801565E+03 -0.25472294198E+03  0.28232556356E+03  0.00000000000E+00 0.  1.
</event>
<event>
 7    1  0.6681656E-006  0.2468773E+02  0.7818608E-02  0.1695899E+00
          2   -1    0    0  502    0  0.00000000000E+00  0.00000000000E+00  0.60479009413E+03  0.60479009413E+03  0.00000000000E+00 0. -1.
          1   -1    0    0  501    0 -0.00000000000E+00 -0.00000000000E+00 -0.90147341268E+02  0.90147341268E+02  0.00000000000E+00 0. -1.
         25    2    1    2    0    0  0.21150589294E+02 -0.39178545277E+02  0.34733890310E+03  0.37182178007E+03  0.12499926676E+03 0.  0.
          2    1    1    2  501    0 -0.82245164947E+01  0.19246788267E+02 -0.75910852276E+02  0.78743501468E+02  0.00000000000E+00 0. -1.
          1    1    1    2  502    0 -0.12926072799E+02  0.19931757011E+02  0.24321470204E+03  0.24437215386E+03  0.00000000000E+00 0. -1.
         22    1    3    3    0    0  0.54625547311E+02 -0.33572170728E+02  0.32482455746E+03  0.33109218383E+03  0.00000000000E+00 0.  1.
         22    1    3    3    0    0 -0.33474958017E+02 -0.56063745494E+01  0.22514345638E+02  0.40729596233E+02  0.00000000000E+00 0.  1.
</event>
<event>
 7    1  0.6681656E-006  0.4991376E+02  0.7818608E-02  0.1487203E+00
          2   -1    0    0  502    0  0.00000000000E+00  0.00000000000E+00  0.28734353807E+03  0.28734353807E+03  0.00000000000E+00 0. -1.
          1   -1    0    0  501    0 -0.00000000000E+00 -0.00000000000E+00 -0.67116434027E+03  0.67116434027E+03  0.00000000000E+00 0. -1.
         25    2    1    2    0    0 -0.79836479724E+02 -0.21753013458E+02 -0.91157578665E+02  0.17544361020E+03  0.12499479638E+03 0.  0.
          2    1    1    2  501    0  0.30493753161E+02  0.21044106009E+02 -0.53473335385E+03  0.53601537581E+03  0.00000000000E+00 0. -1.
          1    1    1    2  502    0  0.49342726563E+02  0.70890744907E+00  0.24207013032E+03  0.24704889234E+03  0.00000000000E+00 0. -1.
         22    1    3    3    0    0 -0.11412261129E+02  0.44077816516E+02 -0.60393521413E+02  0.75633795631E+02  0.00000000000E+00 0. -1.
         22    1    3    3    0    0 -0.68424218595E+02 -0.65830829974E+02 -0.30764057252E+02  0.99809814567E+02  0.00000000000E+00 0. -1.
</event>
<event>
 7    1  0.6681656E-006  0.5888652E+02  0.7818608E-02  0.1509586E+00
          2   -1    0    0  502    0  0.00000000000E+00  0.00000000000E+00  0.28866800330E+03  0.28866800330E+03  0.00000000000E+00 0. -1.
          1   -1    0    0  501    0 -0.00000000000E+00 -0.00000000000E+00 -0.19115587847E+04  0.19115587847E+04  0.00000000000E+00 0. -1.
         25    2    1    2    0    0 -0.23004775641E+02  0.78052379949E+02 -0.55832730682E+02  0.15926153330E+03  0.12500219381E+03 0.  0.
          2    1    1    2  501    0  0.44775486010E+01 -0.58524155712E+02 -0.18027679743E+04  0.18037232311E+04  0.00000000000E+00 0. -1.
          1    1    1    2  502    0  0.18527227040E+02 -0.19528224237E+02  0.23570992358E+03  0.23724202359E+03  0.00000000000E+00 0. -1.
         22    1    3    3    0    0  0.30118915537E+02 -0.16036485552E+02  0.61849180894E+01  0.34678107701E+02  0.00000000000E+00 0.  1.
         22    1    3    3    0    0 -0.53123691177E+02  0.94088865501E+02 -0.62017648771E+02  0.12458342560E+03  0.00000000000E+00 0.  1.
</event>
<event>
 7    1  0.6681656E-006  0.1973788E+03  0.7818608E-02  0.1351825E+00
          2   -1    0    0  502    0  0.00000000000E+00  0.00000000000E+00  0.77730004890E+03  0.77730004890E+03  0.00000000000E+00 0. -1.
          1   -1    0    0  501    0 -0.00000000000E+00 -0.00000000000E+00 -0.19063970535E+04  0.19063970535E+04  0.00000000000E+00 0. -1.
         25    2    1    2    0    0  0.14285175549E+03  0.10192501954E+03  0.18155955555E+03  0.28175146755E+03  0.12499873440E+03 0.  0.
          2    1    1    2  501    0 -0.15174376129E+03 -0.12701913341E+03 -0.18506983173E+04  0.18612480466E+04  0.00000000000E+00 0. -1.
          1    1    1    2  502    0  0.88920057994E+01  0.25094113866E+02  0.54004175721E+03  0.54069758817E+03  0.00000000000E+00 0. -1.
         22    1    3    3    0    0  0.15228082492E+03  0.83192816394E+02  0.19160229107E+03  0.25849938546E+03  0.00000000000E+00 0.  1.
         22    1    3    3    0    0 -0.94290694277E+01  0.18732203149E+02 -0.10042735523E+02  0.23252082097E+02  0.00000000000E+00 0.  1.
</event>
<event>
 7    1  0.6681656E-006  0.7377596E+02  0.7818608E-02  0.1442982E+00
          2   -1    0    0  502    0  0.00000000000E+00  0.00000000000E+00  0.17340436697E+02  0.17340436697E+02  0.00000000000E+00 0. -1.
          1   -1    0    0  501    0 -0.00000000000E+00 -0.00000000000E+00 -0.20293760234E+04  0.20293760234E+04  0.00000000000E+00 0. -1.
         25    2    1    2    0    0  0.80150350503E+02  0.48275021800E+01 -0.12585995861E+04  0.12673375681E+04  0.12499684011E+03 0.  0.
          2    1    1    2  501    0 -0.67982101838E+02  0.27440069760E+02 -0.73793830172E+03  0.74157094114E+03  0.00000000000E+00 0. -1.
          1    1    1    2  502    0 -0.12168248665E+02 -0.32267571940E+02 -0.15497698899E+02  0.37807950826E+02  0.00000000000E+00 0. -1.
         22    1    3    3    0    0  0.16231826031E+02  0.51639921427E+02 -0.80913625937E+03  0.81094490558E+03  0.00000000000E+00 0. -1.
         22    1    3    3    0    0  0.63918524472E+02 -0.46812419247E+02 -0.44946332670E+03  0.45639266253E+03  0.00000000000E+00 0. -1.
</event>
<event>
 7    1  0.6681656E-006  0.1536605E+03  0.7818608E-02  0.1277369E+00
          2   -1    0    0  502    0  0.00000000000E+00  0.00000000000E+00  0.29547880341E+03  0.29547880341E+03  0.00000000000E+00 0. -1.
          1   -1    0    0  501    0 -0.00000000000E+00 -0.00000000000E+00 -0.12652441744E+04  0.12652441744E+04  0.00000000000E+00 0. -1.
         25    2    1    2    0    0  0.13256452999E+03  0.13709658513E+03 -0.64955187641E+02  0.23709299903E+03  0.12500034208E+03 0.  0.
          2    1    1    2  501    0 -0.66801554825E+02 -0.39798139457E+01 -0.10867430438E+04  0.10888015108E+04  0.00000000000E+00 0. -1.
          1    1    1    2  502    0 -0.65762975161E+02 -0.13311677119E+03  0.18193286044E+03  0.23482846800E+03  0.00000000000E+00 0. -1.
         22    1    3    3    0    0  0.12634967134E+03  0.15362542986E+03 -0.79507022530E+02  0.21421106129E+03  0.00000000000E+00 0.  1.
         22    1    3    3    0    0  0.62148586440E+01 -0.16528844725E+02  0.14551834889E+02  0.22881937736E+02  0.00000000000E+00 0.  1.
</event>
<event>
 7    1  0.6681656E-006  0.6713135E+02  0.7818608E-02  0.1380707E+00
          2   -1    0    0  502    0  0.00000000000E+00  0.00000000000E+00  0.19855323275E+04  0.19855323275E+04  0.00000000000E+00 0. -1.
          1   -1    0    0  501    0 -0.00000000000E+00 -0.00000000000E+00 -0.99374320157E+02  0.99374320157E+02  0.00000000000E+00 0. -1.
         25    2    1    2    0    0 -0.69737791836E+02  0.85933629497E+01  0.73690905912E+03  0.75073107104E+03  0.12499989648E+03 0.  0.
          2    1    1    2  501    0  0.20092434620E+02 -0.58174587611E+02 -0.81110026670E+02  0.10181760653E+03  0.00000000000E+00 0. -1.
          1    1    1    2  502    0  0.49645357216E+02  0.49581224661E+02  0.12303589749E+04  0.12323579701E+04  0.00000000000E+00 0. -1.
         22    1    3    3    0    0 -0.20831159280E+02 -0.15833220626E+02  0.63102757824E+03  0.63156981607E+03  0.00000000000E+00 0.  1.
         22    1    3    3    0    0 -0.48906632556E+02  0.24426583575E+02  0.10588148088E+03  0.11916125497E+03  0.00000000000E+00 0.  1.
</event>
<event>
 7    1  0.6681656E-006  0.1725641E+03  0.7818608E-02  0.1389732E+00
          2   -1    0    0  502    0  0.00000000000E+00  0.00000000000E+00  0.58134235673E+03  0.58134235673E+03  0.00000000000E+00 0. -1.
          1   -1    0    0  501    0 -0.00000000000E+00 -0.00000000000E+00 -0.62083615568E+03  0.62083615568E+03  0.00000000000E+00 0. -1.
         25    2    1    2    0    0 -0.17295787489E+03  0.36468215786E+02 -0.13764581672E+03  0.25654600169E+03  0.12500049150E+03 0.  0.
          2    1    1    2  501    0  0.10065258486E+02  0.19850711644E+02 -0.40919971483E+03  0.40980454707E+03  0.00000000000E+00 0. -1.
          1    1    1    2  502    0  0.16289261640E+03 -0.56318927430E+02  0.50735173260E+03  0.53582796365E+03  0.00000000000E+00 0. -1.
         22    1    3    3    0    0 -0.19165321070E+03  0.35988748309E+02 -0.13605839061E+03  0.23777726727E+03  0.00000000000E+00 0.  1.
         22    1    3    3    0    0  0.18695335810E+02  0.47946747720E+00 -0.15874261091E+01  0.18768734421E+02  0.00000000000E+00 0.  1.
</event>
<event>
 7    1  0.6681656E-006  0.7518253E+02  0.7818608E-02  0.1443139E+00
          2   -1    0    0  502    0  0.00000000000E+00  0.00000000000E+00  0.43664993295E+03  0.43664993295E+03  0.00000000000E+00 0. -1.
          1   -1    0    0  501    0 -0.00000000000E+00 -0.00000000000E+00 -0.24548605523E+03  0.24548605523E+03  0.00000000000E+00 0. -1.
         25    2    1    2    0    0 -0.18467123632E+02 -0.84788132579E+02 -0.87463829931E+02  0.17551306610E+03  0.12499941097E+03 0.  0.
          2    1    1    2  501    0 -0.12924970419E+02  0.72257003364E+02 -0.10135281240E+03  0.12514200724E+03  0.00000000000E+00 0. -1.
          1    1    1    2  502    0  0.31392094051E+02  0.12531129216E+02  0.37998052005E+03  0.38148091484E+03  0.00000000000E+00 0. -1.
         22    1    3    3    0    0  0.33287059088E+02 -0.29235275180E+02  0.16066799509E+02  0.47126125069E+02  0.00000000000E+00 0. -1.
         22    1    3    3    0    0 -0.51754182720E+02 -0.55552857399E+02 -0.10353062944E+03  0.12838694103E+03  0.00000000000E+00 0. -1.
</event>
<event>
 7    1  0.6681656E-006  0.1161170E+03  0.7818608E-02  0.1405858E+00
          2   -1    0    0  502    0  0.00000000000E+00  0.00000000000E+00  0.42346295157E+03  0.42346295157E+03  0.00000000000E+00 0. -1.
          1   -1    0    0  501    0 -0.00000000000E+00 -0.00000000000E+00 -0.16502146669E+04  0.16502146669E+04  0.00000000000E+00 0. -1.
         25    2    1    2    0    0  0.35281698873E+02 -0.84768355375E+02 -0.54980202317E+02  0.16455274318E+03  0.12499724114E+03 0.  0.
          2    1    1    2  501    0  0.22544434292E+02 -0.18398620222E+02 -0.15308215707E+04  0.15310981164E+04  0.00000000000E+00 0. -1.
          1    1    1    2  502    0 -0.57826133165E+02  0.10316697560E+03  0.35905005767E+03  0.37802675890E+03  0.00000000000E+00 0. -1.
         22    1    3    3    0    0 -0.10983420448E+02 -0.99354286663E+02 -0.13774140517E+02  0.10090409680E+03  0.00000000000E+00 0.  1.
         22    1    3    3    0    0  0.46265119321E+02  0.14585931289E+02 -0.41206061800E+02  0.63648646383E+02  0.00000000000E+00 0.  1.
</event>
<event>
 7    1  0.6681656E-006  0.4644092E+02  0.7818608E-02  0.1526288E+00
          2   -1    0    0  502    0  0.00000000000E+00  0.00000000000E+00  0.45853584922E+03  0.45853584922E+03  0.00000000000E+00 0. -1.
          1   -1    0    0  501    0 -0.00000000000E+00 -0.00000000000E+00 -0.12909246359E+03  0.12909246359E+03  0.00000000000E+00 0. -1.
         25    2    1    2    0    0  0.41821083165E+02  0.62829801567E+02  0.97860548378E+02  0.17576451938E+03  0.12497956786E+03 0.  0.
          2    1    1    2  501    0 -0.22373913499E+02 -0.39312999150E+02 -0.83682220529E+02  0.95125274980E+02  0.00000000000E+00 0. -1.
          1    1    1    2  502    0 -0.19447169666E+02 -0.23516802416E+02  0.31526505778E+03  0.31673851844E+03  0.00000000000E+00 0. -1.
         22    1    3    3    0    0  0.55871200171E+02  0.58681888395E+01 -0.59804819832E+01  0.56495953957E+02  0.00000000000E+00 0. -1.
         22    1    3    3    0    0 -0.14050117006E+02  0.56961612727E+02  0.10384103036E+03  0.11926856543E+03  0.00000000000E+00 0. -1.
</event>
<event>
 7    1  0.6681656E-006  0.2841590E+02  0.7818608E-02  0.1655627E+00
          2   -1    0    0  502    0  0.00000000000E+00  0.00000000000E+00  0.15099365787E+03  0.15099365787E+03  0.00000000000E+00 0. -1.
          1   -1    0    0  501    0 -0.00000000000E+00 -0.00000000000E+00 -0.10039841243E+04  0.10039841243E+04  0.00000000000E+00 0. -1.
         25    2    1    2    0    0 -0.46032601943E+02 -0.16649771069E+02 -0.74575241253E+02  0.15357308751E+03  0.12500804487E+03 0.  0.
          2    1    1    2  501    0  0.23377565368E+02  0.15962499127E+02 -0.88853032399E+03  0.88898112949E+03  0.00000000000E+00 0. -1.
          1    1    1    2  502    0  0.22655036575E+02  0.68727194199E+00  0.11011509880E+03  0.11242356518E+03  0.00000000000E+00 0. -1.
         22    1    3    3    0    0  0.31878915361E+02  0.29685096862E+02 -0.22408270657E+02  0.48985720513E+02  0.00000000000E+00 0. -1.
         22    1    3    3    0    0 -0.77911517304E+02 -0.46334867930E+02 -0.52166970596E+02  0.10458736700E+03  0.00000000000E+00 0. -1.
</event>
<event>
 7    1  0.6681656E-006  0.8642730E+02  0.7818608E-02  0.1467641E+00
          2   -1    0    0  502    0  0.00000000000E+00  0.00000000000E+00  0.33087871706E+04  0.33087871706E+04  0.00000000000E+00 0. -1.
          1   -1    0    0  501    0 -0.00000000000E+00 -0.00000000000E+00 -0.16760699816E+04  0.16760699816E+04  0.00000000000E+00 0. -1.
         25    2    1    2    0    0  0.51121240748E+02  0.35243731363E+02 -0.22836140414E+03  0.26763719548E+03  0.12500094259E+03 0.  0.
          2    1    1    2  501    0  0.17976972473E+02  0.16763789884E+02 -0.14273963636E+04  0.14276079907E+04  0.00000000000E+00 0. -1.
          1    1    1    2  502    0 -0.69098213222E+02 -0.52007521247E+02  0.32884749568E+04  0.32896119660E+04  0.00000000000E+00 0. -1.
         22    1    3    3    0    0  0.68690655891E+02  0.42948327432E+02 -0.66968999569E+02  0.10510857215E+03  0.00000000000E+00 0. -1.
         22    1    3    3    0    0 -0.17569415143E+02 -0.77045960691E+01 -0.16139240457E+03  0.16252862333E+03  0.00000000000E+00 0. -1.
</event>
<event>
 7    1  0.6681656E-006  0.5085374E+02  0.7818608E-02  0.1458689E+00
          2   -1    0    0  502    0  0.00000000000E+00  0.00000000000E+00  0.27867431829E+03  0.27867431829E+03  0.00000000000E+00 0. -1.
          1   -1    0    0  501    0 -0.00000000000E+00 -0.00000000000E+00 -0.11558470013E+03  0.11558470013E+03  0.00000000000E+00 0. -1.
         25    2    1    2    0    0 -0.36292397172E+01  0.28363294146E+02 -0.36549004422E+02  0.13333623888E+03  0.12500030016E+03 0.  0.
          2    1    1    2  501    0  0.73019161091E+00 -0.72837857467E+02  0.19575793373E+02  0.75426111833E+02  0.00000000000E+00 0. -1.
          1    1    1    2  502    0  0.28990481063E+01  0.44474563321E+02  0.18006282922E+03  0.18549666770E+03  0.00000000000E+00 0. -1.
         22    1    3    3    0    0  0.37111015248E+02  0.35011576600E+02  0.26872449748E+02  0.57664256730E+02  0.00000000000E+00 0. -1.
         22    1    3    3    0    0 -0.40740254965E+02 -0.66482824538E+01 -0.63421454170E+02  0.75671982155E+02  0.00000000000E+00 0. -1.
</event>
<event>
 7    1  0.6681656E-006  0.6220661E+02  0.7818608E-02  0.1421463E+00
          2   -1    0    0  502    0  0.00000000000E+00  0.00000000000E+00  0.53894801356E+03  0.53894801356E+03  0.00000000000E+00 0. -1.
          1   -1    0    0  501    0 -0.00000000000E+00 -0.00000000000E+00 -0.21055007656E+04  0.21055007656E+04  0.00000000000E+00 0. -1.
         25    2    1    2    0    0  0.34144827167E+02 -0.60668917522E+02 -0.57479535255E+02  0.15419499657E+03  0.12500245285E+03 0.  0.
          2    1    1    2  501    0 -0.59162595785E+02  0.19561833233E+02 -0.19979965534E+04  0.19989680101E+04  0.00000000000E+00 0. -1.
          1    1    1    2  502    0  0.25017768618E+02  0.41107084289E+02  0.48892333663E+03  0.49128577246E+03  0.00000000000E+00 0. -1.
         22    1    3    3    0    0  0.68125549567E+02 -0.71421215149E+02 -0.16818771143E+02  0.10012467997E+03  0.00000000000E+00 0. -1.
         22    1    3    3    0    0 -0.33980722400E+02  0.10752297626E+02 -0.40660764112E+02  0.54070316600E+02  0.00000000000E+00 0. -1.
</event>
<event>
 7    1  0.6681656E-006  0.1752967E+03  0.7818608E-02  0.1282338E+00
          2   -1    0    0  502    0  0.00000000000E+00  0.00000000000E+00  0.27594144843E+04  0.27594144843E+04  0.00000000000E+00 0. -1.
          1   -1    0    0  501    0 -0.00000000000E+00 -0.00000000000E+00 -0.12921056594E+04  0.12921056594E+04  0.00000000000E+00 0. -1.
         25    2    1    2    0    0 -0.19252638853E+02 -0.20543533342E+03 -0.19666680094E+02  0.24204393991E+03  0.12499660085E+03 0.  0.
          2    1    1    2  501    0  0.45427277443E+02  0.32662940608E+02 -0.11576913557E+04  0.11590426136E+04  0.00000000000E+00 0. -1.
          1    1    1    2  502    0 -0.26174638591E+02  0.17277239281E+03  0.26446668607E+04  0.26504335901E+04  0.00000000000E+00 0. -1.
         22    1    3    3    0    0  0.37923651775E+01 -0.42372140405E+02  0.47877424394E+02  0.64047077082E+02  0.00000000000E+00 0. -1.
         22    1    3    3    0    0 -0.23045004030E+02 -0.16306319302E+03 -0.67544104488E+02  0.17799686283E+03  0.00000000000E+00 0. -1.
</event>
<event>
 7    1  0.6681656E-006  0.5163172E+02  0.7818608E-02  0.1446187E+00
          2   -1    0    0  502    0  0.00000000000E+00  0.00000000000E+00  0.36456379265E+03  0.36456379265E+03  0.00000000000E+00 0. -1.
          1   -1    0    0  501    0 -0.00000000000E+00 -0.00000000000E+00 -0.83473539805E+03  0.83473539805E+03  0.00000000000E+00 0. -1.
         25    2    1    2    0    0  0.72462081240E+01  0.98195575343E+02 -0.86657538312E+02  0.18118981155E+03  0.12500136124E+03 0.  0.
          2    1    1    2  501    0  0.18080118095E+01 -0.48083507279E+02 -0.69793483076E+03  0.69959153838E+03  0.00000000000E+00 0. -1.
          1    1    1    2  502    0 -0.90542199335E+01 -0.50112068064E+02  0.31442076367E+03  0.31851784078E+03  0.00000000000E+00 0. -1.
         22    1    3    3    0    0 -0.12951119903E+02  0.99179363678E+02 -0.11108433181E+03  0.14947911714E+03  0.00000000000E+00 0.  1.
         22    1    3    3    0    0  0.20197328027E+02 -0.98378833501E+00  0.24426793503E+02  0.31710694407E+02  0.00000000000E+00 0.  1.
</event>
<event>
 7    1  0.6681656E-006  0.8316911E+02  0.7818608E-02  0.1382458E+00
          2   -1    0    0  502    0  0.00000000000E+00  0.00000000000E+00  0.16994199993E+04  0.16994199993E+04  0.00000000000E+00 0. -1.
          1   -1    0    0  501    0 -0.00000000000E+00 -0.00000000000E+00 -0.59372205814E+02  0.59372205814E+02  0.00000000000E+00 0. -1.
         25    2    1    2    0    0 -0.64516134456E+02  0.33228173227E+02  0.96940034334E+02  0.17403664233E+03  0.12499975807E+03 0.  0.
          2    1    1    2  501    0 -0.18480649274E+02 -0.45354953885E+02  0.10798005896E+02  0.50151801272E+02  0.00000000000E+00 0. -1.
          1    1    1    2  502    0  0.82996783729E+02  0.12126780658E+02  0.15323097533E+04  0.15346037615E+04  0.00000000000E+00 0. -1.
         22    1    3    3    0    0 -0.15723958715E+02  0.23600474504E+02 -0.27821912719E+02  0.39727623913E+02  0.00000000000E+00 0.  1.
         22    1    3    3    0    0 -0.48792175741E+02  0.96276987235E+01  0.12476194705E+03  0.13430901842E+03  0.00000000000E+00 0.  1.
</event>
<event>
 7    1  0.6681656E-006  0.1973506E+03  0.7818608E-02  0.1220246E+00
          2   -1    0    0  502    0  0.00000000000E+00  0.00000000000E+00  0.39378299887E+03  0.39378299887E+03  0.00000000000E+00 0. -1.
          1   -1    0    0  501    0 -0.00000000000E+00 -0.00000000000E+00 -0.16282484249E+04  0.16282484249E+04  0.00000000000E+00 0. -1.
         25    2    1    2    0    0  0.34805332531E+02  0.23344813031E+03 -0.10769100982E+04  0.11095345811E+04  0.12498874484E+03 0.  0.
          2    1    1    2  501    0 -0.82033427510E+02 -0.42355200636E+02 -0.50489033156E+03  0.51326181735E+03  0.00000000000E+00 0. -1.
          1    1    1    2  502    0  0.47228094978E+02 -0.19109292968E+03  0.34733500366E+03  0.39923502538E+03  0.00000000000E+00 0. -1.
         22    1    3    3    0    0  0.22886376407E+02  0.55506602690E+02 -0.10128130151E+03  0.11773984543E+03  0.00000000000E+00 0.  1.
         22    1    3    3    0    0  0.11918956124E+02  0.17794152762E+03 -0.97562879664E+03  0.99179473562E+03  0.00000000000E+00 0.  1.
</event>
<event>
 7    1  0.6681656E-006  0.6196350E+02  0.7818608E-02  0.1443886E+00
          2   -1    0    0  502    0  0.00000000000E+00  0.00000000000E+00  0.14206749578E+04  0.14206749578E+04  0.00000000000E+00 0. -1.
          1   -1    0    0  501    0 -0.00000000000E+00 -0.00000000000E+00 -0.12237382413E+03  0.12237382413E+03  0.00000000000E+00 0. -1.
         25    2    1    2    0    0 -0.36360466542E+02 -0.17863301880E+02 -0.10011404833E+02  0.13178124571E+03  0.12499954965E+03 0.  0.
          2    1    1    2  501    0 -0.24066957018E+02  0.32926760199E+02 -0.42567724960E+02  0.58952533157E+02  0.00000000000E+00 0. -1.
          1    1    1    2  502    0  0.60427423561E+02 -0.15063458320E+02  0.13508802634E+04  0.13523150030E+04  0.00000000000E+00 0. -1.
         22    1    3    3    0    0 -0.62781201424E+02  0.34502409962E+02 -0.13999750458E+02  0.72992386989E+02  0.00000000000E+00 0. -1.
         22    1    3    3    0    0  0.26420734882E+02 -0.52365711841E+02  0.39883456247E+01  0.58788858716E+02  0.00000000000E+00 0. -1.
</event>
<event>
 7    1  0.6681656E-006  0.2473398E+03  0.7818608E-02  0.1194139E+00
          2   -1    0    0  502    0  0.00000000000E+00  0.00000000000E+00  0.82368696554E+03  0.82368696554E+03  0.00000000000E+00 0. -1.
          1   -1    0    0  501    0 -0.00000000000E+00 -0.00000000000E+00 -0.19698312408E+03  0.19698312408E+03  0.00000000000E+00 0. -1.
         25    2    1    2    0    0 -0.15951009935E+02 -0.18912832373E+03  0.19341317567E+02  0.22808556307E+03  0.12499991983E+03 0.  0.
          2    1    1    2  501    0  0.68995192596E+02 -0.68856954939E+02 -0.30783874153E+02  0.10222164033E+03  0.00000000000E+00 0. -1.
          1    1    1    2  502    0 -0.53044182661E+02  0.25798527867E+03  0.63814639805E+03  0.69036288622E+03  0.00000000000E+00 0. -1.
         22    1    3    3    0    0  0.47245557143E+02 -0.13727446051E+03  0.18349121162E+02  0.14633219203E+03  0.00000000000E+00 0. -1.
         22    1    3    3    0    0 -0.63196567078E+02 -0.51853863223E+02  0.99219640452E+00  0.81753371033E+02  0.00000000000E+00 0. -1.
</event>
<event>
 7    1  0.6681656E-006  0.1418527E+03  0.7818608E-02  0.1340644E+00
          2   -1    0    0  502    0  0.00000000000E+00  0.00000000000E+00  0.54253768557E+03  0.54253768557E+03  0.00000000000E+00 0. -1.
          1   -1    0    0  501    0 -0.00000000000E+00 -0.00000000000E+00 -0.42517609287E+03  0.42517609287E+03  0.00000000000E+00 0. -1.
         25    2    1    2    0    0 -0.16873297856E+03  0.83319678049E+00  0.20046338044E+03  0.29031443900E+03  0.12500157728E+03 0.  0.
          2    1    1    2  501    0  0.13786732227E+03 -0.27475687658E+02 -0.36574449525E+03  0.39183076419E+03  0.00000000000E+00 0. -1.
          1    1    1    2  502    0  0.30865656285E+02  0.26642490877E+02  0.28264270751E+03  0.28556857524E+03  0.00000000000E+00 0. -1.
         22    1    3    3    0    0 -0.16178609976E+02  0.39315936452E+02  0.10755793432E+02  0.43854046247E+02  0.00000000000E+00 0.  1.
         22    1    3    3    0    0 -0.15255436858E+03 -0.38482739672E+02  0.18970758701E+03  0.24646039275E+03  0.00000000000E+00 0.  1.
</event>
<event>
 7    1  0.6681656E-006  0.8097793E+02  0.7818608E-02  0.1356751E+00
          2   -1    0    0  502    0  0.00000000000E+00  0.00000000000E+00  0.19789814886E+04  0.19789814886E+04  0.00000000000E+00 0. -1.
          1   -1    0    0  501    0 -0.00000000000E+00 -0.00000000000E+00 -0.21411587324E+04  0.21411587324E+04  0.00000000000E+00 0. -1.
         25    2    1    2    0    0 -0.31823600976E+02  0.10506622538E+02  0.63568993319E+03  0.64872951550E+03  0.12500064971E+03 0.  0.
          2    1    1    2  501    0  0.36018957845E+02 -0.72603080527E+02 -0.21331445524E+04  0.21346836427E+04  0.00000000000E+00 0. -1.
          1    1    1    2  502    0 -0.41953568694E+01  0.62096457989E+02  0.13352773755E+04  0.13367270629E+04  0.00000000000E+00 0. -1.
         22    1    3    3    0    0 -0.15945289852E+02 -0.57228543089E+02  0.31947257895E+03  0.32494936085E+03  0.00000000000E+00 0. -1.
         22    1    3    3    0    0 -0.15878311124E+02  0.67735165627E+02  0.31621735423E+03  0.32378015465E+03  0.00000000000E+00 0. -1.
</event>
<event>
 7    1  0.6681656E-006  0.5062337E+02  0.7818608E-02  0.1450723E+00
          2   -1    0    0  502    0  0.00000000000E+00  0.00000000000E+00  0.70056281312E+03  0.70056281312E+03  0.00000000000E+00 0. -1.
          1   -1    0    0  501    0 -0.00000000000E+00 -0.00000000000E+00 -0.15488191689E+03  0.15488191689E+03  0.00000000000E+00 0. -1.
         25    2    1    2    0    0 -0.18563495470E+01 -0.16575775554E+02  0.36521719694E-01  0.12611149734E+03  0.12500362418E+03 0.  0.
          2    1    1    2  501    0 -0.39516328594E+02  0.39828427988E+02 -0.82296196460E+02  0.99601746236E+02  0.00000000000E+00 0. -1.
          1    1    1    2  502    0  0.41372678141E+02 -0.23252652435E+02  0.62794057097E+03  0.62973148644E+03  0.00000000000E+00 0. -1.
         22    1    3    3    0    0  0.50870198296E+02 -0.40025425324E+02  0.15110812209E+02  0.66469153692E+02  0.00000000000E+00 0. -1.
         22    1    3    3    0    0 -0.52726547843E+02  0.23449649770E+02 -0.15074290489E+02  0.59642343645E+02  0.00000000000E+00 0. -1.
</event>
<event>
 7    1  0.6681656E-006  0.1462953E+03  0.7818608E-02  0.1258598E+00
          2   -1    0    0  502    0  0.00000000000E+00  0.00000000000E+00  0.10033051344E+04  0.10033051344E+04  0.00000000000E+00 0. -1.
          1   -1    0    0  501    0 -0.00000000000E+00 -0.00000000000E+00 -0.40181230462E+03  0.40181230462E+03  0.00000000000E+00 0. -1.
         25    2    1    2    0    0  0.18324864446E+03  0.13528185883E+03 -0.70745180347E+02  0.26927855232E+03  0.12499924468E+03 0.  0.
          2    1    1    2  501    0 -0.65893280300E+02 -0.52625066075E+02 -0.21818787210E+03  0.23391722788E+03  0.00000000000E+00 0. -1.
          1    1    1    2  502    0 -0.11735536416E+03 -0.82656792757E+02  0.89042588226E+03  0.90192165884E+03  0.00000000000E+00 0. -1.
         22    1    3    3    0    0  0.14896333221E+03  0.59664393976E+02 -0.90090290671E+02  0.18402764663E+03  0.00000000000E+00 0.  1.
         22    1    3    3    0    0  0.34285312254E+02  0.75617464856E+02  0.19345110324E+02  0.85250905690E+02  0.00000000000E+00 0.  1.
</event>
<event>
 7    1  0.6681656E-006  0.8945006E+02  0.7818608E-02  0.1337968E+00
          2   -1    0    0  502    0  0.00000000000E+00  0.00000000000E+00  0.54818682639E+03  0.54818682639E+03  0.00000000000E+00 0. -1.
          1   -1    0    0  501    0 -0.00000000000E+00 -0.00000000000E+00 -0.18180022169E+04  0.18180022169E+04  0.00000000000E+00 0. -1.
         25    2    1    2    0    0 -0.65545512482E+02 -0.17837511411E+02 -0.11662047438E+03  0.18395388474E+03  0.12499722255E+03 0.  0.
          2    1    1    2  501    0 -0.11703763856E+02  0.65135852841E+02 -0.16630652986E+04  0.16643815202E+04  0.00000000000E+00 0. -1.
          1    1    1    2  502    0  0.77249276339E+02 -0.47298341430E+02  0.50987038248E+03  0.51785363833E+03  0.00000000000E+00 0. -1.
         22    1    3    3    0    0 -0.84966855474E+02  0.27578688974E+02 -0.54707662754E+02  0.10475151063E+03  0.00000000000E+00 0.  1.
         22    1    3    3    0    0  0.19421342992E+02 -0.45416200386E+02 -0.61912811625E+02  0.79202374108E+02  0.00000000000E+00 0.  1.
</event>
<event>
 7    1  0.6681656E-006  0.1117368E+03  0.7818608E-02  0.1417424E+00
          2   -1    0    0  502    0  0.00000000000E+00  0.00000000000E+00  0.43514582852E+03  0.43514582852E+03  0.00000000000E+00 0. -1.
          1   -1    0    0  501    0 -0.00000000000E+00 -0.00000000000E+00 -0.25030194808E+03  0.25030194808E+03  0.00000000000E+00 0. -1.
         25    2    1    2    0    0  0.12895035654E+03  0.21682880637E+02  0.25412888427E+03  0.31194781054E+03  0.12502641688E+03 0.  0.
          2    1    1    2  501    0 -0.10503030282E+03 -0.35524423310E+02 -0.20604118918E+03  0.23397931703E+03  0.00000000000E+00 0. -1.
          1    1    1    2  502    0 -0.23920053725E+02  0.13841542672E+02  0.13675618535E+03  0.13952064903E+03  0.00000000000E+00 0. -1.
         22    1    3    3    0    0 -0.12496674784E+02 -0.69451654014E+01 -0.51627051307E+01  0.15200517339E+02  0.00000000000E+00 0. -1.
         22    1    3    3    0    0  0.14144703133E+03  0.28628046039E+02  0.25929158940E+03  0.29674729321E+03  0.00000000000E+00 0. -1.
</event>
<event>
 7    1  0.6762135E-006  0.8969672E+02  0.7818608E-02  0.1442224E+00
          2   -1    0    0  502    0  0.00000000000E+00  0.00000000000E+00  0.13012014109E+04  0.13012014109E+04  0.00000000000E+00 0. -1.
          1   -1    0    0  501    0 -0.00000000000E+00 -0.00000000000E+00 -0.10534120223E+04  0.10534120223E+04  0.00000000000E+00 0. -1.
         25    2    1    2    0    0 -0.56881067117E+02  0.53511585302E+02 -0.14738080210E+03  0.20843898648E+03  0.12500705859E+03 0.  0.
          2    1    1    2  501    0  0.13477009853E+02  0.25140576318E+02 -0.87368131186E+03  0.87414684869E+03  0.00000000000E+00 0. -1.
          1    1    1    2  502    0  0.43404057264E+02 -0.78652161620E+02  0.12688515026E+04  0.12720275981E+04  0.00000000000E+00 0. -1.
         22    1    3    3    0    0 -0.46562936251E+02 -0.19102909865E+02 -0.12004164589E+03  0.13016537538E+03  0.00000000000E+00 0. -1.
         22    1    3    3    0    0 -0.10318130866E+02  0.72614495167E+02 -0.27339156207E+02  0.78273611103E+02  0.00000000000E+00 0. -1.
</event>
<event>
 7    1  0.6681656E-006  0.1099476E+03  0.7818608E-02  0.1314571E+00
          2   -1    0    0  502    0  0.00000000000E+00  0.00000000000E+00  0.96076698936E+03  0.96076698936E+03  0.00000000000E+00 0. -1.
          1   -1    0    0  501    0 -0.00000000000E+00 -0.00000000000E+00 -0.18645768897E+04  0.18645768897E+04  0.00000000000E+00 0. -1.
         25    2    1    2    0    0  0.11787968492E+03  0.12099974961E+03 -0.20496852659E+02  0.21114654892E+03  0.12500473842E+03 0.  0.
          2    1    1    2  501    0 -0.28543016934E+02 -0.59757780960E+02 -0.17447356259E+04  0.17459920104E+04  0.00000000000E+00 0. -1.
          1    1    1    2  502    0 -0.89336667987E+02 -0.61241968654E+02  0.86142257820E+03  0.86820531972E+03  0.00000000000E+00 0. -1.
         22    1    3    3    0    0  0.92922667494E+02  0.45241799336E+02 -0.62723913443E+02  0.12089554110E+03  0.00000000000E+00 0. -1.
         22    1    3    3    0    0  0.24957017427E+02  0.75757950278E+02  0.42227060785E+02  0.90251007815E+02  0.00000000000E+00 0. -1.
</event>
<event>
 7    1  0.6681656E-006  0.1925481E+03  0.7818608E-02  0.1201210E+00
          2   -1    0    0  502    0  0.00000000000E+00  0.00000000000E+00  0.15919800856E+04  0.15919800856E+04  0.00000000000E+00 0. -1.
          1   -1    0    0  501    0 -0.00000000000E+00 -0.00000000000E+00 -0.42753543926E+03  0.42753543926E+03  0.00000000000E+00 0. -1.
         25    2    1    2    0    0  0.16793697395E+03  0.80933073901E+02  0.20456417105E+03  0.30368641366E+03  0.12500379232E+03 0.  0.
          2    1    1    2  501    0 -0.95565500960E+02 -0.17149126822E+03 -0.34974766822E+03  0.40108035538E+03  0.00000000000E+00 0. -1.
          1    1    1    2  502    0 -0.72371472985E+02  0.90558194315E+02  0.13096281435E+04  0.13147487558E+04  0.00000000000E+00 0. -1.
         22    1    3    3    0    0  0.15219992040E+03  0.11102247921E+03  0.18705627402E+03  0.26548230885E+03  0.00000000000E+00 0.  1.
         22    1    3    3    0    0  0.15737053541E+02 -0.30089405310E+02  0.17507897029E+02  0.38204104811E+02  0.00000000000E+00 0.  1.
</event>
<event>
 7    1  0.6681656E-006  0.1608532E+03  0.7818608E-02  0.1337719E+00
          2   -1    0    0  502    0  0.00000000000E+00  0.00000000000E+00  0.17011022497E+04  0.17011022497E+04  0.00000000000E+00 0. -1.
          1   -1    0    0  501    0 -0.00000000000E+00 -0.00000000000E+00 -0.23463527008E+03  0.23463527008E+03  0.00000000000E+00 0. -1.
         25    2    1    2    0    0  0.16285089680E+03  0.37863463402E+02  0.42093753797E+03  0.46985886928E+03  0.12499955886E+03 0.  0.
          2    1    1    2  501    0 -0.16067627448E+03 -0.10460099223E+01 -0.17914624133E+03  0.24064774069E+03  0.00000000000E+00 0. -1.
          1    1    1    2  502    0 -0.21746223239E+01 -0.36817453480E+02  0.12246756830E+04  0.12252309098E+04  0.00000000000E+00 0. -1.
         22    1    3    3    0    0  0.15464407759E+03 -0.11505053876E+02  0.35225105493E+03  0.38487395689E+03  0.00000000000E+00 0. -1.
         22    1    3    3    0    0  0.82068192096E+01  0.49368517278E+02  0.68686483046E+02  0.84984912385E+02  0.00000000000E+00 0. -1.
</event>
<event>
 7    1  0.6681656E-006  0.5877474E+02  0.7818608E-02  0.1404185E+00
          2   -1    0    0  502    0  0.00000000000E+00  0.00000000000E+00  0.53740349358E+02  0.53740349358E+02  0.00000000000E+00 0. -1.
          1   -1    0    0  501    0 -0.00000000000E+00 -0.00000000000E+00 -0.39614693329E+03  0.39614693329E+03  0.00000000000E+00 0. -1.
         25    2    1    2    0    0 -0.25068756221E+01 -0.24722318110E+02 -0.10676448677E+03  0.16625389686E+03  0.12499690055E+03 0.  0.
          2    1    1    2  501    0 -0.39489300380E+02 -0.43532343305E+02 -0.17053676964E+03  0.18038087359E+03  0.00000000000E+00 0. -1.
          1    1    1    2  502    0  0.41996176002E+02  0.68254661415E+02 -0.65105327520E+02  0.10325251220E+03  0.00000000000E+00 0. -1.
         22    1    3    3    0    0 -0.28739596133E+02 -0.53611147155E+02 -0.96454532588E+01  0.61588588665E+02  0.00000000000E+00 0. -1.
         22    1    3    3    0    0  0.26232720511E+02  0.28888829044E+02 -0.97119033512E+02  0.10466530819E+03  0.00000000000E+00 0. -1.
</event>
<event>
 7    1  0.6681656E-006  0.4330430E+02  0.7818608E-02  0.1531852E+00
          2   -1    0    0  502    0  0.00000000000E+00  0.00000000000E+00  0.16640668337E+04  0.16640668337E+04  0.00000000000E+00 0. -1.
          1   -1    0    0  501    0 -0.00000000000E+00 -0.00000000000E+00 -0.72528846475E+03  0.72528846475E+03  0.00000000000E+00 0. -1.
         25    2    1    2    0    0 -0.19846816258E+02 -0.30269655546E+02  0.79147108174E+03  0.80209815030E+03  0.12499928528E+03 0.  0.
          2    1    1    2  501    0 -0.24164066035E+02  0.20278579756E+02 -0.71904175783E+03  0.71973340369E+03  0.00000000000E+00 0. -1.
          1    1    1    2  502    0  0.44010882293E+02  0.99910757906E+01  0.86634904501E+03  0.86752374443E+03  0.00000000000E+00 0. -1.
         22    1    3    3    0    0 -0.63024003321E+02  0.17648741788E+02  0.41995659043E+03  0.42502592971E+03  0.00000000000E+00 0.  1.
         22    1    3    3    0    0  0.43177187064E+02 -0.47918397334E+02  0.37151449131E+03  0.37707222059E+03  0.00000000000E+00 0.  1.
</event>
<event>
 7    1  0.6681656E-006  0.9088431E+02  0.7818608E-02  0.1373307E+00
          2   -1    0    0  502    0  0.00000000000E+00  0.00000000000E+00  0.18507455070E+04  0.18507455070E+04  0.00000000000E+00 0. -1.
          1   -1    0    0  501    0 -0.00000000000E+00 -0.00000000000E+00 -0.41997680326E+03  0.41997680326E+03  0.00000000000E+00 0. -1.
         25    2    1    2    0    0  0.44673150198E+02 -0.40968151683E+02  0.15505859354E+02  0.13978488623E+03  0.12500121177E+03 0.  0.
          2    1    1    2  501    0 -0.32907322793E+02  0.87815211933E+02 -0.35135738102E+03  0.36365699847E+03  0.00000000000E+00 0. -1.
          1    1    1    2  502    0 -0.11765827406E+02 -0.46847060250E+02  0.17666202254E+04  0.17672804256E+04  0.00000000000E+00 0. -1.
         22    1    3    3    0    0  0.49703368066E+02  0.28411620225E+02 -0.21301551913E+02  0.61085195218E+02  0.00000000000E+00 0.  1.
         22    1    3    3    0    0 -0.50302178674E+01 -0.69379771908E+02  0.36807411267E+02  0.78699691016E+02  0.00000000000E+00 0.  1.
</event>
<event>
 7    1  0.6681656E-006  0.1378159E+03  0.7818608E-02  0.1267815E+00
          2   -1    0    0  502    0  0.00000000000E+00  0.00000000000E+00  0.12399595628E+04  0.12399595628E+04  0.00000000000E+00 0. -1.
          1   -1    0    0  501    0 -0.00000000000E+00 -0.00000000000E+00 -0.34549033633E+03  0.34549033633E+03  0.00000000000E+00 0. -1.
         25    2    1    2    0    0 -0.62751388022E+02 -0.18941468686E+03  0.33410094934E+03  0.40873479419E+03  0.12500010934E+03 0.  0.
          2    1    1    2  501    0  0.56570707221E+02  0.59089809860E+02 -0.29772535913E+03  0.30875919421E+03  0.00000000000E+00 0. -1.
          1    1    1    2  502    0  0.61806808018E+01  0.13032487700E+03  0.85809363629E+03  0.86795591076E+03  0.00000000000E+00 0. -1.
         22    1    3    3    0    0 -0.31496222272E+02 -0.12771518891E+03  0.10173128921E+03  0.16629021830E+03  0.00000000000E+00 0. -1.
         22    1    3    3    0    0 -0.31255165751E+02 -0.61699497952E+02  0.23236966013E+03  0.24244457590E+03  0.00000000000E+00 0. -1.
</event>
<event>
 7    1  0.6681656E-006  0.4454817E+02  0.7818608E-02  0.1511248E+00
          2   -1    0    0  502    0  0.00000000000E+00  0.00000000000E+00  0.39428475148E+03  0.39428475148E+03  0.00000000000E+00 0. -1.
          1   -1    0    0  501    0 -0.00000000000E+00 -0.00000000000E+00 -0.24662478468E+03  0.24662478468E+03  0.00000000000E+00 0. -1.
         25    2    1    2    0    0  0.70052343755E+02  0.83182977917E+01  0.24499476085E+03  0.28394337893E+03  0.12499953860E+03 0.  0.
          2    1    1    2  501    0 -0.33687833798E+02  0.10152150473E+02 -0.22253018460E+03  0.22529451694E+03  0.00000000000E+00 0. -1.
          1    1    1    2  502    0 -0.36364509957E+02 -0.18470448265E+02  0.12519539054E+03  0.13167164029E+03  0.00000000000E+00 0. -1.
         22    1    3    3    0    0  0.84699090516E+02 -0.22490559679E+02  0.23101223454E+03  0.24707572466E+03  0.00000000000E+00 0. -1.
         22    1    3    3    0    0 -0.14646746761E+02  0.30808857470E+02  0.13982526305E+02  0.36867654267E+02  0.00000000000E+00 0. -1.
</event>
<event>
 7    1  0.6681656E-006  0.5038103E+02  0.7818608E-02  0.1458652E+00
          2   -1    0    0  502    0  0.00000000000E+00  0.00000000000E+00  0.15340282096E+04  0.15340282096E+04  0.00000000000E+00 0. -1.
          1   -1    0    0  501    0 -0.00000000000E+00 -0.00000000000E+00 -0.12310471265E+04  0.12310471265E+04  0.00000000000E+00 0. -1.
         25    2    1    2    0    0  0.21577838586E+02  0.36921573396E+02  0.17091607989E+02  0.13321474168E+03  0.12500095455E+03 0.  0.
          2    1    1    2  501    0 -0.50516570648E+02 -0.24618519897E+01 -0.11720930810E+04  0.11731837773E+04  0.00000000000E+00 0. -1.
          1    1    1    2  502    0  0.28938732063E+02 -0.34459721406E+02  0.14579825562E+04  0.14586768172E+04  0.00000000000E+00 0. -1.
         22    1    3    3    0    0 -0.32891212803E+02  0.40390080037E+02 -0.30876627943E+02  0.60552098215E+02  0.00000000000E+00 0.  1.
         22    1    3    3    0    0  0.54469051389E+02 -0.34685066412E+01  0.47968235932E+02  0.72662643470E+02  0.00000000000E+00 0.  1.
</event>
<event>
 7    1  0.6681656E-006  0.7241408E+02  0.7818608E-02  0.1481181E+00
          2   -1    0    0  502    0  0.00000000000E+00  0.00000000000E+00  0.13962729955E+04  0.13962729955E+04  0.00000000000E+00 0. -1.
          1   -1    0    0  501    0 -0.00000000000E+00 -0.00000000000E+00 -0.12178926370E+03  0.12178926370E+03  0.00000000000E+00 0. -1.
         25    2    1    2    0    0  0.17620951788E+02  0.53949722387E+02  0.82934650655E+03  0.84063201119E+03  0.12500191925E+03 0.  0.
          2    1    1    2  501    0  0.20037206363E+02  0.17557609710E+02 -0.11166213074E+03  0.11479630107E+03  0.00000000000E+00 0. -1.
          1    1    1    2  502    0 -0.37658158151E+02 -0.71507332097E+02  0.55679935603E+03  0.56263394698E+03  0.00000000000E+00 0. -1.
         22    1    3    3    0    0  0.55800964473E+02  0.30135736640E+02  0.20310225208E+03  0.21277320099E+03  0.00000000000E+00 0. -1.
         22    1    3    3    0    0 -0.38180012684E+02  0.23813985748E+02  0.62624425448E+03  0.62785881020E+03  0.00000000000E+00 0. -1.
</event>
<event>
 7    1  0.6681656E-006  0.1391471E+03  0.7818608E-02  0.1293720E+00
          2   -1    0    0  502    0  0.00000000000E+00  0.00000000000E+00  0.21593433751E+04  0.21593433751E+04  0.00000000000E+00 0. -1.
          1   -1    0    0  501    0 -0.00000000000E+00 -0.00000000000E+00 -0.88905511708E+02  0.88905511708E+02  0.00000000000E+00 0. -1.
         25    2    1    2    0    0 -0.84714195181E+02  0.54898129455E+02  0.36538895833E+03  0.39915338368E+03  0.12499613336E+03 0.  0.
          2    1    1    2  501    0  0.89004202811E+02 -0.11809104535E+03  0.50965204669E+01  0.14796356859E+03  0.00000000000E+00 0. -1.
          1    1    1    2  502    0 -0.42900076299E+01  0.63192915896E+02  0.16999523846E+04  0.17011319345E+04  0.00000000000E+00 0. -1.
         22    1    3    3    0    0 -0.65462453715E+02 -0.23806738796E+02  0.23966111113E+03  0.24957872876E+03  0.00000000000E+00 0.  1.
         22    1    3    3    0    0 -0.19251741465E+02  0.78704868251E+02  0.12572784720E+03  0.14957465493E+03  0.00000000000E+00 0.  1.
</event>
<event>
 7    1  0.6681656E-006  0.2421131E+03  0.7818608E-02  0.1308966E+00
          2   -1    0    0  502    0  0.00000000000E+00  0.00000000000E+00  0.13018903835E+04  0.13018903835E+04  0.00000000000E+00 0. -1.
          1   -1    0    0  501    0 -0.00000000000E+00 -0.00000000000E+00 -0.42501571928E+03  0.42501571928E+03  0.00000000000E+00 0. -1.
         25    2    1    2    0    0  0.67012579229E+02 -0.24248641150E+03  0.11105050702E+04  0.11454855383E+04  0.12500104747E+03 0.  0.
          2    1    1    2  501    0 -0.35540764612E+02  0.23924317469E+03 -0.36966189488E+03  0.44175825868E+03  0.00000000000E+00 0. -1.
          1    1    1    2  502    0 -0.31471814617E+02  0.32432368097E+01  0.13603148886E+03  0.13966230580E+03  0.00000000000E+00 0. -1.
         22    1    3    3    0    0  0.39266170657E+02 -0.74809641530E+02  0.17102345578E+03  0.19075465145E+03  0.00000000000E+00 0.  1.
         22    1    3    3    0    0  0.27746408571E+02 -0.16767676997E+03  0.93948161443E+03  0.95473088681E+03  0.00000000000E+00 0.  1.
</event>
<event>
 7    1  0.6681656E-006  0.9091121E+02  0.7818608E-02  0.1357478E+00
          2   -1    0    0  502    0  0.00000000000E+00  0.00000000000E+00  0.16751371574E+02  0.16751371574E+02  0.00000000000E+00 0. -1.
          1   -1    0    0  501    0 -0.00000000000E+00 -0.00000000000E+00 -0.25594674685E+04  0.25594674685E+04  0.00000000000E+00 0. -1.
         25    2    1    2    0    0 -0.11646407851E+03 -0.41223347396E+02 -0.99207690112E+03  0.10075242050E+04  0.12500079978E+03 0.  0.
          2    1    1    2  501    0  0.64133677424E+02  0.58467232602E+02 -0.14603158995E+04  0.14628923652E+04  0.00000000000E+00 0. -1.
          1    1    1    2  502    0  0.52330401091E+02 -0.17243885206E+02 -0.90323296325E+02  0.10580226989E+03  0.00000000000E+00 0. -1.
         22    1    3    3    0    0 -0.55733073689E+02 -0.72758791232E+02 -0.34963104187E+03  0.36144416255E+03  0.00000000000E+00 0.  1.
         22    1    3    3    0    0 -0.60731004826E+02  0.31535443836E+02 -0.64244585925E+03  0.64608004243E+03  0.00000000000E+00 0.  1.
</event>
<event>
 7    1  0.6681656E-006  0.5680962E+02  0.7818608E-02  0.1532856E+00
          2   -1    0    0  502    0  0.00000000000E+00  0.00000000000E+00  0.14007260593E+04  0.14007260593E+04  0.00000000000E+00 0. -1.
          1   -1    0    0  501    0 -0.00000000000E+00 -0.00000000000E+00 -0.26712568251E+02  0.26712568251E+02  0.00000000000E+00 0. -1.
         25    2    1    2    0    0  0.39213714916E+02  0.63852589315E+01  0.73855537369E+03  0.75011252852E+03  0.12500511382E+03 0.  0.
          2    1    1    2  501    0  0.17886668522E+02  0.15833591939E+02 -0.12167695240E+02  0.26808363470E+02  0.00000000000E+00 0. -1.
          1    1    1    2  502    0 -0.57100383438E+02 -0.22218850870E+02  0.64762581265E+03  0.65051773560E+03  0.00000000000E+00 0. -1.
         22    1    3    3    0    0  0.14971283142E+02 -0.22817089105E+02  0.30055038875E+02  0.40596357422E+02  0.00000000000E+00 0.  1.
         22    1    3    3    0    0  0.24242431774E+02  0.29202348037E+02  0.70850033481E+03  0.70951617110E+03  0.00000000000E+00 0.  1.
</event>
<event>
 7    1  0.7125903E-006  0.5747179E+02  0.7818608E-02  0.1424355E+00
          2   -1    0    0  502    0  0.00000000000E+00  0.00000000000E+00  0.62071928881E+03  0.62071928881E+03  0.00000000000E+00 0. -1.
          1   -1    0    0  501    0 -0.00000000000E+00 -0.00000000000E+00 -0.11244693242E+04  0.11244693242E+04  0.00000000000E+00 0. -1.
         25    2    1    2    0    0 -0.13946528523E+02 -0.56721370968E+02 -0.40065939693E+03  0.42375172440E+03  0.12500300795E+03 0.  0.
          2    1    1    2  501    0  0.53947660117E+02  0.25172973325E+02 -0.70995065374E+03  0.71244224984E+03  0.00000000000E+00 0. -1.
          1    1    1    2  502    0 -0.40001131594E+02  0.31548397642E+02  0.60686001528E+03  0.60899463878E+03  0.00000000000E+00 0. -1.
         22    1    3    3    0    0  0.28743207002E+02 -0.29725833073E+02 -0.34922258913E+03  0.35166207339E+03  0.00000000000E+00 0.  1.
         22    1    3    3    0    0 -0.42689735525E+02 -0.26995537895E+02 -0.51436807799E+02  0.72089651005E+02  0.00000000000E+00 0.  1.
</event>
<event>
 7    1  0.6681656E-006  0.8142091E+02  0.7818608E-02  0.1345199E+00
          2   -1    0    0  502    0  0.00000000000E+00  0.00000000000E+00  0.81393924910E+03  0.81393924910E+03  0.00000000000E+00 0. -1.
          1   -1    0    0  501    0 -0.00000000000E+00 -0.00000000000E+00 -0.10981933125E+03  0.10981933125E+03  0.00000000000E+00 0. -1.
         25    2    1    2    0    0  0.83112807070E+02  0.85776139148E+02  0.11573099913E+03  0.20806723395E+03  0.12503209564E+03 0.  0.
          2    1    1    2  501    0 -0.15451310248E+02 -0.76454687120E+02 -0.37177526154E+02  0.86407352823E+02  0.00000000000E+00 0. -1.
          1    1    1    2  502    0 -0.67661496821E+02 -0.93214520281E+01  0.62556644487E+03  0.62928399358E+03  0.00000000000E+00 0. -1.
         22    1    3    3    0    0  0.21392942509E+02 -0.29619289236E+02  0.54692665954E+01  0.36944189815E+02  0.00000000000E+00 0.  1.
         22    1    3    3    0    0  0.61719864560E+02  0.11539542838E+03  0.11026173254E+03  0.17112304414E+03  0.00000000000E+00 0.  1.
</event>
<event>
 7    1  0.6681656E-006  0.5575304E+02  0.7818608E-02  0.1438934E+00
          2   -1    0    0  502    0  0.00000000000E+00  0.00000000000E+00  0.26173652470E+03  0.26173652470E+03  0.00000000000E+00 0. -1.
          1   -1    0    0  501    0 -0.00000000000E+00 -0.00000000000E+00 -0.24337519863E+03  0.24337519863E+03  0.00000000000E+00 0. -1.
         25    2    1    2    0    0  0.62014230779E+01 -0.13882104720E+02 -0.22036486347E+02  0.12779133322E+03  0.12495538258E+03 0.  0.
          2    1    1    2  501    0  0.29077710742E+01  0.60024621887E+02 -0.16029521133E+03  0.17118985116E+03  0.00000000000E+00 0. -1.
          1    1    1    2  502    0 -0.91091941521E+01 -0.46142517167E+02  0.20069302375E+03  0.20613053895E+03  0.00000000000E+00 0. -1.
         22    1    3    3    0    0 -0.28234911749E+02  0.35164191608E+02 -0.44911480688E+02  0.63645673148E+02  0.00000000000E+00 0.  1.
         22    1    3    3    0    0  0.34436334827E+02 -0.49046296328E+02  0.22874994341E+02  0.64145660071E+02  0.00000000000E+00 0.  1.
</event>
<event>
 7    1  0.6681656E-006  0.2247356E+03  0.7818608E-02  0.1197158E+00
          2   -1    0    0  502    0  0.00000000000E+00  0.00000000000E+00  0.10173024476E+04  0.10173024476E+04  0.00000000000E+00 0. -1.
          1   -1    0    0  501    0 -0.00000000000E+00 -0.00000000000E+00 -0.92027262056E+03  0.92027262056E+03  0.00000000000E+00 0. -1.
         25    2    1    2    0    0 -0.30616477156E+03 -0.27838289861E+02 -0.11905487588E+03  0.35257907866E+03  0.12500442198E+03 0.  0.
          2    1    1    2  501    0  0.87564392621E+02  0.55729674069E+02 -0.66689893084E+03  0.67492777642E+03  0.00000000000E+00 0. -1.
          1    1    1    2  502    0  0.21860037894E+03 -0.27891384209E+02  0.88298363373E+03  0.91006821306E+03  0.00000000000E+00 0. -1.
         22    1    3    3    0    0 -0.15467481410E+02  0.17122191168E+02 -0.42924819687E+02  0.48733484964E+02  0.00000000000E+00 0.  1.
         22    1    3    3    0    0 -0.29069729015E+03 -0.44960481028E+02 -0.76130056192E+02  0.30384559370E+03  0.00000000000E+00 0.  1.
</event>
<event>
 7    1  0.6681656E-006  0.1530320E+03  0.7818608E-02  0.1285955E+00
          2   -1    0    0  502    0  0.00000000000E+00  0.00000000000E+00  0.32262245196E+04  0.32262245196E+04  0.00000000000E+00 0. -1.
          1   -1    0    0  501    0 -0.00000000000E+00 -0.00000000000E+00 -0.19329171134E+03  0.19329171134E+03  0.00000000000E+00 0. -1.
         25    2    1    2    0    0  0.45071157090E+02 -0.10477572960E+03  0.99783442958E+03  0.10120814387E+04  0.12500370799E+03 0.  0.
          2    1    1    2  501    0  0.47197529503E+02 -0.40106417897E+02 -0.17759446783E+03  0.18808489188E+03  0.00000000000E+00 0. -1.
          1    1    1    2  502    0 -0.92268686594E+02  0.14488214750E+03  0.22126928465E+04  0.22193499003E+04  0.00000000000E+00 0. -1.
         22    1    3    3    0    0  0.54460974082E+02 -0.12837803177E+03  0.74213131302E+03  0.75511972727E+03  0.00000000000E+00 0.  1.
         22    1    3    3    0    0 -0.93898169916E+01  0.23602302169E+02  0.25570311656E+03  0.25696171145E+03  0.00000000000E+00 0.  1.
</event>
<event>
 7    1  0.8358314E-006  0.6053617E+02  0.7818608E-02  0.1486334E+00
          2   -1    0    0  502    0  0.00000000000E+00  0.00000000000E+00  0.15098632741E+04  0.15098632741E+04  0.00000000000E+00 0. -1.
          1   -1    0    0  501    0 -0.00000000000E+00 -0.00000000000E+00 -0.95133200234E+03  0.95133200234E+03  0.00000000000E+00 0. -1.
         25    2    1    2    0    0  0.67406961195E+02 -0.36213537774E+02 -0.44640650921E+03  0.46984927270E+03  0.12499779541E+03 0.  0.
          2    1    1    2  501    0 -0.28895215944E+02 -0.10474887224E+02 -0.49211323361E+03  0.49307209560E+03  0.00000000000E+00 0. -1.
          1    1    1    2  502    0 -0.38511745250E+02  0.46688424997E+02  0.14970510146E+04  0.14982739082E+04  0.00000000000E+00 0. -1.
         22    1    3    3    0    0 -0.20384702637E+02 -0.46023105574E+02 -0.95020398706E+02  0.10752924495E+03  0.00000000000E+00 0.  1.
         22    1    3    3    0    0  0.87791663831E+02  0.98095678003E+01 -0.35138611050E+03  0.36232002775E+03  0.00000000000E+00 0.  1.
</event>
<event>
 7    1  0.6681656E-006  0.1777603E+03  0.7818608E-02  0.1333862E+00
          2   -1    0    0  502    0  0.00000000000E+00  0.00000000000E+00  0.20372050995E+04  0.20372050995E+04  0.00000000000E+00 0. -1.
          1   -1    0    0  501    0 -0.00000000000E+00 -0.00000000000E+00 -0.16712715706E+04  0.16712715706E+04  0.00000000000E+00 0. -1.
         25    2    1    2    0    0 -0.80613410770E+02 -0.12365341263E+03  0.67524927999E+02  0.20487411941E+03  0.12500040180E+03 0.  0.
          2    1    1    2  501    0  0.11074741679E+03  0.14048294056E+03 -0.15974474398E+04  0.16074323531E+04  0.00000000000E+00 0. -1.
          1    1    1    2  502    0 -0.30134006024E+02 -0.16829527937E+02  0.18958560407E+04  0.18961701976E+04  0.00000000000E+00 0. -1.
         22    1    3    3    0    0 -0.17228385686E+02 -0.12681789828E+03  0.58690039633E+02  0.14079814398E+03  0.00000000000E+00 0. -1.
         22    1    3    3    0    0 -0.63385025083E+02  0.31644856487E+01  0.88348883662E+01  0.64075975425E+02  0.00000000000E+00 0. -1.
</event>
<event>
 7    1  0.6681656E-006  0.4325846E+02  0.7818608E-02  0.1527487E+00
          2   -1    0    0  502    0  0.00000000000E+00  0.00000000000E+00  0.22124230864E+04  0.22124230864E+04  0.00000000000E+00 0. -1.
          1   -1    0    0  501    0 -0.00000000000E+00 -0.00000000000E+00 -0.53985806641E+01  0.53985806641E+01  0.00000000000E+00 0. -1.
         25    2    1    2    0    0 -0.48827988447E+02  0.39031192119E+02  0.16207211483E+04  0.16267356786E+04  0.12499728442E+03 0.  0.
          2    1    1    2  501    0  0.32248828534E+02 -0.40486593611E+01  0.17728407610E+03  0.18023879223E+03  0.00000000000E+00 0. -1.
          1    1    1    2  502    0  0.16579159913E+02 -0.34982532758E+02  0.40901928138E+03  0.41084719627E+03  0.00000000000E+00 0. -1.
         22    1    3    3    0    0 -0.61599998952E+02  0.72883379796E+02  0.13817109059E+04  0.13850023734E+04  0.00000000000E+00 0.  1.
         22    1    3    3    0    0  0.12772010505E+02 -0.33852187678E+02  0.23901024236E+03  0.24173330514E+03  0.00000000000E+00 0.  1.
</event>
<event>
 7    1  0.6681656E-006  0.1168886E+03  0.7818608E-02  0.1318933E+00
          2   -1    0    0  502    0  0.00000000000E+00  0.00000000000E+00  0.37077387176E+03  0.37077387176E+03  0.00000000000E+00 0. -1.
          1   -1    0    0  501    0 -0.00000000000E+00 -0.00000000000E+00 -0.14733151562E+04  0.14733151562E+04  0.00000000000E+00 0. -1.
         25    2    1    2    0    0  0.33548256292E+02  0.14285225885E+03 -0.34036466361E+03  0.39115900489E+03  0.12500003804E+03 0.  0.
          2    1    1    2  501    0  0.18410031119E+02 -0.11304760974E+03 -0.11019654501E+04  0.11079018659E+04  0.00000000000E+00 0. -1.
          1    1    1    2  502    0 -0.51958287411E+02 -0.29804649106E+02  0.33978882926E+03  0.34502815716E+03  0.00000000000E+00 0. -1.
         22    1    3    3    0    0 -0.46301533045E+02  0.62356585392E+02 -0.16449510412E+03  0.18190880953E+03  0.00000000000E+00 0. -1.
         22    1    3    3    0    0  0.79849789337E+02  0.80495673459E+02 -0.17586955949E+03  0.20925019536E+03  0.00000000000E+00 0. -1.
</event>
<event>
 7    1  0.6681656E-006  0.9874071E+02  0.7818608E-02  0.1294586E+00
          2   -1    0    0  502    0  0.00000000000E+00  0.00000000000E+00  0.28997933407E+04  0.28997933407E+04  0.00000000000E+00 0. -1.
          1   -1    0    0  501    0 -0.00000000000E+00 -0.00000000000E+00 -0.19727063644E+04  0.19727063644E+04  0.00000000000E+00 0. -1.
         25    2    1    2    0    0 -0.56071249289E+01 -0.16248860965E+03  0.64965598034E+03  0.68125872226E+03  0.12500626283E+03 0.  0.
          2    1    1    2  501    0 -0.40530369554E+02  0.78720454934E+02 -0.19548791558E+04  0.19568832706E+04  0.00000000000E+00 0. -1.
          1    1    1    2  502    0  0.46137494483E+02  0.83768154718E+02  0.22323101518E+04  0.22343577122E+04  0.00000000000E+00 0. -1.
         22    1    3    3    0    0 -0.57156599099E+02 -0.79390941111E+02  0.42721244888E+03  0.43826963713E+03  0.00000000000E+00 0.  1.
         22    1    3    3    0    0  0.51549474171E+02 -0.83097668542E+02  0.22244353146E+03  0.24298908513E+03  0.00000000000E+00 0.  1.
</event>
<event>
 7    1  0.6681656E-006  0.4452141E+02  0.7818608E-02  0.1567364E+00
          2   -1    0    0  502    0  0.00000000000E+00  0.00000000000E+00  0.12318126543E+03  0.12318126543E+03  0.00000000000E+00 0. -1.
          1   -1    0    0  501    0 -0.00000000000E+00 -0.00000000000E+00 -0.28621825763E+03  0.28621825763E+03  0.00000000000E+00 0. -1.
         25    2    1    2    0    0  0.57169127068E+01 -0.22116245626E+02 -0.94172069085E+02  0.15816171115E+03  0.12499974747E+03 0.  0.
          2    1    1    2  501    0 -0.57634253464E+01  0.46537943822E+02 -0.15487977478E+03  0.16182318104E+03  0.00000000000E+00 0. -1.
          1    1    1    2  502    0  0.46512639641E-01 -0.24421698196E+02  0.86014851662E+02  0.89414630865E+02  0.00000000000E+00 0. -1.
         22    1    3    3    0    0 -0.59530130787E+02 -0.13170272699E+02 -0.40395814250E+02  0.73137639854E+02  0.00000000000E+00 0. -1.
         22    1    3    3    0    0  0.65247043494E+02 -0.89459729264E+01 -0.53776254836E+02  0.85024071300E+02  0.00000000000E+00 0. -1.
</event>
<event>
 7    1  0.6681656E-006  0.1507695E+03  0.7818608E-02  0.1297188E+00
          2   -1    0    0  502    0  0.00000000000E+00  0.00000000000E+00  0.22087880632E+04  0.22087880632E+04  0.00000000000E+00 0. -1.
          1   -1    0    0  501    0 -0.00000000000E+00 -0.00000000000E+00 -0.49492714357E+03  0.49492714357E+03  0.00000000000E+00 0. -1.
         25    2    1    2    0    0  0.12629149424E+03 -0.23945880279E+02 -0.13513944579E+02  0.17980987427E+03  0.12500406988E+03 0.  0.
          2    1    1    2  501    0 -0.15404111137E+03 -0.25388920733E+02 -0.38257143975E+03  0.41319991264E+03  0.00000000000E+00 0. -1.
          1    1    1    2  502    0  0.27749617133E+02  0.49334801012E+02  0.21099463040E+04  0.21107054199E+04  0.00000000000E+00 0. -1.
         22    1    3    3    0    0 -0.18542697420E+02  0.20516326115E+02 -0.46798569553E+01  0.28047322973E+02  0.00000000000E+00 0. -1.
         22    1    3    3    0    0  0.14483419166E+03 -0.44462206394E+02 -0.88340876238E+01  0.15176255129E+03  0.00000000000E+00 0. -1.
</event>
<event>
 7    1  0.6681656E-006  0.1500647E+03  0.7818608E-02  0.1347950E+00
          2   -1    0    0  502    0  0.00000000000E+00  0.00000000000E+00  0.22601134039E+04  0.22601134039E+04  0.00000000000E+00 0. -1.
          1   -1    0    0  501    0 -0.00000000000E+00 -0.00000000000E+00 -0.35487830711E+03  0.35487830711E+03  0.00000000000E+00 0. -1.
         25    2    1    2    0    0  0.15429054680E+03 -0.91570124783E+02  0.41921348582E+03  0.47281766287E+03  0.12500374014E+03 0.  0.
          2    1    1    2  501    0 -0.35897734214E+02  0.46224321342E+01 -0.32409369311E+03  0.32610847293E+03  0.00000000000E+00 0. -1.
          1    1    1    2  502    0 -0.11839281258E+03  0.86947692649E+02  0.18101153041E+04  0.18160655752E+04  0.00000000000E+00 0. -1.
         22    1    3    3    0    0  0.28549734747E+02 -0.29181224969E+02  0.24838234900E+03  0.25171496289E+03  0.00000000000E+00 0.  1.
         22    1    3    3    0    0  0.12574081205E+03 -0.62388899815E+02  0.17083113682E+03  0.22110269999E+03  0.00000000000E+00 0.  1.
</event>
<event>
 7    1  0.6681656E-006  0.5221365E+02  0.7818608E-02  0.1455489E+00
          2   -1    0    0  502    0  0.00000000000E+00  0.00000000000E+00  0.25816886152E+04  0.25816886152E+04  0.00000000000E+00 0. -1.
          1   -1    0    0  501    0 -0.00000000000E+00 -0.00000000000E+00 -0.95079521079E+03  0.95079521079E+03  0.00000000000E+00 0. -1.
         25    2    1    2    0    0  0.35963479330E+02 -0.65112239400E+02  0.20929369985E+03  0.25487537049E+03  0.12499850449E+03 0.  0.
          2    1    1    2  501    0 -0.47259785898E+02  0.22138801153E+02 -0.92706034517E+03  0.92852813499E+03  0.00000000000E+00 0. -1.
          1    1    1    2  502    0  0.11296306568E+02  0.42973438247E+02  0.23486600498E+04  0.23490803206E+04  0.00000000000E+00 0. -1.
         22    1    3    3    0    0  0.79491097116E+02 -0.27461474484E+02  0.15171376523E+03  0.17346479084E+03  0.00000000000E+00 0.  1.
         22    1    3    3    0    0 -0.43527617786E+02 -0.37650764916E+02  0.57579934616E+02  0.81410579652E+02  0.00000000000E+00 0.  1.
</event>
<event>
 7    1  0.6681656E-006  0.1815069E+03  0.7818608E-02  0.1236106E+00
          2   -1    0    0  502    0  0.00000000000E+00  0.00000000000E+00  0.14320673000E+04  0.14320673000E+04  0.00000000000E+00 0. -1.
          1   -1    0    0  501    0 -0.00000000000E+00 -0.00000000000E+00 -0.85260288596E+02  0.85260288596E+02  0.00000000000E+00 0. -1.
         25    2    1    2    0    0 -0.60700200880E+02 -0.15695799913E+03  0.33092582334E+03  0.39173573474E+03  0.12499862976E+03 0.  0.
          2    1    1    2  501    0  0.79110351001E+02 -0.31568420155E+02 -0.68644706915E+01  0.85452523336E+02  0.00000000000E+00 0. -1.
          1    1    1    2  502    0 -0.18410150121E+02  0.18852641928E+03  0.10227456587E+04  0.10401393305E+04  0.00000000000E+00 0. -1.
         22    1    3    3    0    0  0.30731800180E+02 -0.75127580113E+02  0.88895617967E+02  0.12037868470E+03  0.00000000000E+00 0. -1.
         22    1    3    3    0    0 -0.91432001060E+02 -0.81830419014E+02  0.24203020538E+03  0.27135705004E+03  0.00000000000E+00 0. -1.
</event>
<event>
 7    1  0.6681656E-006  0.1206688E+03  0.7818608E-02  0.1259933E+00
          2   -1    0    0  502    0  0.00000000000E+00  0.00000000000E+00  0.68093804469E+03  0.68093804469E+03  0.00000000000E+00 0. -1.
          1   -1    0    0  501    0 -0.00000000000E+00 -0.00000000000E+00 -0.13706703036E+04  0.13706703036E+04  0.00000000000E+00 0. -1.
         25    2    1    2    0    0 -0.43573726311E+01  0.18259029323E+03 -0.33921078147E+03  0.40502703228E+03  0.12499896291E+03 0.  0.
          2    1    1    2  501    0 -0.56317909579E+02 -0.10196681209E+03 -0.99119205284E+03  0.99801333825E+03  0.00000000000E+00 0. -1.
          1    1    1    2  502    0  0.60675282210E+02 -0.80623481141E+02  0.64067057541E+03  0.64856797776E+03  0.00000000000E+00 0. -1.
         22    1    3    3    0    0  0.21150445964E+01  0.57050962436E+02 -0.17630495321E+02  0.59750481954E+02  0.00000000000E+00 0. -1.
         22    1    3    3    0    0 -0.64724172275E+01  0.12553933079E+03 -0.32158028615E+03  0.34527655032E+03  0.00000000000E+00 0. -1.
</event>
<event>
 7    1  0.6681656E-006  0.1224191E+03  0.7818608E-02  0.1410337E+00
          2   -1    0    0  502    0  0.00000000000E+00  0.00000000000E+00  0.46211237025E+03  0.46211237025E+03  0.00000000000E+00 0. -1.
          1   -1    0    0  501    0 -0.00000000000E+00 -0.00000000000E+00 -0.17645150718E+03  0.17645150718E+03  0.00000000000E+00 0. -1.
         25    2    1    2    0    0  0.77643379543E+02  0.63823619880E+02  0.12471348076E+03  0.20317531464E+03  0.12499922941E+03 0.  0.
          2    1    1    2  501    0 -0.10207828831E+03 -0.74462610916E+02 -0.10733398531E+03  0.16578673581E+03  0.00000000000E+00 0. -1.
          1    1    1    2  502    0  0.24434908771E+02  0.10638991036E+02  0.26828136762E+03  0.26960182698E+03  0.00000000000E+00 0. -1.
         22    1    3    3    0    0 -0.17589870883E+02  0.55250775108E+02  0.19908398448E+02  0.61305758592E+02  0.00000000000E+00 0. -1.
         22    1    3    3    0    0  0.95233250426E+02  0.85728447717E+01  0.10480508232E+03  0.14186955605E+03  0.00000000000E+00 0. -1.
</event>
<event>
 7    1  0.6681656E-006  0.9860079E+02  0.7818608E-02  0.1352531E+00
          2   -1    0    0  502    0  0.00000000000E+00  0.00000000000E+00  0.16473539245E+04  0.16473539245E+04  0.00000000000E+00 0. -1.
          1   -1    0    0  501    0 -0.00000000000E+00 -0.00000000000E+00 -0.57151169711E+03  0.57151169711E+03  0.00000000000E+00 0. -1.
         25    2    1    2    0    0 -0.68971085412E+02 -0.26798680792E+02  0.18275423009E+02  0.14640691987E+03  0.12500326069E+03 0.  0.
          2    1    1    2  501    0 -0.28935609268E+02  0.44374080031E+02 -0.50447705128E+03  0.50725084892E+03  0.00000000000E+00 0. -1.
          1    1    1    2  502    0  0.97906694680E+02 -0.17575399238E+02  0.15620438556E+04  0.15652078528E+04  0.00000000000E+00 0. -1.
         22    1    3    3    0    0 -0.86977335760E+02  0.18268587081E+02 -0.11274086606E+02  0.89587405581E+02  0.00000000000E+00 0.  1.
         22    1    3    3    0    0  0.18006250348E+02 -0.45067267874E+02  0.29549509615E+02  0.56819514286E+02  0.00000000000E+00 0.  1.
</event>
<event>
 7    1  0.6681656E-006  0.1902710E+03  0.7818608E-02  0.1300675E+00
          2   -1    0    0  502    0  0.00000000000E+00  0.00000000000E+00  0.55787029464E+03  0.55787029464E+03  0.00000000000E+00 0. -1.
          1   -1    0    0  501    0 -0.00000000000E+00 -0.00000000000E+00 -0.12924743348E+04  0.12924743348E+04  0.00000000000E+00 0. -1.
         25    2    1    2    0    0 -0.10181215160E+03 -0.17626868575E+03  0.22092542629E+00  0.23887426873E+03  0.12499801464E+03 0.  0.
          2    1    1    2  501    0  0.12700579956E+03  0.14089149228E+03 -0.11643778882E+04  0.11797274059E+04  0.00000000000E+00 0. -1.
          1    1    1    2  502    0 -0.25193647966E+02  0.35377193463E+02  0.42955292261E+03  0.43174295482E+03  0.00000000000E+00 0. -1.
         22    1    3    3    0    0  0.20287026592E+02 -0.77317718851E+02 -0.13691153208E+02  0.81098956667E+02  0.00000000000E+00 0.  1.
         22    1    3    3    0    0 -0.12209917819E+03 -0.98950966894E+02  0.13912078634E+02  0.15777531206E+03  0.00000000000E+00 0.  1.
</event>
<event>
 7    1  0.6681656E-006  0.1415878E+03  0.7818608E-02  0.1368493E+00
          2   -1    0    0  502    0  0.00000000000E+00  0.00000000000E+00  0.14632110606E+04  0.14632110606E+04  0.00000000000E+00 0. -1.
          1   -1    0    0  501    0 -0.00000000000E+00 -0.00000000000E+00 -0.11204233522E+04  0.11204233522E+04  0.00000000000E+00 0. -1.
         25    2    1    2    0    0  0.17029171530E+03 -0.27270892139E+02  0.12078070109E+03  0.24486319252E+03  0.12500814150E+03 0.  0.
          2    1    1    2  501    0 -0.13803231536E+03  0.27781084096E+02 -0.10534944266E+04  0.10628618045E+04  0.00000000000E+00 0. -1.
          1    1    1    2  502    0 -0.32259399937E+02 -0.51019195634E+00  0.12755014339E+04  0.12759094157E+04  0.00000000000E+00 0. -1.
         22    1    3    3    0    0  0.13526126419E+02 -0.48764786508E+02  0.96835832811E+01  0.51524094211E+02  0.00000000000E+00 0. -1.
         22    1    3    3    0    0  0.15676558888E+03  0.21493894369E+02  0.11109711781E+03  0.19333909831E+03  0.00000000000E+00 0. -1.
</event>
<event>
 7    1  0.6681656E-006  0.7927436E+02  0.7818608E-02  0.1430279E+00
          2   -1    0    0  502    0  0.00000000000E+00  0.00000000000E+00  0.13067513772E+04  0.13067513772E+04  0.00000000000E+00 0. -1.
          1   -1    0    0  501    0 -0.00000000000E+00 -0.00000000000E+00 -0.93539826079E+02  0.93539826079E+02  0.00000000000E+00 0. -1.
         25    2    1    2    0    0 -0.91090924703E+02 -0.21244634495E+02  0.34042905909E+03  0.37452099785E+03  0.12500056999E+03 0.  0.
          2    1    1    2  501    0  0.13452373569E+02  0.32642336634E+02 -0.70702592891E+02  0.79027496082E+02  0.00000000000E+00 0. -1.
          1    1    1    2  502    0  0.77638551134E+02 -0.11397702138E+02  0.94348508488E+03  0.94674270930E+03  0.00000000000E+00 0. -1.
         22    1    3    3    0    0 -0.10130526539E+03  0.23064069209E+02  0.28168172354E+03  0.30023207934E+03  0.00000000000E+00 0.  1.
         22    1    3    3    0    0  0.10214340688E+02 -0.44308703704E+02  0.58747335549E+02  0.74288918512E+02  0.00000000000E+00 0.  1.
</event>
<event>
 7    1  0.6681656E-006  0.1635007E+03  0.7818608E-02  0.1349570E+00
          2   -1    0    0  502    0  0.00000000000E+00  0.00000000000E+00  0.35323132816E+03  0.35323132816E+03  0.00000000000E+00 0. -1.
          1   -1    0    0  501    0 -0.00000000000E+00 -0.00000000000E+00 -0.12850227690E+04  0.12850227690E+04  0.00000000000E+00 0. -1.
         25    2    1    2    0    0  0.29142874909E+02  0.13759907186E+03 -0.60780453578E+02  0.19774319699E+03  0.12500118672E+03 0.  0.
          2    1    1    2  501    0 -0.11480218321E+02 -0.16519304815E+03 -0.11488622587E+04  0.11607346932E+04  0.00000000000E+00 0. -1.
          1    1    1    2  502    0 -0.17662656587E+02  0.27593976282E+02  0.27785127142E+03  0.27977620698E+03  0.00000000000E+00 0. -1.
         22    1    3    3    0    0 -0.14296886850E+02 -0.19600289879E+02 -0.18460786981E+01  0.24330646180E+02  0.00000000000E+00 0.  1.
         22    1    3    3    0    0  0.43439761759E+02  0.15719936174E+03 -0.58934374880E+02  0.17341255081E+03  0.00000000000E+00 0.  1.
</event>
<event>
 7    1  0.6681656E-006  0.4880913E+02  0.7818608E-02  0.1463719E+00
          2   -1    0    0  502    0  0.00000000000E+00  0.00000000000E+00  0.13839572780E+03  0.13839572780E+03  0.00000000000E+00 0. -1.
          1   -1    0    0  501    0 -0.00000000000E+00 -0.00000000000E+00 -0.86338574704E+03  0.86338574704E+03  0.00000000000E+00 0. -1.
         25    2    1    2    0    0  0.28291895461E+02  0.60517605793E+02 -0.27446091868E+03  0.30887846909E+03  0.12495719599E+03 0.  0.
          2    1    1    2  501    0 -0.42572133787E+02 -0.13864079022E+02 -0.56588498421E+03  0.56765342826E+03  0.00000000000E+00 0. -1.
          1    1    1    2  502    0  0.14280238326E+02 -0.46653526771E+02  0.11535588365E+03  0.12524957748E+03  0.00000000000E+00 0. -1.
         22    1    3    3    0    0 -0.81018753728E+00  0.42875658533E+02 -0.12432294390E+02  0.44649081091E+02  0.00000000000E+00 0.  1.
         22    1    3    3    0    0  0.29102082998E+02  0.17641947260E+02 -0.26202862429E+03  0.26422938800E+03  0.00000000000E+00 0.  1.
</event>
<event>
 7    1  0.6681656E-006  0.6209849E+02  0.7818608E-02  0.1470596E+00
          2   -1    0    0  502    0  0.00000000000E+00  0.00000000000E+00  0.51429054737E+03  0.51429054737E+03  0.00000000000E+00 0. -1.
          1   -1    0    0  501    0 -0.00000000000E+00 -0.00000000000E+00 -0.17477485737E+04  0.17477485737E+04  0.00000000000E+00 0. -1.
         25    2    1    2    0    0 -0.30112125150E+02 -0.35941088716E+02  0.83408027378E+02  0.15741713708E+03  0.12499901630E+03 0.  0.
          2    1    1    2  501    0  0.85932928783E+01  0.61606903966E+02 -0.17094653056E+04  0.17105966463E+04  0.00000000000E+00 0. -1.
          1    1    1    2  502    0  0.21518832272E+02 -0.25665815250E+02  0.39259925185E+03  0.39402533772E+03  0.00000000000E+00 0. -1.
         22    1    3    3    0    0 -0.20399329869E+02 -0.69895781166E+02  0.95497358262E+02  0.12008871021E+03  0.00000000000E+00 0. -1.
         22    1    3    3    0    0 -0.97127952817E+01  0.33954692450E+02 -0.12089330883E+02  0.37328426872E+02  0.00000000000E+00 0. -1.
</event>
<event>
 7    1  0.6681656E-006  0.8936005E+02  0.7818608E-02  0.1329726E+00
          2   -1    0    0  502    0  0.00000000000E+00  0.00000000000E+00  0.10642888527E+04  0.10642888527E+04  0.00000000000E+00 0. -1.
          1   -1    0    0  501    0 -0.00000000000E+00 -0.00000000000E+00 -0.13582624987E+04  0.13582624987E+04  0.00000000000E+00 0. -1.
         25    2    1    2    0    0  0.75122557984E+02  0.11384821924E+03  0.18315173391E+02  0.18591315049E+03  0.12499375267E+03 0.  0.
          2    1    1    2  501    0 -0.66397641171E+02 -0.25695139130E+02 -0.12714265907E+04  0.12734184161E+04  0.00000000000E+00 0. -1.
          1    1    1    2  502    0 -0.87249168130E+01 -0.88153080109E+02  0.95913777129E+03  0.96321978490E+03  0.00000000000E+00 0. -1.
         22    1    3    3    0    0  0.14606874562E+02 -0.24469523391E+02 -0.13636876040E+02  0.31592447635E+02  0.00000000000E+00 0. -1.
         22    1    3    3    0    0  0.60515683422E+02  0.13831774263E+03  0.31952049430E+02  0.15432070285E+03  0.00000000000E+00 0. -1.
</event>
<event>
 7    1  0.6681656E-006  0.7985266E+02  0.7818608E-02  0.1393129E+00
          2   -1    0    0  502    0  0.00000000000E+00  0.00000000000E+00  0.14249782731E+04  0.14249782731E+04  0.00000000000E+00 0. -1.
          1   -1    0    0  501    0 -0.00000000000E+00 -0.00000000000E+00 -0.74173809232E+02  0.74173809232E+02  0.00000000000E+00 0. -1.
         25    2    1    2    0    0 -0.41351016923E+02 -0.16684795631E+02  0.14231073981E+03  0.19459131726E+03  0.12500058032E+03 0.  0.
          2    1    1    2  501    0 -0.40246092476E+02  0.23894914870E+02 -0.34954756350E+02  0.58417034397E+02  0.00000000000E+00 0. -1.
          1    1    1    2  502    0  0.81597109399E+02 -0.72101192392E+01  0.12434484804E+04  0.12461437307E+04  0.00000000000E+00 0. -1.
         22    1    3    3    0    0 -0.39100468988E+01  0.16993369530E+02  0.14316687091E+03  0.14422487997E+03  0.00000000000E+00 0.  1.
         22    1    3    3    0    0 -0.37440970024E+02 -0.33678165161E+02 -0.85613110015E+00  0.50366437291E+02  0.00000000000E+00 0.  1.
</event>
<event>
 7    1  0.6681656E-006  0.1134853E+03  0.7818608E-02  0.1345482E+00
          2   -1    0    0  502    0  0.00000000000E+00  0.00000000000E+00  0.20684788410E+04  0.20684788410E+04  0.00000000000E+00 0. -1.
          1   -1    0    0  501    0 -0.00000000000E+00 -0.00000000000E+00 -0.23994486158E+03  0.23994486158E+03  0.00000000000E+00 0. -1.
         25    2    1    2    0    0  0.88193217894E+02  0.54527221364E+02  0.37080545133E+02  0.16658598567E+03  0.12499864897E+03 0.  0.
          2    1    1    2  501    0  0.25096806555E+02 -0.41949986522E+02 -0.17009504292E+03  0.17698015339E+03  0.00000000000E+00 0. -1.
          1    1    1    2  502    0 -0.11329002445E+03 -0.12577234841E+02  0.19615484773E+04  0.19648575636E+04  0.00000000000E+00 0. -1.
         22    1    3    3    0    0  0.12016795191E+02  0.18923194590E+02 -0.44249035801E+02  0.49603103023E+02  0.00000000000E+00 0.  1.
         22    1    3    3    0    0  0.76176422702E+02  0.35604026774E+02  0.81329580935E+02  0.11698288265E+03  0.00000000000E+00 0.  1.
</event>
<event>
 7    1  0.6681656E-006  0.8383872E+02  0.7818608E-02  0.1474507E+00
          2   -1    0    0  502    0  0.00000000000E+00  0.00000000000E+00  0.21834270173E+04  0.21834270173E+04  0.00000000000E+00 0. -1.
          1   -1    0    0  501    0 -0.00000000000E+00 -0.00000000000E+00 -0.11445316556E+03  0.11445316556E+03  0.00000000000E+00 0. -1.
         25    2    1    2    0    0  0.33015150582E+02 -0.61358732437E+02  0.14199059401E+01  0.14311628257E+03  0.12500143996E+03 0.  0.
          2    1    1    2  501    0 -0.13076484022E+02 -0.20273868364E+02 -0.39365160784E+02  0.46169687635E+02  0.00000000000E+00 0. -1.
          1    1    1    2  502    0 -0.19938666560E+02  0.81632600801E+02  0.21069191066E+04  0.21085942127E+04  0.00000000000E+00 0. -1.
         22    1    3    3    0    0  0.43878093003E+02 -0.14702022354E+02 -0.53170148259E+02  0.70487595879E+02  0.00000000000E+00 0. -1.
         22    1    3    3    0    0 -0.10862942421E+02 -0.46656710083E+02  0.54590054199E+02  0.72628686696E+02  0.00000000000E+00 0. -1.
</event>
<event>
 7    1  0.6681656E-006  0.1932921E+03  0.7818608E-02  0.1279085E+00
          2   -1    0    0  502    0  0.00000000000E+00  0.00000000000E+00  0.34254687772E+04  0.34254687772E+04  0.00000000000E+00 0. -1.
          1   -1    0    0  501    0 -0.00000000000E+00 -0.00000000000E+00 -0.80238254359E+03  0.80238254359E+03  0.00000000000E+00 0. -1.
         25    2    1    2    0    0 -0.70447038708E+02 -0.15705759233E+03 -0.18058827381E+03  0.27904689481E+03  0.12500068918E+03 0.  0.
          2    1    1    2  501    0 -0.51869153862E+02  0.69685940973E+01 -0.56858635494E+03  0.57098985407E+03  0.00000000000E+00 0. -1.
          1    1    1    2  502    0  0.12231619257E+03  0.15008899823E+03  0.33722608624E+04  0.33778145719E+04  0.00000000000E+00 0. -1.
         22    1    3    3    0    0 -0.10593255282E+03 -0.10188222754E+03 -0.11987517526E+03  0.18966220414E+03  0.00000000000E+00 0. -1.
         22    1    3    3    0    0  0.35485514111E+02 -0.55175364787E+02 -0.60713098549E+02  0.89384690672E+02  0.00000000000E+00 0. -1.
</event>
<event>
 7    1  0.6681656E-006  0.1301964E+03  0.7818608E-02  0.1416618E+00
          2   -1    0    0  502    0  0.00000000000E+00  0.00000000000E+00  0.52148554774E+03  0.52148554774E+03  0.00000000000E+00 0. -1.
          1   -1    0    0  501    0 -0.00000000000E+00 -0.00000000000E+00 -0.64692195606E+03  0.64692195606E+03  0.00000000000E+00 0. -1.
         25    2    1    2    0    0  0.12161369314E+03  0.66827606968E+02  0.13714765180E+03  0.23171205811E+03  0.12500072027E+03 0.  0.
          2    1    1    2  501    0 -0.12262333831E+03 -0.42983036858E+02 -0.59216395999E+03  0.60625257118E+03  0.00000000000E+00 0. -1.
          1    1    1    2  502    0  0.10096451768E+01 -0.23844570109E+02  0.32957989987E+03  0.33044287450E+03  0.00000000000E+00 0. -1.
         22    1    3    3    0    0  0.90593581141E+02  0.17717059004E+02  0.14622074221E+03  0.17292078122E+03  0.00000000000E+00 0. -1.
         22    1    3    3    0    0  0.31020111996E+02  0.49110547963E+02 -0.90730904103E+01  0.58791276896E+02  0.00000000000E+00 0. -1.
</event>
<event>
 7    1  0.6681656E-006  0.4666284E+02  0.7818608E-02  0.1517796E+00
          2   -1    0    0  502    0  0.00000000000E+00  0.00000000000E+00  0.14156531831E+04  0.14156531831E+04  0.00000000000E+00 0. -1.
          1   -1    0    0  501    0 -0.00000000000E+00 -0.00000000000E+00 -0.68910070623E+03  0.68910070623E+03  0.00000000000E+00 0. -1.
         25    2    1    2    0    0  0.26828441680E+01  0.61263848806E+02  0.22172844965E+03  0.26181884413E+03  0.12500057974E+03 0.  0.
          2    1    1    2  501    0 -0.24861260825E+02 -0.20369437317E+02 -0.66820818554E+03  0.66898069889E+03  0.00000000000E+00 0. -1.
          1    1    1    2  502    0  0.22178416657E+02 -0.40894411490E+02  0.11730322128E+04  0.11739543463E+04  0.00000000000E+00 0. -1.
         22    1    3    3    0    0  0.47138690199E+02  0.35303597191E+00  0.15189456227E+03  0.15904131160E+03  0.00000000000E+00 0. -1.
         22    1    3    3    0    0 -0.44455846031E+02  0.60910812834E+02  0.69833887377E+02  0.10277753253E+03  0.00000000000E+00 0. -1.
</event>
<event>
 7    1  0.6681656E-006  0.8469942E+02  0.7818608E-02  0.1332224E+00
          2   -1    0    0  502    0  0.00000000000E+00  0.00000000000E+00  0.36652754640E+03  0.36652754640E+03  0.00000000000E+00 0. -1.
          1   -1    0    0  501    0 -0.00000000000E+00 -0.00000000000E+00 -0.93945186938E+03  0.93945186938E+03  0.00000000000E+00 0. -1.
         25    2    1    2    0    0 -0.72689406108E+02  0.68400985609E+02  0.21147851612E+02  0.16135446508E+03  0.12500234870E+03 0.  0.
          2    1    1    2  501    0  0.71370960631E+02  0.17493079165E+02 -0.86104334791E+03  0.86417328634E+03  0.00000000000E+00 0. -1.
          1    1    1    2  502    0  0.13184454774E+01 -0.85894064774E+02  0.26697117331E+03  0.28045166436E+03  0.00000000000E+00 0. -1.
         22    1    3    3    0    0  0.31380913316E+02  0.31229157034E+02 -0.12200924879E+02  0.45922592888E+02  0.00000000000E+00 0. -1.
         22    1    3    3    0    0 -0.10407031942E+03  0.37171828575E+02  0.33348776490E+02  0.11543187219E+03  0.00000000000E+00 0. -1.
</event>
<event>
 7    1  0.6681656E-006  0.1008308E+03  0.7818608E-02  0.1444377E+00
          2   -1    0    0  502    0  0.00000000000E+00  0.00000000000E+00  0.12521875304E+04  0.12521875304E+04  0.00000000000E+00 0. -1.
          1   -1    0    0  501    0 -0.00000000000E+00 -0.00000000000E+00 -0.17165808973E+04  0.17165808973E+04  0.00000000000E+00 0. -1.
         25    2    1    2    0    0  0.18161510698E+02 -0.10237545850E+03  0.33253266638E+03  0.37015373317E+03  0.12500094798E+03 0.  0.
          2    1    1    2  501    0  0.67476911446E+01  0.10060428447E+03 -0.16960997873E+04  0.16990942416E+04  0.00000000000E+00 0. -1.
          1    1    1    2  502    0 -0.24909201842E+02  0.17711740245E+01  0.89917375401E+03  0.89952045296E+03  0.00000000000E+00 0. -1.
         22    1    3    3    0    0 -0.32399920845E+02  0.14165239759E+02  0.65173102770E+02  0.74148109974E+02  0.00000000000E+00 0. -1.
         22    1    3    3    0    0  0.50561431542E+02 -0.11654069826E+03  0.26735956361E+03  0.29600562319E+03  0.00000000000E+00 0. -1.
</event>
<event>
 7    1  0.6681656E-006  0.6948618E+02  0.7818608E-02  0.1478529E+00
          2   -1    0    0  502    0  0.00000000000E+00  0.00000000000E+00  0.44940152746E+03  0.44940152746E+03  0.00000000000E+00 0. -1.
          1   -1    0    0  501    0 -0.00000000000E+00 -0.00000000000E+00 -0.88543454994E+03  0.88543454994E+03  0.00000000000E+00 0. -1.
         25    2    1    2    0    0  0.34942096164E+02 -0.69745802431E+02  0.19944296876E+03  0.24796785248E+03  0.12500052415E+03 0.  0.
          2    1    1    2  501    0  0.15697043418E+02  0.23534417310E+02 -0.85572706808E+03  0.85619453456E+03  0.00000000000E+00 0. -1.
          1    1    1    2  502    0 -0.50639139582E+02  0.46211385121E+02  0.22025107684E+03  0.23067369036E+03  0.00000000000E+00 0. -1.
         22    1    3    3    0    0  0.38994825866E+02  0.10668766720E+02  0.93056624618E+01  0.41485110359E+02  0.00000000000E+00 0. -1.
         22    1    3    3    0    0 -0.40527297017E+01 -0.80414569151E+02  0.19013730630E+03  0.20648274212E+03  0.00000000000E+00 0. -1.
</event>
<event>
 7    1  0.6681656E-006  0.2291428E+03  0.7818608E-02  0.1141032E+00
          2   -1    0    0  502    0  0.00000000000E+00  0.00000000000E+00  0.35417697229E+04  0.35417697229E+04  0.00000000000E+00 0. -1.
          1   -1    0    0  501    0 -0.00000000000E+00 -0.00000000000E+00 -0.11861329842E+04  0.11861329842E+04  0.00000000000E+00 0. -1.
         25    2    1    2    0    0 -0.13382479324E+01 -0.10911823385E+03  0.53135360381E+02  0.17423096564E+03  0.12499793199E+03 0.  0.
          2    1    1    2  501    0 -0.19032732344E+03 -0.35968695166E+02 -0.11129962780E+04  0.11297251665E+04  0.00000000000E+00 0. -1.
          1    1    1    2  502    0  0.19166557137E+03  0.14508692901E+03  0.34154976563E+04  0.34239465750E+04  0.00000000000E+00 0. -1.
         22    1    3    3    0    0 -0.49951442978E+02 -0.26055318440E+02  0.53922300465E+02  0.77984875213E+02  0.00000000000E+00 0.  1.
         22    1    3    3    0    0  0.48613195046E+02 -0.83062915407E+02 -0.78694008414E+00  0.96246090430E+02  0.00000000000E+00 0.  1.
</event>
<event>
 7    1  0.6681656E-006  0.6143431E+02  0.7818608E-02  0.1477135E+00
          2   -1    0    0  502    0  0.00000000000E+00  0.00000000000E+00  0.22296190441E+04  0.22296190441E+04  0.00000000000E+00 0. -1.
          1   -1    0    0  501    0 -0.00000000000E+00 -0.00000000000E+00 -0.25515313924E+02  0.25515313924E+02  0.00000000000E+00 0. -1.
         25    2    1    2    0    0 -0.31904912371E+02  0.58440377996E+02  0.10229181925E+04  0.10326766217E+04  0.12500470135E+03 0.  0.
          2    1    1    2  501    0 -0.25849753243E+00 -0.61558635643E+02  0.26007073404E+02  0.66827391916E+02  0.00000000000E+00 0. -1.
          1    1    1    2  502    0  0.32163409904E+02  0.31182576475E+01  0.11551784643E+04  0.11556303444E+04  0.00000000000E+00 0. -1.
         22    1    3    3    0    0  0.10728527343E+02 -0.27322309856E+02  0.51318413989E+03  0.51402292881E+03  0.00000000000E+00 0.  1.
         22    1    3    3    0    0 -0.42633439714E+02  0.85762687851E+02  0.50973405259E+03  0.51865369292E+03  0.00000000000E+00 0.  1.
</event>
<event>
 7    1  0.6681656E-006  0.4283090E+02  0.7818608E-02  0.1516158E+00
          2   -1    0    0  502    0  0.00000000000E+00  0.00000000000E+00  0.49754504926E+03  0.49754504926E+03  0.00000000000E+00 0. -1.
          1   -1    0    0  501    0 -0.00000000000E+00 -0.00000000000E+00 -0.41735949919E+03  0.41735949919E+03  0.00000000000E+00 0. -1.
         25    2    1    2    0    0  0.46111002749E+02 -0.48511243606E+02 -0.82449286214E+01  0.14203047987E+03  0.12500045213E+03 0.  0.
          2    1    1    2  501    0 -0.57328163169E+01  0.34935871158E+02 -0.34024763674E+03  0.34208454303E+03  0.00000000000E+00 0. -1.
          1    1    1    2  502    0 -0.40378186432E+02  0.13575372448E+02  0.42867811543E+03  0.43078952555E+03  0.00000000000E+00 0. -1.
         22    1    3    3    0    0  0.84635826902E+02 -0.18535815484E+02  0.15058061647E+02  0.87940575797E+02  0.00000000000E+00 0. -1.
         22    1    3    3    0    0 -0.38524824152E+02 -0.29975428122E+02 -0.23302990269E+02  0.54089904072E+02  0.00000000000E+00 0. -1.
</event>
<event>
 7    1  0.6681656E-006  0.4650609E+02  0.7818608E-02  0.1487278E+00
          2   -1    0    0  502    0  0.00000000000E+00  0.00000000000E+00  0.19809762839E+03  0.19809762839E+03  0.00000000000E+00 0. -1.
          1   -1    0    0  501    0 -0.00000000000E+00 -0.00000000000E+00 -0.16706751554E+04  0.16706751554E+04  0.00000000000E+00 0. -1.
         25    2    1    2    0    0 -0.64037498900E+02 -0.22685455870E+02 -0.80632006447E+03  0.81877519205E+03  0.12500135024E+03 0.  0.
          2    1    1    2  501    0  0.26834675867E+02  0.36669960260E+02 -0.85545986445E+03  0.85666584238E+03  0.00000000000E+00 0. -1.
          1    1    1    2  502    0  0.37202823034E+02 -0.13984504390E+02  0.18920240194E+03  0.19333174934E+03  0.00000000000E+00 0. -1.
         22    1    3    3    0    0  0.35042586867E+02 -0.21445240506E+02 -0.17724808069E+03  0.18194714437E+03  0.00000000000E+00 0. -1.
         22    1    3    3    0    0 -0.99080085767E+02 -0.12402153635E+01 -0.62907198378E+03  0.63682804768E+03  0.00000000000E+00 0. -1.
</event>
<event>
 7    1  0.6681656E-006  0.7372116E+02  0.7818608E-02  0.1385052E+00
          2   -1    0    0  502    0  0.00000000000E+00  0.00000000000E+00  0.26810337798E+02  0.26810337798E+02  0.00000000000E+00 0. -1.
          1   -1    0    0  501    0 -0.00000000000E+00 -0.00000000000E+00 -0.11060199689E+04  0.11060199689E+04  0.00000000000E+00 0. -1.
         25    2    1    2    0    0  0.22578491801E+02 -0.36672838476E+02 -0.77196121932E+03  0.78320103496E+03  0.12500020665E+03 0.  0.
          2    1    1    2  501    0  0.52231836355E+02  0.14102013656E+02 -0.24156459450E+03  0.24754895442E+03  0.00000000000E+00 0. -1.
          1    1    1    2  502    0 -0.74810328156E+02  0.22570824820E+02 -0.65683817305E+02  0.10208031734E+03  0.00000000000E+00 0. -1.
         22    1    3    3    0    0  0.30493956827E+01  0.24784496207E+02 -0.58309377850E+03  0.58362824177E+03  0.00000000000E+00 0.  1.
         22    1    3    3    0    0  0.19529096118E+02 -0.61457334683E+02 -0.18886744082E+03  0.19957279319E+03  0.00000000000E+00 0.  1.
</event>
<event>
 7    1  0.6681656E-006  0.1020215E+03  0.7818608E-02  0.1321067E+00
          2   -1    0    0  502    0  0.00000000000E+00  0.00000000000E+00  0.37964070826E+03  0.37964070826E+03  0.00000000000E+00 0. -1.
          1   -1    0    0  501    0 -0.00000000000E+00 -0.00000000000E+00 -0.11672735830E+04  0.11672735830E+04  0.00000000000E+00 0. -1.
         25    2    1    2    0    0  0.45477409505E+02  0.86373620435E+02 -0.48226255242E+02  0.16577020694E+03  0.12500157091E+03 0.  0.
          2    1    1    2  501    0 -0.65488336676E+02  0.15652279082E+02 -0.10507471582E+04  0.10529023252E+04  0.00000000000E+00 0. -1.
          1    1    1    2  502    0  0.20010927171E+02 -0.10202589952E+03  0.31134053868E+03  0.32824175908E+03  0.00000000000E+00 0. -1.
         22    1    3    3    0    0  0.25845962228E+02 -0.20545882331E+02 -0.46524867160E+02  0.57050068436E+02  0.00000000000E+00 0.  1.
         22    1    3    3    0    0  0.19631447276E+02  0.10691950277E+03 -0.17013880812E+01  0.10872013850E+03  0.00000000000E+00 0.  1.
</event>
<event>
 7    1  0.1035110E-005  0.5902497E+02  0.7818608E-02  0.1410974E+00
          2   -1    0    0  502    0  0.00000000000E+00  0.00000000000E+00  0.24379442113E+04  0.24379442113E+04  0.00000000000E+00 0. -1.
          1   -1    0    0  501    0 -0.00000000000E+00 -0.00000000000E+00 -0.21665362711E+04  0.21665362711E+04  0.00000000000E+00 0. -1.
         25    2    1    2    0    0 -0.64861678199E+02 -0.48990159268E+02 -0.40846576280E+03  0.43482793040E+03  0.12499590664E+03 0.  0.
          2    1    1    2  501    0  0.61103396376E+01  0.54659517645E+02 -0.17440966666E+04  0.17449636619E+04  0.00000000000E+00 0. -1.
          1    1    1    2  502    0  0.58751338562E+02 -0.56693583768E+01  0.24239703696E+04  0.24246888901E+04  0.00000000000E+00 0. -1.
         22    1    3    3    0    0 -0.15573462326E+02  0.36285670739E+02 -0.53774439444E+02  0.66714863166E+02  0.00000000000E+00 0. -1.
         22    1    3    3    0    0 -0.49288215874E+02 -0.85275830007E+02 -0.35469132335E+03  0.36811306723E+03  0.00000000000E+00 0. -1.
</event>
<event>
 7    1  0.6681656E-006  0.1420584E+03  0.7818608E-02  0.1256859E+00
          2   -1    0    0  502    0  0.00000000000E+00  0.00000000000E+00  0.76141450863E+03  0.76141450863E+03  0.00000000000E+00 0. -1.
          1   -1    0    0  501    0 -0.00000000000E+00 -0.00000000000E+00 -0.24191088927E+03  0.24191088927E+03  0.00000000000E+00 0. -1.
         25    2    1    2    0    0 -0.15482697920E+03  0.45014043218E+02  0.37950797746E+03  0.43087027308E+03  0.12500091874E+03 0.  0.
          2    1    1    2  501    0  0.13624407338E+03  0.41355839102E+02 -0.18626122642E+03  0.23444828305E+03  0.00000000000E+00 0. -1.
          1    1    1    2  502    0  0.18582905820E+02 -0.86369882320E+02  0.32625686831E+03  0.33800684177E+03  0.00000000000E+00 0. -1.
         22    1    3    3    0    0 -0.23809640660E+02  0.27283507656E+02  0.22332261595E+03  0.22623942975E+03  0.00000000000E+00 0. -1.
         22    1    3    3    0    0 -0.13101733854E+03  0.17730535562E+02  0.15618536152E+03  0.20463084333E+03  0.00000000000E+00 0. -1.
</event>
<event>
 7    1  0.6681656E-006  0.2138145E+03  0.7818608E-02  0.1196557E+00
          2   -1    0    0  502    0  0.00000000000E+00  0.00000000000E+00  0.80040857772E+03  0.80040857772E+03  0.00000000000E+00 0. -1.
          1   -1    0    0  501    0 -0.00000000000E+00 -0.00000000000E+00 -0.37141762285E+03  0.37141762285E+03  0.00000000000E+00 0. -1.
         25    2    1    2    0    0  0.14847907020E+03 -0.19783642213E+02 -0.82766424594E+02  0.21192671133E+03  0.12500089258E+03 0.  0.
          2    1    1    2  501    0  0.37443617653E+02 -0.10323448036E+03 -0.19226837838E+03  0.22141931208E+03  0.00000000000E+00 0. -1.
          1    1    1    2  502    0 -0.18592268785E+03  0.12301812257E+03  0.70402575785E+03  0.73848017716E+03  0.00000000000E+00 0. -1.
         22    1    3    3    0    0  0.13305991604E+03  0.34148570956E+02 -0.70911210896E+02  0.15459452121E+03  0.00000000000E+00 0.  1.
         22    1    3    3    0    0  0.15419154156E+02 -0.53932213169E+02 -0.11855213698E+02  0.57332190121E+02  0.00000000000E+00 0.  1.
</event>
<event>
 7    1  0.6681656E-006  0.1314373E+03  0.7818608E-02  0.1304427E+00
          2   -1    0    0  502    0  0.00000000000E+00  0.00000000000E+00  0.13299437101E+03  0.13299437101E+03  0.00000000000E+00 0. -1.
          1   -1    0    0  501    0 -0.00000000000E+00 -0.00000000000E+00 -0.12001334795E+04  0.12001334795E+04  0.00000000000E+00 0. -1.
         25    2    1    2    0    0  0.65456684253E+02  0.64049729928E+02 -0.13094677035E+03  0.20287735566E+03  0.12500087743E+03 0.  0.
          2    1    1    2  501    0 -0.12557254185E+03 -0.55343346483E+02 -0.10186405521E+04  0.10278423632E+04  0.00000000000E+00 0. -1.
          1    1    1    2  502    0  0.60115857594E+02 -0.87063834446E+01  0.82448213934E+02  0.10240813165E+03  0.00000000000E+00 0. -1.
         22    1    3    3    0    0  0.58810198402E+02  0.96989680440E+02 -0.12492871598E+03  0.16873891556E+03  0.00000000000E+00 0. -1.
         22    1    3    3    0    0  0.66464858501E+01 -0.32939950512E+02 -0.60180543636E+01  0.34138440096E+02  0.00000000000E+00 0. -1.
</event>
<event>
 7    1  0.6681656E-006  0.6495200E+02  0.7818608E-02  0.1402098E+00
          2   -1    0    0  502    0  0.00000000000E+00  0.00000000000E+00  0.15227311166E+03  0.15227311166E+03  0.00000000000E+00 0. -1.
          1   -1    0    0  501    0 -0.00000000000E+00 -0.00000000000E+00 -0.46115531248E+03  0.46115531248E+03  0.00000000000E+00 0. -1.
         25    2    1    2    0    0  0.24354250930E+02  0.20373084957E+02  0.23080503240E+02  0.13101877100E+03  0.12500006638E+03 0.  0.
          2    1    1    2  501    0  0.54844585740E+01  0.53303212874E+02 -0.38379281791E+03  0.38751546920E+03  0.00000000000E+00 0. -1.
          1    1    1    2  502    0 -0.29838709504E+02 -0.73676297831E+02  0.51830113845E+02  0.94894183953E+02  0.00000000000E+00 0. -1.
         22    1    3    3    0    0  0.54771566253E+02  0.56769902891E+02  0.27113803053E+02  0.83414055531E+02  0.00000000000E+00 0.  1.
         22    1    3    3    0    0 -0.30417315323E+02 -0.36396817934E+02 -0.40332998132E+01  0.47604715466E+02  0.00000000000E+00 0.  1.
</event>
<event>
 7    1  0.6681656E-006  0.1578190E+03  0.7818608E-02  0.1254756E+00
          2   -1    0    0  502    0  0.00000000000E+00  0.00000000000E+00  0.22045700452E+04  0.22045700452E+04  0.00000000000E+00 0. -1.
          1   -1    0    0  501    0 -0.00000000000E+00 -0.00000000000E+00 -0.79056374033E+03  0.79056374033E+03  0.00000000000E+00 0. -1.
         25    2    1    2    0    0 -0.15921531536E+03 -0.10415517822E+03  0.27734299036E+03  0.35879836657E+03  0.12497726096E+03 0.  0.
          2    1    1    2  501    0  0.76057249919E+02 -0.28426210262E+02 -0.74437877816E+03  0.74879404383E+03  0.00000000000E+00 0. -1.
          1    1    1    2  502    0  0.83158065440E+02  0.13258138848E+03  0.18810420926E+04  0.18875413751E+04  0.00000000000E+00 0. -1.
         22    1    3    3    0    0 -0.13654736559E+03 -0.13042364343E+03  0.25584467212E+03  0.31798114105E+03  0.00000000000E+00 0. -1.
         22    1    3    3    0    0 -0.22667949767E+02  0.26268465216E+02  0.21498318243E+02  0.40817225515E+02  0.00000000000E+00 0. -1.
</event>
<event>
 7    1  0.6681656E-006  0.1092447E+03  0.7818608E-02  0.1313496E+00
          2   -1    0    0  502    0  0.00000000000E+00  0.00000000000E+00  0.31084289093E+03  0.31084289093E+03  0.00000000000E+00 0. -1.
          1   -1    0    0  501    0 -0.00000000000E+00 -0.00000000000E+00 -0.30194381805E+03  0.30194381805E+03  0.00000000000E+00 0. -1.
         25    2    1    2    0    0  0.21357460178E+02 -0.42358814650E+02 -0.13280201532E+03  0.18844510122E+03  0.12499908247E+03 0.  0.
          2    1    1    2  501    0  0.44534516348E+02 -0.50457449770E+02 -0.12076746022E+03  0.13825359609E+03  0.00000000000E+00 0. -1.
          1    1    1    2  502    0 -0.65891976525E+02  0.92816264421E+02  0.26246854842E+03  0.28608801167E+03  0.00000000000E+00 0. -1.
         22    1    3    3    0    0  0.17890721497E+02  0.14187162688E+02  0.16883668650E+02  0.28397390160E+02  0.00000000000E+00 0. -1.
         22    1    3    3    0    0  0.34667386804E+01 -0.56545977338E+02 -0.14968568397E+03  0.16004771106E+03  0.00000000000E+00 0. -1.
</event>
<event>
 7    1  0.6681656E-006  0.6436623E+02  0.7818608E-02  0.1436247E+00
          2   -1    0    0  502    0  0.00000000000E+00  0.00000000000E+00  0.33291601634E+04  0.33291601634E+04  0.00000000000E+00 0. -1.
          1   -1    0    0  501    0 -0.00000000000E+00 -0.00000000000E+00 -0.22427981377E+02  0.22427981377E+02  0.00000000000E+00 0. -1.
         25    2    1    2    0    0 -0.27417844720E+02 -0.84735697185E+01  0.10261865317E+04  0.10341698403E+04  0.12499968409E+03 0.  0.
          2    1    1    2  501    0 -0.41482564900E+02  0.26715363199E+01  0.62076139021E+01  0.42029451190E+02  0.00000000000E+00 0. -1.
          1    1    1    2  502    0  0.68900409619E+02  0.58020333986E+01  0.22743380363E+04  0.22753888533E+04  0.00000000000E+00 0. -1.
         22    1    3    3    0    0 -0.54639410049E+01 -0.62540886569E+02  0.36004544986E+03  0.36547769167E+03  0.00000000000E+00 0. -1.
         22    1    3    3    0    0 -0.21953903715E+02  0.54067316850E+02  0.66614108187E+03  0.66869214860E+03  0.00000000000E+00 0. -1.
</event>
<event>
 7    1  0.6681656E-006  0.1215946E+03  0.7818608E-02  0.1420276E+00
          2   -1    0    0  502    0  0.00000000000E+00  0.00000000000E+00  0.47666333989E+03  0.47666333989E+03  0.00000000000E+00 0. -1.
          1   -1    0    0  501    0 -0.00000000000E+00 -0.00000000000E+00 -0.78564763359E+03  0.78564763359E+03  0.00000000000E+00 0. -1.
         25    2    1    2    0    0 -0.13238235590E+03 -0.21571310603E+02  0.10070387729E+03  0.20918042326E+03  0.12499907592E+03 0.  0.
          2    1    1    2  501    0  0.11477059646E+03  0.39094026603E+02 -0.72589401073E+03  0.73595023442E+03  0.00000000000E+00 0. -1.
          1    1    1    2  502    0  0.17611759446E+02 -0.17522716001E+02  0.31620583974E+03  0.31718031580E+03  0.00000000000E+00 0. -1.
         22    1    3    3    0    0 -0.65822344807E+02  0.39189800281E+02  0.35870317747E+01  0.76689558083E+02  0.00000000000E+00 0.  1.
         22    1    3    3    0    0 -0.66560011095E+02 -0.60761110884E+02  0.97116845520E+02  0.13249086518E+03  0.00000000000E+00 0.  1.
</event>
<event>
 7    1  0.6681656E-006  0.5054280E+02  0.7818608E-02  0.1461897E+00
          2   -1    0    0  502    0  0.00000000000E+00  0.00000000000E+00  0.61933229935E+03  0.61933229935E+03  0.00000000000E+00 0. -1.
          1   -1    0    0  501    0 -0.00000000000E+00 -0.00000000000E+00 -0.65093438683E+02  0.65093438683E+02  0.00000000000E+00 0. -1.
         25    2    1    2    0    0 -0.72267713036E+02  0.33125319390E+02  0.12438669248E+03  0.19343474240E+03  0.12500016469E+03 0.  0.
          2    1    1    2  501    0  0.28774753536E+02 -0.38393095303E+02 -0.99599483716E+01  0.49002211987E+02  0.00000000000E+00 0. -1.
          1    1    1    2  502    0  0.43492959500E+02  0.52677759132E+01  0.43981211656E+03  0.44198878364E+03  0.00000000000E+00 0. -1.
         22    1    3    3    0    0 -0.11271503792E+02  0.73250007419E+02  0.73958567005E+02  0.10470186253E+03  0.00000000000E+00 0.  1.
         22    1    3    3    0    0 -0.60996209244E+02 -0.40124688029E+02  0.50428125470E+02  0.88732879870E+02  0.00000000000E+00 0.  1.
</event>
<event>
 7    1  0.6681656E-006  0.8322990E+02  0.7818608E-02  0.1454551E+00
          2   -1    0    0  502    0  0.00000000000E+00  0.00000000000E+00  0.10601679311E+04  0.10601679311E+04  0.00000000000E+00 0. -1.
          1   -1    0    0  501    0 -0.00000000000E+00 -0.00000000000E+00 -0.24057997148E+03  0.24057997148E+03  0.00000000000E+00 0. -1.
         25    2    1    2    0    0  0.46740379679E+02 -0.54063024593E+02  0.38885749539E+02  0.14914690572E+03  0.12500089699E+03 0.  0.
          2    1    1    2  501    0 -0.72756943648E+02  0.43532868817E+02 -0.17554182161E+03  0.19494515806E+03  0.00000000000E+00 0. -1.
          1    1    1    2  502    0  0.26016563969E+02  0.10530155776E+02  0.95624403168E+03  0.95665583879E+03  0.00000000000E+00 0. -1.
         22    1    3    3    0    0  0.47872990610E+02  0.14494342935E+02 -0.24565656304E+02  0.55725942582E+02  0.00000000000E+00 0. -1.
         22    1    3    3    0    0 -0.11326109302E+01 -0.68557367528E+02  0.63451405842E+02  0.93420963136E+02  0.00000000000E+00 0. -1.
</event>
<event>
 7    1  0.9509511E-006  0.3824440E+02  0.7818608E-02  0.1535593E+00
          2   -1    0    0  502    0  0.00000000000E+00  0.00000000000E+00  0.14270535994E+04  0.14270535994E+04  0.00000000000E+00 0. -1.
          1   -1    0    0  501    0 -0.00000000000E+00 -0.00000000000E+00 -0.74163042490E+03  0.74163042490E+03  0.00000000000E+00 0. -1.
         25    2    1    2    0    0  0.65807339048E+02 -0.40003882610E+01 -0.34238825350E+03  0.37040489688E+03  0.12499384993E+03 0.  0.
          2    1    1    2  501    0 -0.33103471163E+02  0.16049183757E+02 -0.38414000617E+03  0.38589760358E+03  0.00000000000E+00 0. -1.
          1    1    1    2  502    0 -0.32703867885E+02 -0.12048795496E+02  0.14119514342E+04  0.14123815239E+04  0.00000000000E+00 0. -1.
         22    1    3    3    0    0  0.88589940396E+02  0.71021656867E+01 -0.33081211228E+03  0.34254236516E+03  0.00000000000E+00 0.  1.
         22    1    3    3    0    0 -0.22782601348E+02 -0.11102553948E+02 -0.11576141217E+02  0.27862531720E+02  0.00000000000E+00 0.  1.
</event>
<event>
 7    1  0.6681656E-006  0.7268207E+02  0.7818608E-02  0.1352722E+00
          2   -1    0    0  502    0  0.00000000000E+00  0.00000000000E+00  0.18545604766E+03  0.18545604766E+03  0.00000000000E+00 0. -1.
          1   -1    0    0  501    0 -0.00000000000E+00 -0.00000000000E+00 -0.47410432460E+03  0.47410432460E+03  0.00000000000E+00 0. -1.
         25    2    1    2    0    0  0.66247885555E+02 -0.57953053733E+02 -0.12072550637E+03  0.19480105452E+03  0.12500185668E+03 0.  0.
          2    1    1    2  501    0  0.36015906516E+01  0.74352175186E+02 -0.30289172397E+03  0.31190481538E+03  0.00000000000E+00 0. -1.
          1    1    1    2  502    0 -0.69849476207E+02 -0.16399121454E+02  0.13496895340E+03  0.15285450236E+03  0.00000000000E+00 0. -1.
         22    1    3    3    0    0  0.21086605459E+02  0.38663298518E+02 -0.21004115884E+02  0.48792094300E+02  0.00000000000E+00 0.  1.
         22    1    3    3    0    0  0.45161280096E+02 -0.96616352251E+02 -0.99721390490E+02  0.14600896022E+03  0.00000000000E+00 0.  1.
</event>
<event>
 7    1  0.6681656E-006  0.8061724E+02  0.7818608E-02  0.1361730E+00
          2   -1    0    0  502    0  0.00000000000E+00  0.00000000000E+00  0.19351472228E+04  0.19351472228E+04  0.00000000000E+00 0. -1.
          1   -1    0    0  501    0 -0.00000000000E+00 -0.00000000000E+00 -0.25888332756E+02  0.25888332756E+02  0.00000000000E+00 0. -1.
         25    2    1    2    0    0  0.87607989533E+02 -0.49020267356E+02  0.53779642188E+03  0.56118857756E+03  0.12501792572E+03 0.  0.
          2    1    1    2  501    0 -0.79115407440E+02 -0.10327015843E+02  0.10454864408E+03  0.13151545129E+03  0.00000000000E+00 0. -1.
          1    1    1    2  502    0 -0.84925820934E+01  0.59347283199E+02  0.12669138241E+04  0.12683315267E+04  0.00000000000E+00 0. -1.
         22    1    3    3    0    0  0.10120103032E+03 -0.78297941240E+02  0.43730950158E+03  0.45564439677E+03  0.00000000000E+00 0. -1.
         22    1    3    3    0    0 -0.13593040782E+02  0.29277673883E+02  0.10048692030E+03  0.10554418078E+03  0.00000000000E+00 0. -1.
</event>
<event>
 7    1  0.6886678E-006  0.6131547E+02  0.7818608E-02  0.1464006E+00
          2   -1    0    0  502    0  0.00000000000E+00  0.00000000000E+00  0.12774163058E+04  0.12774163058E+04  0.00000000000E+00 0. -1.
          1   -1    0    0  501    0 -0.00000000000E+00 -0.00000000000E+00 -0.12248516726E+04  0.12248516726E+04  0.00000000000E+00 0. -1.
         25    2    1    2    0    0  0.51438185783E+02 -0.73078406140E+02 -0.13856524237E+03  0.20690992685E+03  0.12500020415E+03 0.  0.
          2    1    1    2  501    0 -0.19476068648E+02  0.57476895201E+02 -0.10509842038E+04  0.10527348704E+04  0.00000000000E+00 0. -1.
          1    1    1    2  502    0 -0.31962117135E+02  0.15601510939E+02  0.12421140794E+04  0.12426231812E+04  0.00000000000E+00 0. -1.
         22    1    3    3    0    0  0.12347577985E+02  0.31392114097E+02 -0.70507250301E+01  0.34462156535E+02  0.00000000000E+00 0.  1.
         22    1    3    3    0    0  0.39090607797E+02 -0.10447052024E+03 -0.13151451734E+03  0.17244777031E+03  0.00000000000E+00 0.  1.
</event>
<event>
 7    1  0.6681656E-006  0.7386960E+02  0.7818608E-02  0.1437673E+00
          2   -1    0    0  502    0  0.00000000000E+00  0.00000000000E+00  0.59235557150E+03  0.59235557150E+03  0.00000000000E+00 0. -1.
          1   -1    0    0  501    0 -0.00000000000E+00 -0.00000000000E+00 -0.14849376523E+04  0.14849376523E+04  0.00000000000E+00 0. -1.
         25    2    1    2    0    0 -0.10695015235E+03  0.21559865776E+02 -0.78052269544E+01  0.16610256359E+03  0.12500390860E+03 0.  0.
          2    1    1    2  501    0  0.71364421614E+02 -0.17341009662E+02 -0.13963920672E+04  0.13983219932E+04  0.00000000000E+00 0. -1.
          1    1    1    2  502    0  0.35585730733E+02 -0.42188561139E+01  0.51161521340E+03  0.51286866698E+03  0.00000000000E+00 0. -1.
         22    1    3    3    0    0 -0.96296133463E+02  0.67925306482E+02 -0.11404775849E+02  0.11839282703E+03  0.00000000000E+00 0. -1.
         22    1    3    3    0    0 -0.10654018884E+02 -0.46365440706E+02  0.35995488942E+01  0.47709736559E+02  0.00000000000E+00 0. -1.
</event>
<event>
 7    1  0.6681656E-006  0.9041547E+02  0.7818608E-02  0.1316081E+00
          2   -1    0    0  502    0  0.00000000000E+00  0.00000000000E+00  0.97366650780E+03  0.97366650780E+03  0.00000000000E+00 0. -1.
          1   -1    0    0  501    0 -0.00000000000E+00 -0.00000000000E+00 -0.12178282973E+03  0.12178282973E+03  0.00000000000E+00 0. -1.
         25    2    1    2    0    0 -0.12644670170E+03 -0.88443163113E+02  0.48214588085E+03  0.52144039857E+03  0.12499790945E+03 0.  0.
          2    1    1    2  501    0  0.51948853662E+02  0.60105779090E+02 -0.82657556253E+02  0.11464580098E+03  0.00000000000E+00 0. -1.
          1    1    1    2  502    0  0.74497848038E+02  0.28337384023E+02  0.45239535347E+03  0.45936313798E+03  0.00000000000E+00 0. -1.
         22    1    3    3    0    0 -0.11907275486E+03 -0.12714758887E+02  0.33550552414E+03  0.35623579659E+03  0.00000000000E+00 0. -1.
         22    1    3    3    0    0 -0.73739468389E+01 -0.75728404226E+02  0.14664035671E+03  0.16520460198E+03  0.00000000000E+00 0. -1.
</event>
<event>
 7    1  0.6681656E-006  0.2020501E+03  0.7818608E-02  0.1286302E+00
          2   -1    0    0  502    0  0.00000000000E+00  0.00000000000E+00  0.73995741436E+03  0.73995741436E+03  0.00000000000E+00 0. -1.
          1   -1    0    0  501    0 -0.00000000000E+00 -0.00000000000E+00 -0.14405386129E+04  0.14405386129E+04  0.00000000000E+00 0. -1.
         25    2    1    2    0    0 -0.63327262645E+02 -0.14383515425E+03  0.47220029265E+03  0.51312474003E+03  0.12499995463E+03 0.  0.
          2    1    1    2  501    0  0.92486583930E+02  0.18038656112E+03 -0.14105535620E+04  0.14250454136E+04  0.00000000000E+00 0. -1.
          1    1    1    2  502    0 -0.29159321285E+02 -0.36551406870E+02  0.23777207081E+03  0.24232587361E+03  0.00000000000E+00 0. -1.
         22    1    3    3    0    0 -0.26725195109E+02 -0.76504107916E+02  0.81326964027E+02  0.11480936225E+03  0.00000000000E+00 0.  1.
         22    1    3    3    0    0 -0.36602067536E+02 -0.67331046337E+02  0.39087332862E+03  0.39831537778E+03  0.00000000000E+00 0.  1.
</event>
<event>
 7    1  0.6681656E-006  0.8126994E+02  0.7818608E-02  0.1458225E+00
          2   -1    0    0  502    0  0.00000000000E+00  0.00000000000E+00  0.57734483203E+03  0.57734483203E+03  0.00000000000E+00 0. -1.
          1   -1    0    0  501    0 -0.00000000000E+00 -0.00000000000E+00 -0.10375883315E+03  0.10375883315E+03  0.00000000000E+00 0. -1.
         25    2    1    2    0    0  0.40895504586E+02  0.94634928714E+02  0.24238955640E+03  0.29155911437E+03  0.12500323232E+03 0.  0.
          2    1    1    2  501    0 -0.18716928617E+02 -0.20801979079E+02 -0.71712800355E+02  0.76979032763E+02  0.00000000000E+00 0. -1.
          1    1    1    2  502    0 -0.22178575969E+02 -0.73832949635E+02  0.30290924283E+03  0.31256551805E+03  0.00000000000E+00 0. -1.
         22    1    3    3    0    0  0.39252196340E+02  0.10062376015E+03  0.25531386151E+03  0.27722020832E+03  0.00000000000E+00 0. -1.
         22    1    3    3    0    0  0.16433082454E+01 -0.59888314343E+01 -0.12924305110E+02  0.14338906043E+02  0.00000000000E+00 0. -1.
</event>
<event>
 7    1  0.6681656E-006  0.4353411E+02  0.7818608E-02  0.1571931E+00
          2   -1    0    0  502    0  0.00000000000E+00  0.00000000000E+00  0.97304275570E+02  0.97304275570E+02  0.00000000000E+00 0. -1.
          1   -1    0    0  501    0 -0.00000000000E+00 -0.00000000000E+00 -0.68340242182E+03  0.68340242182E+03  0.00000000000E+00 0. -1.
         25    2    1    2    0    0 -0.10529915607E+02  0.31974576896E+02 -0.21761984389E+03  0.25321330099E+03  0.12500130662E+03 0.  0.
          2    1    1    2  501    0 -0.23831097425E+02 -0.46044108802E+01 -0.44155901665E+03  0.44222560644E+03  0.00000000000E+00 0. -1.
          1    1    1    2  502    0  0.34361013032E+02 -0.27370166016E+02  0.73080714286E+02  0.85267789961E+02  0.00000000000E+00 0. -1.
         22    1    3    3    0    0  0.66570129067E+01  0.67771743930E+02 -0.60296789702E+02  0.90956186951E+02  0.00000000000E+00 0.  1.
         22    1    3    3    0    0 -0.17186928514E+02 -0.35797167034E+02 -0.15732305419E+03  0.16225711404E+03  0.00000000000E+00 0.  1.
</event>
<event>
 7    1  0.6681656E-006  0.1595952E+03  0.7818608E-02  0.1308387E+00
          2   -1    0    0  502    0  0.00000000000E+00  0.00000000000E+00  0.17828592971E+04  0.17828592971E+04  0.00000000000E+00 0. -1.
          1   -1    0    0  501    0 -0.00000000000E+00 -0.00000000000E+00 -0.14298812234E+04  0.14298812234E+04  0.00000000000E+00 0. -1.
         25    2    1    2    0    0  0.76382796173E+02 -0.85475795308E+02 -0.35412973894E+02  0.17326037996E+03  0.12499854962E+03 0.  0.
          2    1    1    2  501    0 -0.10720340324E+03  0.12259994426E+03 -0.13202003375E+04  0.13302075955E+04  0.00000000000E+00 0. -1.
          1    1    1    2  502    0  0.30820607067E+02 -0.37124148948E+02  0.17085913850E+04  0.17092725451E+04  0.00000000000E+00 0. -1.
         22    1    3    3    0    0  0.77314688013E+02 -0.43871091281E+02 -0.74637428680E+02  0.11607316396E+03  0.00000000000E+00 0. -1.
         22    1    3    3    0    0 -0.93189184039E+00 -0.41604704027E+02  0.39224454786E+02  0.57187215992E+02  0.00000000000E+00 0. -1.
</event>
<event>
 7    1  0.6681656E-006  0.9781985E+02  0.7818608E-02  0.1333796E+00
          2   -1    0    0  502    0  0.00000000000E+00  0.00000000000E+00  0.59115405730E+03  0.59115405730E+03  0.00000000000E+00 0. -1.
          1   -1    0    0  501    0 -0.00000000000E+00 -0.00000000000E+00 -0.54208380406E+02  0.54208380406E+02  0.00000000000E+00 0. -1.
         25    2    1    2    0    0 -0.21418700983E+02  0.71116586290E+02  0.16696846719E+03  0.22140525563E+03  0.12500195434E+03 0.  0.
          2    1    1    2  501    0 -0.17925203290E+02 -0.12001016734E+03  0.13855818087E+03  0.18417959351E+03  0.00000000000E+00 0. -1.
          1    1    1    2  502    0  0.39343904273E+02  0.48893581048E+02  0.23141902884E+03  0.23977758857E+03  0.00000000000E+00 0. -1.
         22    1    3    3    0    0  0.39902493651E+02  0.73854496240E+02  0.92910932848E+02  0.12521636098E+03  0.00000000000E+00 0.  1.
         22    1    3    3    0    0 -0.61321194634E+02 -0.27379099497E+01  0.74057534338E+02  0.96188894653E+02  0.00000000000E+00 0.  1.
</event>
<event>
 7    1  0.6681656E-006  0.1415327E+03  0.7818608E-02  0.1286872E+00
          2   -1    0    0  502    0  0.00000000000E+00  0.00000000000E+00  0.98913768897E+02  0.98913768897E+02  0.00000000000E+00 0. -1.
          1   -1    0    0  501    0 -0.00000000000E+00 -0.00000000000E+00 -0.22324703637E+04  0.22324703637E+04  0.00000000000E+00 0. -1.
         25    2    1    2    0    0 -0.71011138637E+02 -0.82511619710E+02 -0.41338782555E+03  0.44538268400E+03  0.12500196677E+03 0.  0.
          2    1    1    2  501    0  0.29476923268E+02 -0.59491056181E+02 -0.17359416858E+04  0.17372108712E+04  0.00000000000E+00 0. -1.
          1    1    1    2  502    0  0.41534215370E+02  0.14200267589E+03  0.15772916540E+02  0.14879057733E+03  0.00000000000E+00 0. -1.
         22    1    3    3    0    0 -0.28524104800E+02 -0.10737858272E+03 -0.33375591624E+03  0.35176241444E+03  0.00000000000E+00 0. -1.
         22    1    3    3    0    0 -0.42487033838E+02  0.24866963011E+02 -0.79631909310E+02  0.93620269569E+02  0.00000000000E+00 0. -1.
</event>
<event>
 7    1  0.1697578E-005  0.6218186E+02  0.7818608E-02  0.1500256E+00
          2   -1    0    0  502    0  0.00000000000E+00  0.00000000000E+00  0.12398296186E+04  0.12398296186E+04  0.00000000000E+00 0. -1.
          1   -1    0    0  501    0 -0.00000000000E+00 -0.00000000000E+00 -0.15607092569E+04  0.15607092569E+04  0.00000000000E+00 0. -1.
         25    2    1    2    0    0  0.11906848134E+02  0.82121332883E+02 -0.51013127260E+03  0.53173751837E+03  0.12500074723E+03 0.  0.
          2    1    1    2  501    0 -0.18084044218E+02 -0.20274885023E+02 -0.10388113332E+04  0.10391665361E+04  0.00000000000E+00 0. -1.
          1    1    1    2  502    0  0.61771960840E+01 -0.61846447861E+02  0.12280629676E+04  0.12296348211E+04  0.00000000000E+00 0. -1.
         22    1    3    3    0    0  0.26004735334E+02  0.10707723422E+03 -0.29877655507E+03  0.31844812797E+03  0.00000000000E+00 0. -1.
         22    1    3    3    0    0 -0.14097887200E+02 -0.24955901332E+02 -0.21135471753E+03  0.21328939040E+03  0.00000000000E+00 0. -1.
</event>
<event>
 7    1  0.6681656E-006  0.1056693E+03  0.7818608E-02  0.1394393E+00
          2   -1    0    0  502    0  0.00000000000E+00  0.00000000000E+00  0.77280076097E+03  0.77280076097E+03  0.00000000000E+00 0. -1.
          1   -1    0    0  501    0 -0.00000000000E+00 -0.00000000000E+00 -0.18227992640E+04  0.18227992640E+04  0.00000000000E+00 0. -1.
         25    2    1    2    0    0 -0.68449752645E-01  0.13116761002E+03  0.25791432285E+03  0.31519635994E+03  0.12499600308E+03 0.  0.
          2    1    1    2  501    0  0.21351009252E+02 -0.10336356367E+03 -0.17919730874E+04  0.17950786718E+04  0.00000000000E+00 0. -1.
          1    1    1    2  502    0 -0.21282559500E+02 -0.27804046348E+02  0.48406026150E+03  0.48532499327E+03  0.00000000000E+00 0. -1.
         22    1    3    3    0    0  0.31738434822E+02  0.14357061053E+03  0.21066980016E+03  0.25690779114E+03  0.00000000000E+00 0. -1.
         22    1    3    3    0    0 -0.31806884574E+02 -0.12403000509E+02  0.47244522696E+02  0.58288568799E+02  0.00000000000E+00 0. -1.
</event>
<event>
 7    1  0.6681656E-006  0.7085001E+02  0.7818608E-02  0.1427112E+00
          2   -1    0    0  502    0  0.00000000000E+00  0.00000000000E+00  0.11309671774E+04  0.11309671774E+04  0.00000000000E+00 0. -1.
          1   -1    0    0  501    0 -0.00000000000E+00 -0.00000000000E+00 -0.55205746810E+03  0.55205746810E+03  0.00000000000E+00 0. -1.
         25    2    1    2    0    0 -0.79400155717E+02  0.29432998880E+02  0.50498213328E+03  0.52706986245E+03  0.12499999528E+03 0.  0.
          2    1    1    2  501    0  0.10206088652E+02 -0.39157170531E+02 -0.53826680528E+03  0.53978569999E+03  0.00000000000E+00 0. -1.
          1    1    1    2  502    0  0.69194067065E+02  0.97241716511E+01  0.61219438132E+03  0.61616908308E+03  0.00000000000E+00 0. -1.
         22    1    3    3    0    0 -0.23680895334E+02 -0.24352794369E+02  0.28515889074E+02  0.44350866137E+02  0.00000000000E+00 0. -1.
         22    1    3    3    0    0 -0.55719260383E+02  0.53785793249E+02  0.47646624420E+03  0.48271899631E+03  0.00000000000E+00 0. -1.
</event>
<event>
 7    1  0.6681656E-006  0.6314717E+02  0.7818608E-02  0.1427183E+00
          2   -1    0    0  502    0  0.00000000000E+00  0.00000000000E+00  0.15151346553E+03  0.15151346553E+03  0.00000000000E+00 0. -1.
          1   -1    0    0  501    0 -0.00000000000E+00 -0.00000000000E+00 -0.26487486911E+03  0.26487486911E+03  0.00000000000E+00 0. -1.
         25    2    1    2    0    0  0.35946400556E+02  0.24218055764E+02 -0.40987249459E+02  0.13851539386E+03  0.12501160658E+03 0.  0.
          2    1    1    2  501    0 -0.19912184544E+02  0.40774479763E+02 -0.16073550830E+03  0.16701783414E+03  0.00000000000E+00 0. -1.
          1    1    1    2  502    0 -0.16034216012E+02 -0.64992535527E+02  0.88361354180E+02  0.11085510665E+03  0.00000000000E+00 0. -1.
         22    1    3    3    0    0 -0.11205368889E+02  0.20805823771E+02  0.39000656487E+02  0.45601467095E+02  0.00000000000E+00 0. -1.
         22    1    3    3    0    0  0.47151769445E+02  0.34122319923E+01 -0.79987905947E+02  0.92913926764E+02  0.00000000000E+00 0. -1.
</event>
<event>
 7    1  0.6681656E-006  0.1136982E+03  0.7818608E-02  0.1319709E+00
          2   -1    0    0  502    0  0.00000000000E+00  0.00000000000E+00  0.94592743457E+03  0.94592743457E+03  0.00000000000E+00 0. -1.
          1   -1    0    0  501    0 -0.00000000000E+00 -0.00000000000E+00 -0.11551298046E+04  0.11551298046E+04  0.00000000000E+00 0. -1.
         25    2    1    2    0    0 -0.53264396841E+02  0.76603659031E+01 -0.14801971391E+03  0.20107460595E+03  0.12500153709E+03 0.  0.
          2    1    1    2  501    0 -0.60888199361E+02  0.57037779835E+01 -0.97603004447E+03  0.97794404422E+03  0.00000000000E+00 0. -1.
          1    1    1    2  502    0  0.11415259620E+03 -0.13364143887E+02  0.91484738837E+03  0.92203858898E+03  0.00000000000E+00 0. -1.
         22    1    3    3    0    0  0.34616695061E+02 -0.96251117728E+01 -0.11365333784E+02  0.37684601174E+02  0.00000000000E+00 0. -1.
         22    1    3    3    0    0 -0.87881091902E+02  0.17285477676E+02 -0.13665438013E+03  0.16339000478E+03  0.00000000000E+00 0. -1.
</event>
<event>
 7    1  0.6681656E-006  0.5543285E+02  0.7818608E-02  0.1474559E+00
          2   -1    0    0  502    0  0.00000000000E+00  0.00000000000E+00  0.18144514741E+02  0.18144514741E+02  0.00000000000E+00 0. -1.
          1   -1    0    0  501    0 -0.00000000000E+00 -0.00000000000E+00 -0.11221175571E+04  0.11221175571E+04  0.00000000000E+00 0. -1.
         25    2    1    2    0    0  0.68244445402E+02  0.52569612134E+02 -0.89852639227E+03  0.91126056452E+03  0.12500108159E+03 0.  0.
          2    1    1    2  501    0 -0.34603890512E+02 -0.11529886088E+02 -0.14037197529E+03  0.14503330293E+03  0.00000000000E+00 0. -1.
          1    1    1    2  502    0 -0.33640554890E+02 -0.41039726046E+02 -0.65074674773E+02  0.83968204364E+02  0.00000000000E+00 0. -1.
         22    1    3    3    0    0 -0.31567508214E+01 -0.11709217742E+02 -0.59131957552E+01  0.13492099167E+02  0.00000000000E+00 0.  1.
         22    1    3    3    0    0  0.71401196224E+02  0.64278829876E+02 -0.89261319651E+03  0.89776846535E+03  0.00000000000E+00 0.  1.
</event>
<event>
 7    1  0.6681656E-006  0.8782794E+02  0.7818608E-02  0.1327777E+00
          2   -1    0    0  502    0  0.00000000000E+00  0.00000000000E+00  0.38745546103E+04  0.38745546103E+04  0.00000000000E+00 0. -1.
          1   -1    0    0  501    0 -0.00000000000E+00 -0.00000000000E+00 -0.73803894360E+02  0.73803894360E+02  0.00000000000E+00 0. -1.
         25    2    1    2    0    0 -0.17394790431E+02  0.18248353923E+02  0.86546846005E+03  0.87481192901E+03  0.12499869852E+03 0.  0.
          2    1    1    2  501    0 -0.56157302016E+02  0.47718544525E+02 -0.48440580291E+02  0.88188388580E+02  0.00000000000E+00 0. -1.
          1    1    1    2  502    0  0.73552092447E+02 -0.65966898448E+02  0.29837228362E+04  0.29853581871E+04  0.00000000000E+00 0. -1.
         22    1    3    3    0    0  0.44301822461E+02  0.36156328028E+01  0.14757568914E+03  0.15412432740E+03  0.00000000000E+00 0.  1.
         22    1    3    3    0    0 -0.61696612891E+02  0.14632721120E+02  0.71789277092E+03  0.72068760160E+03  0.00000000000E+00 0.  1.
</event>
<event>
 7    1  0.6681656E-006  0.5149626E+02  0.7818608E-02  0.1542931E+00
          2   -1    0    0  502    0  0.00000000000E+00  0.00000000000E+00  0.10966073638E+04  0.10966073638E+04  0.00000000000E+00 0. -1.
          1   -1    0    0  501    0 -0.00000000000E+00 -0.00000000000E+00 -0.20622319528E+03  0.20622319528E+03  0.00000000000E+00 0. -1.
         25    2    1    2    0    0  0.28981621082E+01 -0.55264566127E+02  0.69030448459E+03  0.70370980536E+03  0.12499854843E+03 0.  0.
          2    1    1    2  501    0 -0.25279522937E+02  0.44874752261E+02 -0.19580602924E+03  0.20246678433E+03  0.00000000000E+00 0. -1.
          1    1    1    2  502    0  0.22381360829E+02  0.10389813866E+02  0.39588571316E+03  0.39665396939E+03  0.00000000000E+00 0. -1.
         22    1    3    3    0    0  0.12366341200E+02 -0.59666839881E+02  0.69058141731E+03  0.69326456141E+03  0.00000000000E+00 0.  1.
         22    1    3    3    0    0 -0.94681790920E+01  0.44022737537E+01 -0.27693271992E+00  0.10445243954E+02  0.00000000000E+00 0.  1.
</event>
<event>
 7    1  0.6681656E-006  0.9378291E+02  0.7818608E-02  0.1362005E+00
          2   -1    0    0  502    0  0.00000000000E+00  0.00000000000E+00  0.15872789289E+04  0.15872789289E+04  0.00000000000E+00 0. -1.
          1   -1    0    0  501    0 -0.00000000000E+00 -0.00000000000E+00 -0.15101328116E+03  0.15101328116E+03  0.00000000000E+00 0. -1.
         25    2    1    2    0    0  0.48235720456E+02  0.12717364954E+03  0.16274176278E+03  0.24618904234E+03  0.12499736538E+03 0.  0.
          2    1    1    2  501    0 -0.37216333025E+02 -0.35477592340E+02 -0.10160625852E+03  0.11387513676E+03  0.00000000000E+00 0. -1.
          1    1    1    2  502    0 -0.11019387431E+02 -0.91696057204E+02  0.13751301435E+04  0.13782280310E+04  0.00000000000E+00 0. -1.
         22    1    3    3    0    0  0.10544167407E+02  0.67286961909E+02  0.16165859173E+03  0.17542010999E+03  0.00000000000E+00 0. -1.
         22    1    3    3    0    0  0.37691553049E+02  0.59886687634E+02  0.10831710527E+01  0.70768932354E+02  0.00000000000E+00 0. -1.
</event>
<event>
 7    1  0.6681656E-006  0.6883378E+02  0.7818608E-02  0.1468568E+00
          2   -1    0    0  502    0  0.00000000000E+00  0.00000000000E+00  0.59408421254E+03  0.59408421254E+03  0.00000000000E+00 0. -1.
          1   -1    0    0  501    0 -0.00000000000E+00 -0.00000000000E+00 -0.78410748102E+03  0.78410748102E+03  0.00000000000E+00 0. -1.
         25    2    1    2    0    0 -0.33128567318E+02  0.49263311328E+02 -0.29488945619E+03  0.32573836875E+03  0.12498526987E+03 0.  0.
          2    1    1    2  501    0  0.61128000907E+02 -0.36775091087E+02 -0.47069801936E+03  0.47607317215E+03  0.00000000000E+00 0. -1.
          1    1    1    2  502    0 -0.27999433589E+02 -0.12488220241E+02  0.57556420706E+03  0.57638015266E+03  0.00000000000E+00 0. -1.
         22    1    3    3    0    0  0.16233053081E+02  0.74788600726E+02 -0.12086495152E+03  0.14305657384E+03  0.00000000000E+00 0.  1.
         22    1    3    3    0    0 -0.49361620398E+02 -0.25525289398E+02 -0.17402450467E+03  0.18268179491E+03  0.00000000000E+00 0.  1.
</event>
<event>
 7    1  0.6842698E-006  0.7620752E+02  0.7818608E-02  0.1399780E+00
          2   -1    0    0  502    0  0.00000000000E+00  0.00000000000E+00  0.18671945239E+04  0.18671945239E+04  0.00000000000E+00 0. -1.
          1   -1    0    0  501    0 -0.00000000000E+00 -0.00000000000E+00 -0.75495655289E+03  0.75495655289E+03  0.00000000000E+00 0. -1.
         25    2    1    2    0    0  0.30025072491E+02  0.34419740166E+01 -0.33205250948E+02  0.13280514940E+03  0.12498506652E+03 0.  0.
          2    1    1    2  501    0  0.45511315250E+02  0.96117288569E+01 -0.67033671098E+03  0.67194863735E+03  0.00000000000E+00 0. -1.
          1    1    1    2  502    0 -0.75536387741E+02 -0.13053702873E+02  0.18157799329E+04  0.18173972900E+04  0.00000000000E+00 0. -1.
         22    1    3    3    0    0 -0.91239011996E+01 -0.47409257107E+02  0.17147290379E+02  0.51233902837E+02  0.00000000000E+00 0. -1.
         22    1    3    3    0    0  0.39148973690E+02  0.50851231124E+02 -0.50352541327E+02  0.81571246563E+02  0.00000000000E+00 0. -1.
</event>
<event>
 7    1  0.6681656E-006  0.1164578E+03  0.7818608E-02  0.1255933E+00
          2   -1    0    0  502    0  0.00000000000E+00  0.00000000000E+00  0.28215931089E+04  0.28215931089E+04  0.00000000000E+00 0. -1.
          1   -1    0    0  501    0 -0.00000000000E+00 -0.00000000000E+00 -0.39115775563E+02  0.39115775563E+02  0.00000000000E+00 0. -1.
         25    2    1    2    0    0 -0.11303562800E+03  0.29174081779E+02  0.63805473007E+03  0.66058089115E+03  0.12500037978E+03 0.  0.
          2    1    1    2  501    0  0.67329601325E+02  0.85412188285E+02  0.87711938840E+02  0.13972079780E+03  0.00000000000E+00 0. -1.
          1    1    1    2  502    0  0.45706026673E+02 -0.11458627006E+03  0.20567106644E+04  0.20604071955E+04  0.00000000000E+00 0. -1.
         22    1    3    3    0    0  0.11592265382E+02 -0.28498898033E+02  0.17141692149E+03  0.17415604721E+03  0.00000000000E+00 0. -1.
         22    1    3    3    0    0 -0.12462789338E+03  0.57672979812E+02  0.46663780858E+03  0.48642484395E+03  0.00000000000E+00 0. -1.
</event>
<event>
 7    1  0.6681656E-006  0.4797176E+02  0.7818608E-02  0.1554237E+00
          2   -1    0    0  502    0  0.00000000000E+00  0.00000000000E+00  0.12907826467E+04  0.12907826467E+04  0.00000000000E+00 0. -1.
          1   -1    0    0  501    0 -0.00000000000E+00 -0.00000000000E+00 -0.36035355640E+03  0.36035355640E+03  0.00000000000E+00 0. -1.
         25    2    1    2    0    0  0.25065242194E+02 -0.16716675287E+02  0.96061040900E+03  0.96917771737E+03  0.12500150543E+03 0.  0.
          2    1    1    2  501    0 -0.47543859493E+02  0.66504196763E+01 -0.35398197829E+03  0.35722246235E+03  0.00000000000E+00 0. -1.
          1    1    1    2  502    0  0.22478617300E+02  0.10066255610E+02  0.32380065962E+03  0.32473602342E+03  0.00000000000E+00 0. -1.
         22    1    3    3    0    0  0.62542797671E+02 -0.45691764263E+02  0.47639274635E+03  0.48264830637E+03  0.00000000000E+00 0. -1.
         22    1    3    3    0    0 -0.37477555477E+02  0.28975088977E+02  0.48421766265E+03  0.48652941100E+03  0.00000000000E+00 0. -1.
</event>
<event>
 7    1  0.6681656E-006  0.9104990E+02  0.7818608E-02  0.1306315E+00
          2   -1    0    0  502    0  0.00000000000E+00  0.00000000000E+00  0.12836642800E+04  0.12836642800E+04  0.00000000000E+00 0. -1.
          1   -1    0    0  501    0 -0.00000000000E+00 -0.00000000000E+00 -0.22980017564E+03  0.22980017564E+03  0.00000000000E+00 0. -1.
         25    2    1    2    0    0 -0.22365850355E+02 -0.22454511005E+02  0.37610699501E+03  0.39760041404E+03  0.12500072489E+03 0.  0.
          2    1    1    2  501    0 -0.86034670223E+02 -0.51126487322E+01 -0.20691609727E+03  0.22414810944E+03  0.00000000000E+00 0. -1.
          1    1    1    2  502    0  0.10840052058E+03  0.27567159737E+02  0.88467320666E+03  0.89171593220E+03  0.00000000000E+00 0. -1.
         22    1    3    3    0    0 -0.52043056995E+02 -0.52803603443E+02  0.31218786742E+03  0.32087063574E+03  0.00000000000E+00 0. -1.
         22    1    3    3    0    0  0.29677206640E+02  0.30349092438E+02  0.63919127590E+02  0.76729778298E+02  0.00000000000E+00 0. -1.
</event>
<event>
 7    1  0.6681656E-006  0.1212723E+03  0.7818608E-02  0.1318745E+00
          2   -1    0    0  502    0  0.00000000000E+00  0.00000000000E+00  0.94044780209E+03  0.94044780209E+03  0.00000000000E+00 0. -1.
          1   -1    0    0  501    0 -0.00000000000E+00 -0.00000000000E+00 -0.86616321609E+03  0.86616321609E+03  0.00000000000E+00 0. -1.
         25    2    1    2    0    0 -0.65776554442E+02  0.10485909654E+03  0.44205797379E+03  0.47577799952E+03  0.12500986920E+03 0.  0.
          2    1    1    2  501    0  0.10227406349E+02 -0.12094597983E+03 -0.84320538201E+03  0.85189661704E+03  0.00000000000E+00 0. -1.
          1    1    1    2  502    0  0.55549148093E+02  0.16086883284E+02  0.47543199422E+03  0.47893640162E+03  0.00000000000E+00 0. -1.
         22    1    3    3    0    0 -0.67561829327E+02  0.36306563939E+01  0.11520603221E+03  0.13360468669E+03  0.00000000000E+00 0. -1.
         22    1    3    3    0    0  0.17852748847E+01  0.10122844015E+03  0.32685194158E+03  0.34217331284E+03  0.00000000000E+00 0. -1.
</event>
<event>
 7    1  0.6681656E-006  0.8111180E+02  0.7818608E-02  0.1382024E+00
          2   -1    0    0  502    0  0.00000000000E+00  0.00000000000E+00  0.57993240693E+03  0.57993240693E+03  0.00000000000E+00 0. -1.
          1   -1    0    0  501    0 -0.00000000000E+00 -0.00000000000E+00 -0.20707079959E+03  0.20707079959E+03  0.00000000000E+00 0. -1.
         25    2    1    2    0    0  0.91950900724E+02  0.52807816174E+01  0.54988908881E+02  0.16472620808E+03  0.12501235431E+03 0.  0.
          2    1    1    2  501    0 -0.21371422805E+02 -0.45639285850E+02 -0.14438325359E+03  0.15292549180E+03  0.00000000000E+00 0. -1.
          1    1    1    2  502    0 -0.70579477919E+02  0.40358504233E+02  0.46225595205E+03  0.46935150663E+03  0.00000000000E+00 0. -1.
         22    1    3    3    0    0 -0.64290149544E+01 -0.25239645130E+02  0.55951195713E+02  0.61716352949E+02  0.00000000000E+00 0. -1.
         22    1    3    3    0    0  0.98379915679E+02  0.30520426748E+02 -0.96228683230E+00  0.10300985513E+03  0.00000000000E+00 0. -1.
</event>
<event>
 7    1  0.6681656E-006  0.4632055E+02  0.7818608E-02  0.1489610E+00
          2   -1    0    0  502    0  0.00000000000E+00  0.00000000000E+00  0.61819096355E+03  0.61819096355E+03  0.00000000000E+00 0. -1.
          1   -1    0    0  501    0 -0.00000000000E+00 -0.00000000000E+00 -0.12903847602E+03  0.12903847602E+03  0.00000000000E+00 0. -1.
         25    2    1    2    0    0  0.20484406547E+02 -0.24876782801E+02  0.14743172046E+02  0.12992142008E+03  0.12499499606E+03 0.  0.
          2    1    1    2  501    0  0.11135647787E+02  0.48145718568E+02 -0.62100915738E+02  0.79363320265E+02  0.00000000000E+00 0. -1.
          1    1    1    2  502    0 -0.31620054334E+02 -0.23268935767E+02  0.53651023123E+03  0.53794469922E+03  0.00000000000E+00 0. -1.
         22    1    3    3    0    0 -0.35861801493E+02 -0.18580842937E+02  0.49138318764E+02  0.63607317987E+02  0.00000000000E+00 0. -1.
         22    1    3    3    0    0  0.56346208039E+02 -0.62959398639E+01 -0.34395146718E+02  0.66314102097E+02  0.00000000000E+00 0. -1.
</event>
<event>
 7    1  0.6681656E-006  0.9406871E+02  0.7818608E-02  0.1328960E+00
          2   -1    0    0  502    0  0.00000000000E+00  0.00000000000E+00  0.25854039632E+04  0.25854039632E+04  0.00000000000E+00 0. -1.
          1   -1    0    0  501    0 -0.00000000000E+00 -0.00000000000E+00 -0.15556192464E+02  0.15556192464E+02  0.00000000000E+00 0. -1.
         25    2    1    2    0    0  0.36331798371E+02  0.19729339587E+02  0.64271367142E+03  0.65606008748E+03  0.12499891414E+03 0.  0.
          2    1    1    2  501    0  0.41267551328E+02  0.54159868652E+02  0.15222479841E+03  0.16675938180E+03  0.00000000000E+00 0. -1.
          1    1    1    2  502    0 -0.77599349698E+02 -0.73889208239E+02  0.17749093009E+04  0.17781406864E+04  0.00000000000E+00 0. -1.
         22    1    3    3    0    0 -0.17740975217E+02 -0.91128091414E+01  0.50420420166E+03  0.50459851611E+03  0.00000000000E+00 0. -1.
         22    1    3    3    0    0  0.54072773588E+02  0.28842148728E+02  0.13850946976E+03  0.15146157136E+03  0.00000000000E+00 0. -1.
</event>
<event>
 7    1  0.6681656E-006  0.4936598E+02  0.7818608E-02  0.1457666E+00
          2   -1    0    0  502    0  0.00000000000E+00  0.00000000000E+00  0.88961821585E+03  0.88961821585E+03  0.00000000000E+00 0. -1.
          1   -1    0    0  501    0 -0.00000000000E+00 -0.00000000000E+00 -0.47284252849E+03  0.47284252849E+03  0.00000000000E+00 0. -1.
         25    2    1    2    0    0  0.23144315214E+02  0.87026593292E+02  0.24601171446E+03  0.29026823620E+03  0.12499839210E+03 0.  0.
          2    1    1    2  501    0  0.17803207094E+01 -0.46221090226E+02 -0.44860360004E+03  0.45098198266E+03  0.00000000000E+00 0. -1.
          1    1    1    2  502    0 -0.24924635924E+02 -0.40805503066E+02  0.61936757294E+03  0.62121052547E+03  0.00000000000E+00 0. -1.
         22    1    3    3    0    0  0.82513079608E+01  0.11193558689E+03  0.13519258210E+03  0.17571196303E+03  0.00000000000E+00 0. -1.
         22    1    3    3    0    0  0.14893007254E+02 -0.24908993596E+02  0.11081913235E+03  0.11455627317E+03  0.00000000000E+00 0. -1.
</event>
<event>
 7    1  0.6681656E-006  0.7967469E+02  0.7818608E-02  0.1454408E+00
          2   -1    0    0  502    0  0.00000000000E+00  0.00000000000E+00  0.60675465290E+02  0.60675465290E+02  0.00000000000E+00 0. -1.
          1   -1    0    0  501    0 -0.00000000000E+00 -0.00000000000E+00 -0.28286113471E+03  0.28286113471E+03  0.00000000000E+00 0. -1.
         25    2    1    2    0    0 -0.50169651316E+02  0.37284345572E+02 -0.11833664118E+03  0.18312525540E+03  0.12499672868E+03 0.  0.
          2    1    1    2  501    0  0.79170838086E+02 -0.41795082314E+02 -0.93085214094E+02  0.12914994228E+03  0.00000000000E+00 0. -1.
          1    1    1    2  502    0 -0.29001186770E+02  0.45107367423E+01 -0.10763814152E+02  0.31261402322E+02  0.00000000000E+00 0. -1.
         22    1    3    3    0    0 -0.79116961878E+02 -0.47252989507E+01 -0.37850443443E+02  0.87832102194E+02  0.00000000000E+00 0. -1.
         22    1    3    3    0    0  0.28947310563E+02  0.42009644522E+02 -0.80486197733E+02  0.95293153202E+02  0.00000000000E+00 0. -1.
</event>
<event>
 7    1  0.6681656E-006  0.1530356E+03  0.7818608E-02  0.1328935E+00
          2   -1    0    0  502    0  0.00000000000E+00  0.00000000000E+00  0.31523189179E+04  0.31523189179E+04  0.00000000000E+00 0. -1.
          1   -1    0    0  501    0 -0.00000000000E+00 -0.00000000000E+00 -0.38430109914E+02  0.38430109914E+02  0.00000000000E+00 0. -1.
         25    2    1    2    0    0  0.12688163900E+03 -0.89456388844E+02  0.63344353578E+03  0.66406086106E+03  0.12499887339E+03 0.  0.
          2    1    1    2  501    0  0.17674289141E+02  0.37949130571E+02  0.36494694319E+00  0.41864665221E+02  0.00000000000E+00 0. -1.
          1    1    1    2  502    0 -0.14455592815E+03  0.51507258273E+02  0.24800803252E+04  0.24848235015E+04  0.00000000000E+00 0. -1.
         22    1    3    3    0    0  0.12794340763E+03 -0.24091236973E+02  0.35717614473E+03  0.38016404567E+03  0.00000000000E+00 0. -1.
         22    1    3    3    0    0 -0.10617686272E+01 -0.65365151871E+02  0.27626739104E+03  0.28389681539E+03  0.00000000000E+00 0. -1.
</event>
<event>
 7    1  0.6681656E-006  0.3746295E+02  0.7818608E-02  0.1566438E+00
          2   -1    0    0  502    0  0.00000000000E+00  0.00000000000E+00  0.18031715503E+04  0.18031715503E+04  0.00000000000E+00 0. -1.
          1   -1    0    0  501    0 -0.00000000000E+00 -0.00000000000E+00 -0.66437048734E+03  0.66437048734E+03  0.00000000000E+00 0. -1.
         25    2    1    2    0    0 -0.50132581329E+01 -0.20196827087E+02  0.13507126710E+03  0.18521040601E+03  0.12500241085E+03 0.  0.
          2    1    1    2  501    0  0.33917410501E+02  0.16104259585E+02 -0.63861981265E+03  0.63972259849E+03  0.00000000000E+00 0. -1.
          1    1    1    2  502    0 -0.28904152368E+02  0.40925675017E+01  0.16423496085E+04  0.16426090331E+04  0.00000000000E+00 0. -1.
         22    1    3    3    0    0 -0.47492321366E+02 -0.40173810418E+02  0.12125075186E+03  0.13627619183E+03  0.00000000000E+00 0. -1.
         22    1    3    3    0    0  0.42479063233E+02  0.19976983331E+02  0.13820515235E+02  0.48934214182E+02  0.00000000000E+00 0. -1.
</event>
<event>
 7    1  0.6681656E-006  0.1479823E+03  0.7818608E-02  0.1257485E+00
          2   -1    0    0  502    0  0.00000000000E+00  0.00000000000E+00  0.10469827810E+04  0.10469827810E+04  0.00000000000E+00 0. -1.
          1   -1    0    0  501    0 -0.00000000000E+00 -0.00000000000E+00 -0.43917015377E+03  0.43917015377E+03  0.00000000000E+00 0. -1.
         25    2    1    2    0    0  0.14207097569E+03  0.16701254722E+03  0.39544435883E+03  0.46912676411E+03  0.12500530714E+03 0.  0.
          2    1    1    2  501    0 -0.11769109805E+03 -0.86328343081E+02 -0.38603983961E+03  0.41271120066E+03  0.00000000000E+00 0. -1.
          1    1    1    2  502    0 -0.24379877646E+02 -0.80684204143E+02  0.59840810796E+03  0.60431496995E+03  0.00000000000E+00 0. -1.
         22    1    3    3    0    0  0.11042484948E+03  0.10939317542E+03  0.36492587764E+03  0.39665023684E+03  0.00000000000E+00 0. -1.
         22    1    3    3    0    0  0.31646126217E+02  0.57619371808E+02  0.30518481187E+02  0.72476527276E+02  0.00000000000E+00 0. -1.
</event>
<event>
 7    1  0.6681656E-006  0.9270005E+02  0.7818608E-02  0.1362427E+00
          2   -1    0    0  502    0  0.00000000000E+00  0.00000000000E+00  0.18916720446E+03  0.18916720446E+03  0.00000000000E+00 0. -1.
          1   -1    0    0  501    0 -0.00000000000E+00 -0.00000000000E+00 -0.22163864730E+04  0.22163864730E+04  0.00000000000E+00 0. -1.
         25    2    1    2    0    0  0.47952575401E+02  0.59414939964E+02  0.42529750548E+02  0.15252178427E+03  0.12499812165E+03 0.  0.
          2    1    1    2  501    0  0.48683755766E+02 -0.17795067961E+02 -0.21307696481E+04  0.21314000248E+04  0.00000000000E+00 0. -1.
          1    1    1    2  502    0 -0.96636331167E+02 -0.41619872003E+02  0.61020628994E+02  0.12163186840E+03  0.00000000000E+00 0. -1.
         22    1    3    3    0    0  0.36193697121E+02 -0.35326466562E+02  0.92226237416E+01  0.51410113205E+02  0.00000000000E+00 0. -1.
         22    1    3    3    0    0  0.11758878279E+02  0.94741406526E+02  0.33307126806E+02  0.10111167106E+03  0.00000000000E+00 0. -1.
</event>
<event>
 7    1  0.6681656E-006  0.6116141E+02  0.7818608E-02  0.1484042E+00
          2   -1    0    0  502    0  0.00000000000E+00  0.00000000000E+00  0.53615887462E+03  0.53615887462E+03  0.00000000000E+00 0. -1.
          1   -1    0    0  501    0 -0.00000000000E+00 -0.00000000000E+00 -0.28827638826E+03  0.28827638826E+03  0.00000000000E+00 0. -1.
         25    2    1    2    0    0 -0.29131387391E+02 -0.76475545495E+02  0.33929850154E+02  0.15321020392E+03  0.12499994025E+03 0.  0.
          2    1    1    2  501    0  0.26479302236E+02  0.15954012654E+02 -0.22550372519E+03  0.22761286001E+03  0.00000000000E+00 0. -1.
          1    1    1    2  502    0  0.26520851550E+01  0.60521532841E+02  0.43945636139E+03  0.44361219895E+03  0.00000000000E+00 0. -1.
         22    1    3    3    0    0 -0.39588166630E+02 -0.10658034646E+03  0.40458381648E+02  0.12067921874E+03  0.00000000000E+00 0. -1.
         22    1    3    3    0    0  0.10456779240E+02  0.30104800968E+02 -0.65285314934E+01  0.32530985181E+02  0.00000000000E+00 0. -1.
</event>
<event>
 7    1  0.6681656E-006  0.1113238E+03  0.7818608E-02  0.1283895E+00
          2   -1    0    0  502    0  0.00000000000E+00  0.00000000000E+00  0.13376941157E+04  0.13376941157E+04  0.00000000000E+00 0. -1.
          1   -1    0    0  501    0 -0.00000000000E+00 -0.00000000000E+00 -0.19074022438E+03  0.19074022438E+03  0.00000000000E+00 0. -1.
         25    2    1    2    0    0 -0.13623598218E+03  0.93755153230E+02  0.20481087730E+03  0.29141316537E+03  0.12499546349E+03 0.  0.
          2    1    1    2  501    0  0.86746435608E+02  0.34134331015E+01 -0.13165467469E+03  0.15770082112E+03  0.00000000000E+00 0. -1.
          1    1    1    2  502    0  0.49489546570E+02 -0.97168586332E+02  0.10737976888E+04  0.10793203536E+04  0.00000000000E+00 0. -1.
         22    1    3    3    0    0 -0.15981374120E+03  0.77705053414E+02  0.16542031618E+03  0.24278053506E+03  0.00000000000E+00 0.  1.
         22    1    3    3    0    0  0.23577759023E+02  0.16050099816E+02  0.39390561129E+02  0.48632630308E+02  0.00000000000E+00 0.  1.
</event>
<event>
 7    1  0.6681656E-006  0.2143131E+03  0.7818608E-02  0.1290555E+00
          2   -1    0    0  502    0  0.00000000000E+00  0.00000000000E+00  0.79799421373E+03  0.79799421373E+03  0.00000000000E+00 0. -1.
          1   -1    0    0  501    0 -0.00000000000E+00 -0.00000000000E+00 -0.24198960152E+03  0.24198960152E+03  0.00000000000E+00 0. -1.
         25    2    1    2    0    0  0.14382703551E+02  0.23162778113E+03 -0.57987970937E+02  0.26989895924E+03  0.12499820908E+03 0.  0.
          2    1    1    2  501    0 -0.29465370254E+02 -0.19204765861E+03  0.44896446737E+02  0.19941464879E+03  0.00000000000E+00 0. -1.
          1    1    1    2  502    0  0.15082666703E+02 -0.39580122518E+02  0.56909613640E+03  0.57067020721E+03  0.00000000000E+00 0. -1.
         22    1    3    3    0    0  0.44024376356E+02  0.18605899276E+02 -0.18385934281E+02  0.51209059557E+02  0.00000000000E+00 0.  1.
         22    1    3    3    0    0 -0.29641672805E+02  0.21302188186E+03 -0.39602036656E+02  0.21868989968E+03  0.00000000000E+00 0.  1.
</event>
<event>
 7    1  0.6681656E-006  0.8985241E+02  0.7818608E-02  0.1337667E+00
          2   -1    0    0  502    0  0.00000000000E+00  0.00000000000E+00  0.46891546371E+02  0.46891546371E+02  0.00000000000E+00 0. -1.
          1   -1    0    0  501    0 -0.00000000000E+00 -0.00000000000E+00 -0.28807966463E+04  0.28807966463E+04  0.00000000000E+00 0. -1.
         25    2    1    2    0    0 -0.16355776228E+02  0.82127753040E+02 -0.12516036478E+04  0.12606145498E+04  0.12499949080E+03 0.  0.
          2    1    1    2  501    0  0.65805671654E+02 -0.57338224648E+01 -0.15743390428E+04  0.15757241779E+04  0.00000000000E+00 0. -1.
          1    1    1    2  502    0 -0.49449895426E+02 -0.76393930575E+02 -0.79624093002E+01  0.91349464958E+02  0.00000000000E+00 0. -1.
         22    1    3    3    0    0 -0.68244855262E+02  0.27950397118E+02 -0.71485102231E+03  0.71864495341E+03  0.00000000000E+00 0.  1.
         22    1    3    3    0    0  0.51889079034E+02  0.54177355921E+02 -0.53675262551E+03  0.54196959639E+03  0.00000000000E+00 0.  1.
</event>
<event>
 7    1  0.6681656E-006  0.5313601E+02  0.7818608E-02  0.1442952E+00
          2   -1    0    0  502    0  0.00000000000E+00  0.00000000000E+00  0.31855954630E+04  0.31855954630E+04  0.00000000000E+00 0. -1.
          1   -1    0    0  501    0 -0.00000000000E+00 -0.00000000000E+00 -0.10915242521E+04  0.10915242521E+04  0.00000000000E+00 0. -1.
         25    2    1    2    0    0  0.13635995094E+02 -0.84572082800E+02 -0.16536174065E+02  0.15243672508E+03  0.12500053020E+03 0.  0.
          2    1    1    2  501    0  0.18900154930E+02  0.49429252732E+02 -0.10061584882E+04  0.10075491900E+04  0.00000000000E+00 0. -1.
          1    1    1    2  502    0 -0.32536150024E+02  0.35142830068E+02  0.31167658732E+04  0.31171338001E+04  0.00000000000E+00 0. -1.
         22    1    3    3    0    0  0.54299276609E+02 -0.72001443477E+02 -0.45445852670E+02  0.10098487425E+03  0.00000000000E+00 0.  1.
         22    1    3    3    0    0 -0.40663281515E+02 -0.12570639323E+02  0.28909678605E+02  0.51451850828E+02  0.00000000000E+00 0.  1.
</event>
<event>
 7    1  0.6681656E-006  0.1368386E+03  0.7818608E-02  0.1393886E+00
          2   -1    0    0  502    0  0.00000000000E+00  0.00000000000E+00  0.18493734716E+04  0.18493734716E+04  0.00000000000E+00 0. -1.
          1   -1    0    0  501    0 -0.00000000000E+00 -0.00000000000E+00 -0.83854594342E+03  0.83854594342E+03  0.00000000000E+00 0. -1.
         25    2    1    2    0    0 -0.36035004010E+02 -0.15505575026E+03  0.38908664927E+02  0.20610711028E+03  0.12500179797E+03 0.  0.
          2    1    1    2  501    0  0.18275595654E+02  0.13452192363E+03 -0.74873564744E+03  0.76094363462E+03  0.00000000000E+00 0. -1.
          1    1    1    2  502    0  0.17759408356E+02  0.20533826639E+02  0.17206545107E+04  0.17208686701E+04  0.00000000000E+00 0. -1.
         22    1    3    3    0    0  0.21727732668E+01 -0.82550658005E+02  0.79518960663E+02  0.11464116706E+03  0.00000000000E+00 0.  1.
         22    1    3    3    0    0 -0.38207777277E+02 -0.72505092259E+02 -0.40610295736E+02  0.91465943212E+02  0.00000000000E+00 0.  1.
</event>
<event>
 7    1  0.6681656E-006  0.9709462E+02  0.7818608E-02  0.1413796E+00
          2   -1    0    0  502    0  0.00000000000E+00  0.00000000000E+00  0.26367610642E+04  0.26367610642E+04  0.00000000000E+00 0. -1.
          1   -1    0    0  501    0 -0.00000000000E+00 -0.00000000000E+00 -0.55378016214E+02  0.55378016214E+02  0.00000000000E+00 0. -1.
         25    2    1    2    0    0  0.29333995701E+02 -0.75674066218E+02  0.57959797172E+03  0.59845286549E+03  0.12499990316E+03 0.  0.
          2    1    1    2  501    0 -0.60756516201E+01  0.98673364569E+02  0.75123469817E+01  0.99145255939E+02  0.00000000000E+00 0. -1.
          1    1    1    2  502    0 -0.23258344081E+02 -0.22999298352E+02  0.19942727293E+04  0.19945409590E+04  0.00000000000E+00 0. -1.
         22    1    3    3    0    0  0.63919868030E+02 -0.78493060023E+02  0.51758937193E+03  0.52739517246E+03  0.00000000000E+00 0.  1.
         22    1    3    3    0    0 -0.34585872330E+02  0.28189938057E+01  0.62008599794E+02  0.71057693034E+02  0.00000000000E+00 0.  1.
</event>
<event>
 7    1  0.6681656E-006  0.5538459E+02  0.7818608E-02  0.1535108E+00
          2   -1    0    0  502    0  0.00000000000E+00  0.00000000000E+00  0.18818452031E+03  0.18818452031E+03  0.00000000000E+00 0. -1.
          1   -1    0    0  501    0 -0.00000000000E+00 -0.00000000000E+00 -0.36570544870E+03  0.36570544870E+03  0.00000000000E+00 0. -1.
         25    2    1    2    0    0  0.45433662533E+02 -0.31008338657E+02 -0.18061446507E+03  0.22643444553E+03  0.12500095349E+03 0.  0.
          2    1    1    2  501    0 -0.55644089741E+02  0.91304962806E+01 -0.15634320430E+03  0.16620116791E+03  0.00000000000E+00 0. -1.
          1    1    1    2  502    0  0.10210427208E+02  0.21877842376E+02  0.15943674099E+03  0.16125435556E+03  0.00000000000E+00 0. -1.
         22    1    3    3    0    0 -0.14904019824E+02  0.38293873932E+02 -0.33667223731E+02  0.53122806226E+02  0.00000000000E+00 0. -1.
         22    1    3    3    0    0  0.60337682357E+02 -0.69302212588E+02 -0.14694724134E+03  0.17331163931E+03  0.00000000000E+00 0. -1.
</event>
<event>
 7    1  0.6681656E-006  0.1347117E+03  0.7818608E-02  0.1386690E+00
          2   -1    0    0  502    0  0.00000000000E+00  0.00000000000E+00  0.29413070599E+04  0.29413070599E+04  0.00000000000E+00 0. -1.
          1   -1    0    0  501    0 -0.00000000000E+00 -0.00000000000E+00 -0.21456352552E+04  0.21456352552E+04  0.00000000000E+00 0. -1.
         25    2    1    2    0    0  0.14465611819E+03  0.73442217973E+02 -0.43307516275E+02  0.20933198126E+03  0.12500074201E+03 0.  0.
          2    1    1    2  501    0 -0.21430329707E+02 -0.19860248984E+02 -0.20176304447E+04  0.20178419908E+04  0.00000000000E+00 0. -1.
          1    1    1    2  502    0 -0.12322578848E+03 -0.53581968989E+02  0.28566097657E+04  0.28597683430E+04  0.00000000000E+00 0. -1.
         22    1    3    3    0    0  0.12300909874E+03  0.43658046621E+02  0.23902416779E+02  0.13269735844E+03  0.00000000000E+00 0.  1.
         22    1    3    3    0    0  0.21647019447E+02  0.29784171352E+02 -0.67209933054E+02  0.76634622823E+02  0.00000000000E+00 0.  1.
</event>
<event>
 7    1  0.6681656E-006  0.1057727E+03  0.7818608E-02  0.1467054E+00
          2   -1    0    0  502    0  0.00000000000E+00  0.00000000000E+00  0.79064031862E+03  0.79064031862E+03  0.00000000000E+00 0. -1.
          1   -1    0    0  501    0 -0.00000000000E+00 -0.00000000000E+00 -0.19582452293E+03  0.19582452293E+03  0.00000000000E+00 0. -1.
         25    2    1    2    0    0 -0.10801791135E+03 -0.45210793492E+02 -0.13517630057E+03  0.21819714697E+03  0.12500191074E+03 0.  0.
          2    1    1    2  501    0  0.56743455520E+01  0.19355133707E+02 -0.87759814172E+01  0.21996300782E+02  0.00000000000E+00 0. -1.
          1    1    1    2  502    0  0.10234356580E+03  0.25855659785E+02  0.73876807768E+03  0.74627139380E+03  0.00000000000E+00 0. -1.
         22    1    3    3    0    0 -0.72225716586E+02 -0.78735999048E+02 -0.45794665773E+02  0.11624570141E+03  0.00000000000E+00 0. -1.
         22    1    3    3    0    0 -0.35792194762E+02  0.33525205556E+02 -0.89381634794E+02  0.10195144556E+03  0.00000000000E+00 0. -1.
</event>
<event>
 7    1  0.6681656E-006  0.3407160E+02  0.7818608E-02  0.1565572E+00
          2   -1    0    0  502    0  0.00000000000E+00  0.00000000000E+00  0.22440436880E+03  0.22440436880E+03  0.00000000000E+00 0. -1.
          1   -1    0    0  501    0 -0.00000000000E+00 -0.00000000000E+00 -0.30501709083E+03  0.30501709083E+03  0.00000000000E+00 0. -1.
         25    2    1    2    0    0 -0.13751871243E+02  0.24589306089E+02  0.28979336045E+01  0.12816650092E+03  0.12499802399E+03 0.  0.
          2    1    1    2  501    0  0.31887941042E+02  0.49721887968E+01 -0.23939429398E+03  0.24155991272E+03  0.00000000000E+00 0. -1.
          1    1    1    2  502    0 -0.18136069799E+02 -0.29561494886E+02  0.15588363835E+03  0.15969504599E+03  0.00000000000E+00 0. -1.
         22    1    3    3    0    0  0.52252004087E+02  0.26725669263E+02  0.16019364084E+02  0.60837105078E+02  0.00000000000E+00 0.  1.
         22    1    3    3    0    0 -0.66003875330E+02 -0.21363631739E+01 -0.13121430479E+02  0.67329395839E+02  0.00000000000E+00 0.  1.
</event>
<event>
 7    1  0.6681656E-006  0.2732354E+02  0.7818608E-02  0.1641513E+00
          2   -1    0    0  502    0  0.00000000000E+00  0.00000000000E+00  0.25456251453E+02  0.25456251453E+02  0.00000000000E+00 0. -1.
          1   -1    0    0  501    0 -0.00000000000E+00 -0.00000000000E+00 -0.12511768747E+04  0.12511768747E+04  0.00000000000E+00 0. -1.
         25    2    1    2    0    0  0.10837222194E+02  0.49013096985E+02 -0.18094536508E+03  0.22557972133E+03  0.12500102588E+03 0.  0.
          2    1    1    2  501    0 -0.13404613048E+02 -0.23611850149E+02 -0.99255419048E+03  0.99292548771E+03  0.00000000000E+00 0. -1.
          1    1    1    2  502    0  0.25673908545E+01 -0.25401246836E+02 -0.52221067685E+02  0.58127917104E+02  0.00000000000E+00 0. -1.
         22    1    3    3    0    0  0.95934447394E+01 -0.24397260871E+01 -0.17325845442E+03  0.17354099940E+03  0.00000000000E+00 0.  1.
         22    1    3    3    0    0  0.12437774541E+01  0.51452823072E+02 -0.76869106590E+01  0.52038721928E+02  0.00000000000E+00 0.  1.
</event>
<event>
 7    1  0.6681656E-006  0.1070368E+03  0.7818608E-02  0.1336443E+00
          2   -1    0    0  502    0  0.00000000000E+00  0.00000000000E+00  0.12806042843E+04  0.12806042843E+04  0.00000000000E+00 0. -1.
          1   -1    0    0  501    0 -0.00000000000E+00 -0.00000000000E+00 -0.51296720211E+02  0.51296720211E+02  0.00000000000E+00 0. -1.
         25    2    1    2    0    0 -0.29960427746E+02 -0.64158127570E+02  0.28116617521E+03  0.31573890642E+03  0.12499098521E+03 0.  0.
          2    1    1    2  501    0  0.78201605127E+02  0.92683480700E+02  0.77931422647E+02  0.14414931590E+03  0.00000000000E+00 0. -1.
          1    1    1    2  502    0 -0.48241177381E+02 -0.28525353130E+02  0.87020996619E+03  0.87201278214E+03  0.00000000000E+00 0. -1.
         22    1    3    3    0    0 -0.25044371844E+02 -0.14142334614E+02 -0.13444225206E+01  0.28792944645E+02  0.00000000000E+00 0.  1.
         22    1    3    3    0    0 -0.49160559013E+01 -0.50015792956E+02  0.28251059773E+03  0.28694596178E+03  0.00000000000E+00 0.  1.
</event>
<event>
 7    1  0.6681656E-006  0.1109212E+03  0.7818608E-02  0.1344085E+00
          2   -1    0    0  502    0  0.00000000000E+00  0.00000000000E+00  0.85625457845E+03  0.85625457845E+03  0.00000000000E+00 0. -1.
          1   -1    0    0  501    0 -0.00000000000E+00 -0.00000000000E+00 -0.29585694393E+03  0.29585694393E+03  0.00000000000E+00 0. -1.
         25    2    1    2    0    0 -0.84380622109E+02  0.11970082873E+03 -0.15097595600E+02  0.19313642767E+03  0.12500145806E+03 0.  0.
          2    1    1    2  501    0  0.47977143385E+02 -0.16137384563E+02 -0.18438485087E+03  0.19120668058E+03  0.00000000000E+00 0. -1.
          1    1    1    2  502    0  0.36403478724E+02 -0.10356344417E+03  0.75988008100E+03  0.76776841413E+03  0.00000000000E+00 0. -1.
         22    1    3    3    0    0 -0.37223438562E+02 -0.19444812873E+02 -0.19160875541E+02  0.46160852218E+02  0.00000000000E+00 0. -1.
         22    1    3    3    0    0 -0.47157183547E+02  0.13914564160E+03  0.40632799413E+01  0.14697557546E+03  0.00000000000E+00 0. -1.
</event>
<event>
 7    1  0.6681656E-006  0.2269209E+03  0.7818608E-02  0.1176987E+00
          2   -1    0    0  502    0  0.00000000000E+00  0.00000000000E+00  0.20400526208E+04  0.20400526208E+04  0.00000000000E+00 0. -1.
          1   -1    0    0  501    0 -0.00000000000E+00 -0.00000000000E+00 -0.12488171061E+04  0.12488171061E+04  0.00000000000E+00 0. -1.
         25    2    1    2    0    0  0.14406291405E+03  0.60689870503E+02 -0.60734808440E+03  0.63947976016E+03  0.12500113775E+03 0.  0.
          2    1    1    2  501    0  0.80356794185E+02 -0.10040495268E+03 -0.61228636418E+03  0.62564603463E+03  0.00000000000E+00 0. -1.
          1    1    1    2  502    0 -0.22441970823E+03  0.39715082181E+02  0.20108699634E+04  0.20237439321E+04  0.00000000000E+00 0. -1.
         22    1    3    3    0    0  0.75636965628E+02  0.51771598481E+01 -0.10526997179E+03  0.12972864184E+03  0.00000000000E+00 0.  1.
         22    1    3    3    0    0  0.68425948418E+02  0.55512710655E+02 -0.50207811261E+03  0.50975111831E+03  0.00000000000E+00 0.  1.
</event>
<event>
 7    1  0.6681656E-006  0.5780524E+02  0.7818608E-02  0.1529541E+00
          2   -1    0    0  502    0  0.00000000000E+00  0.00000000000E+00  0.42061578289E+03  0.42061578289E+03  0.00000000000E+00 0. -1.
          1   -1    0    0  501    0 -0.00000000000E+00 -0.00000000000E+00 -0.37218982385E+03  0.37218982385E+03  0.00000000000E+00 0. -1.
         25    2    1    2    0    0 -0.14886642705E+02 -0.53427774186E+02  0.50910307652E+02  0.14591922090E+03  0.12499768165E+03 0.  0.
          2    1    1    2  501    0 -0.87897476630E+01  0.57323277290E+02 -0.32164181894E+03  0.32682820790E+03  0.00000000000E+00 0. -1.
          1    1    1    2  502    0  0.23676390368E+02 -0.38955031038E+01  0.31915747032E+03  0.32005817794E+03  0.00000000000E+00 0. -1.
         22    1    3    3    0    0  0.47551334813E+00 -0.67311430976E+02  0.83533501740E+02  0.10727954496E+03  0.00000000000E+00 0.  1.
         22    1    3    3    0    0 -0.15362156053E+02  0.13883656789E+02 -0.32623194088E+02  0.38639675943E+02  0.00000000000E+00 0.  1.
</event>
<event>
 7    1  0.6681656E-006  0.7880906E+02  0.7818608E-02  0.1338809E+00
          2   -1    0    0  502    0  0.00000000000E+00  0.00000000000E+00  0.29044112695E+04  0.29044112695E+04  0.00000000000E+00 0. -1.
          1   -1    0    0  501    0 -0.00000000000E+00 -0.00000000000E+00 -0.93661380329E+03  0.93661380329E+03  0.00000000000E+00 0. -1.
         25    2    1    2    0    0  0.26607035406E+02  0.34795643817E+02  0.37616015107E+03  0.39879835266E+03  0.12499998268E+03 0.  0.
          2    1    1    2  501    0  0.54037476169E+02 -0.51383603804E+02 -0.92311758435E+03  0.92612439667E+03  0.00000000000E+00 0. -1.
          1    1    1    2  502    0 -0.80644511575E+02  0.16587959986E+02  0.25147548995E+04  0.25161023235E+04  0.00000000000E+00 0. -1.
         22    1    3    3    0    0  0.52359321434E+02  0.28715221022E+02  0.36537754137E+03  0.37022535056E+03  0.00000000000E+00 0. -1.
         22    1    3    3    0    0 -0.25752286028E+02  0.60804227951E+01  0.10782609697E+02  0.28573002099E+02  0.00000000000E+00 0. -1.
</event>
<event>
 7    1  0.6681656E-006  0.9238967E+02  0.7818608E-02  0.1385245E+00
          2   -1    0    0  502    0  0.00000000000E+00  0.00000000000E+00  0.11490361906E+04  0.11490361906E+04  0.00000000000E+00 0. -1.
          1   -1    0    0  501    0 -0.00000000000E+00 -0.00000000000E+00 -0.10091993249E+04  0.10091993249E+04  0.00000000000E+00 0. -1.
         25    2    1    2    0    0 -0.11688959426E+03  0.30789170985E+02  0.24195183400E+03  0.29795359930E+03  0.12499802824E+03 0.  0.
          2    1    1    2  501    0  0.39825681470E+02  0.16485221193E+02 -0.97839820139E+03  0.97934717435E+03  0.00000000000E+00 0. -1.
          1    1    1    2  502    0  0.77063912791E+02 -0.47274392178E+02  0.87628323305E+03  0.88093474181E+03  0.00000000000E+00 0. -1.
         22    1    3    3    0    0 -0.60866397991E+02 -0.38551756227E+02  0.16554929156E+03  0.18054784477E+03  0.00000000000E+00 0. -1.
         22    1    3    3    0    0 -0.56023196270E+02  0.69340927212E+02  0.76402542442E+02  0.11740575454E+03  0.00000000000E+00 0. -1.
</event>
<event>
 7    1  0.6681656E-006  0.5665864E+02  0.7818608E-02  0.1476608E+00
          2   -1    0    0  502    0  0.00000000000E+00  0.00000000000E+00  0.19845096417E+04  0.19845096417E+04  0.00000000000E+00 0. -1.
          1   -1    0    0  501    0 -0.00000000000E+00 -0.00000000000E+00 -0.78747047467E+02  0.78747047467E+02  0.00000000000E+00 0. -1.
         25    2    1    2    0    0 -0.88729780739E+02 -0.14871827271E+02  0.59499618131E+03  0.61460590386E+03  0.12500326418E+03 0.  0.
          2    1    1    2  501    0  0.34601248241E+02  0.62944173488E+01 -0.63875213129E+02  0.72917137367E+02  0.00000000000E+00 0. -1.
          1    1    1    2  502    0  0.54128532498E+02  0.85774099226E+01  0.13746416260E+04  0.13757336479E+04  0.00000000000E+00 0. -1.
         22    1    3    3    0    0 -0.41156190492E+01 -0.10355937503E+02  0.42026649146E+03  0.42041420956E+03  0.00000000000E+00 0.  1.
         22    1    3    3    0    0 -0.84614161690E+02 -0.45158897688E+01  0.17472968985E+03  0.19419169430E+03  0.00000000000E+00 0.  1.
</event>
<event>
 7    1  0.6681656E-006  0.1185014E+03  0.7818608E-02  0.1308270E+00
          2   -1    0    0  502    0  0.00000000000E+00  0.00000000000E+00  0.26871314507E+04  0.26871314507E+04  0.00000000000E+00 0. -1.
          1   -1    0    0  501    0 -0.00000000000E+00 -0.00000000000E+00 -0.48646960019E+03  0.48646960019E+03  0.00000000000E+00 0. -1.
         25    2    1    2    0    0 -0.77899258390E+02  0.72301342119E+02  0.18811389863E+03  0.24961630274E+03  0.12500272480E+03 0.  0.
          2    1    1    2  501    0  0.29547880626E+02 -0.11582052703E+03 -0.44744312702E+03  0.46313369953E+03  0.00000000000E+00 0. -1.
          1    1    1    2  502    0  0.48351377764E+02  0.43519184907E+02  0.24599910789E+04  0.24608510486E+04  0.00000000000E+00 0. -1.
         22    1    3    3    0    0  0.12229129202E+02 -0.26250943830E+02  0.21412313074E+02  0.36015979845E+02  0.00000000000E+00 0. -1.
         22    1    3    3    0    0 -0.90128387593E+02  0.98552285949E+02  0.16670158555E+03  0.21360032290E+03  0.00000000000E+00 0. -1.
</event>
<event>
 7    1  0.6681656E-006  0.3672404E+02  0.7818608E-02  0.1567483E+00
          2   -1    0    0  502    0  0.00000000000E+00  0.00000000000E+00  0.21889520006E+03  0.21889520006E+03  0.00000000000E+00 0. -1.
          1   -1    0    0  501    0 -0.00000000000E+00 -0.00000000000E+00 -0.14033186226E+04  0.14033186226E+04  0.00000000000E+00 0. -1.
         25    2    1    2    0    0 -0.35302083060E+02  0.55512079038E+02 -0.55385253323E+03  0.57158206820E+03  0.12500241655E+03 0.  0.
          2    1    1    2  501    0  0.12543869054E+02 -0.26793984827E+02 -0.83874034941E+03  0.83926196149E+03  0.00000000000E+00 0. -1.
          1    1    1    2  502    0  0.22758214005E+02 -0.28718094211E+02  0.20816946012E+03  0.21136979294E+03  0.00000000000E+00 0. -1.
         22    1    3    3    0    0  0.49380248094E+01  0.78429059494E+02 -0.20288359103E+03  0.21757125952E+03  0.00000000000E+00 0.  1.
         22    1    3    3    0    0 -0.40240107869E+02 -0.22916980456E+02 -0.35096894220E+03  0.35401080868E+03  0.00000000000E+00 0.  1.
</event>
<event>
 7    1  0.6681656E-006  0.8315636E+02  0.7818608E-02  0.1408112E+00
          2   -1    0    0  502    0  0.00000000000E+00  0.00000000000E+00  0.10759438076E+04  0.10759438076E+04  0.00000000000E+00 0. -1.
          1   -1    0    0  501    0 -0.00000000000E+00 -0.00000000000E+00 -0.15753000582E+04  0.15753000582E+04  0.00000000000E+00 0. -1.
         25    2    1    2    0    0  0.57319942452E+02 -0.19657269298E+02  0.57887025556E+03  0.59530515838E+03  0.12500189909E+03 0.  0.
          2    1    1    2  501    0 -0.82429285041E+02 -0.11379455910E+02 -0.15651605266E+04  0.15673709048E+04  0.00000000000E+00 0. -1.
          1    1    1    2  502    0  0.25109342589E+02  0.31036725207E+02  0.48693402056E+03  0.48856780264E+03  0.00000000000E+00 0. -1.
         22    1    3    3    0    0 -0.35911147075E+02 -0.27185541113E+02  0.16913902813E+03  0.17503335386E+03  0.00000000000E+00 0. -1.
         22    1    3    3    0    0  0.93231089527E+02  0.75282718153E+01  0.40973122744E+03  0.42027180451E+03  0.00000000000E+00 0. -1.
</event>
<event>
 7    1  0.6681656E-006  0.1028267E+03  0.7818608E-02  0.1467239E+00
          2   -1    0    0  502    0  0.00000000000E+00  0.00000000000E+00  0.13449925434E+03  0.13449925434E+03  0.00000000000E+00 0. -1.
          1   -1    0    0  501    0 -0.00000000000E+00 -0.00000000000E+00 -0.94296069831E+03  0.94296069831E+03  0.00000000000E+00 0. -1.
         25    2    1    2    0    0  0.87770065096E+02  0.12293427037E+02 -0.39602347630E+03  0.42464520432E+03  0.12503696691E+03 0.  0.
          2    1    1    2  501    0  0.15877584488E+02 -0.13312314589E+02 -0.51002884154E+03  0.51044954169E+03  0.00000000000E+00 0. -1.
          1    1    1    2  502    0 -0.10364764958E+03  0.10188875514E+01  0.97590873883E+02  0.14236520664E+03  0.00000000000E+00 0. -1.
         22    1    3    3    0    0  0.10182291017E+03  0.49219601006E+02 -0.27545827031E+03  0.29777127605E+03  0.00000000000E+00 0.  1.
         22    1    3    3    0    0 -0.14052845073E+02 -0.36926173969E+02 -0.12056520599E+03  0.12687392827E+03  0.00000000000E+00 0.  1.
</event>
<event>
 7    1  0.6681656E-006  0.5314047E+02  0.7818608E-02  0.1529971E+00
          2   -1    0    0  502    0  0.00000000000E+00  0.00000000000E+00  0.16011784519E+04  0.16011784519E+04  0.00000000000E+00 0. -1.
          1   -1    0    0  501    0 -0.00000000000E+00 -0.00000000000E+00 -0.23790192391E+03  0.23790192391E+03  0.00000000000E+00 0. -1.
         25    2    1    2    0    0  0.41068996230E+02  0.26817328959E+02  0.20583633528E+02  0.13584842452E+03  0.12500110756E+03 0.  0.
          2    1    1    2  501    0 -0.53502776809E+02 -0.39522674651E+01 -0.17616408834E+03  0.18415198496E+03  0.00000000000E+00 0. -1.
          1    1    1    2  502    0  0.12433780580E+02 -0.22865061494E+02  0.15188569827E+04  0.15190799663E+04  0.00000000000E+00 0. -1.
         22    1    3    3    0    0  0.43688857418E+02 -0.15703841033E+02 -0.40342785504E+02  0.61505017908E+02  0.00000000000E+00 0. -1.
         22    1    3    3    0    0 -0.26198611884E+01  0.42521169991E+02  0.60926419032E+02  0.74343406608E+02  0.00000000000E+00 0. -1.
</event>
<event>
 7    1  0.6681656E-006  0.4821314E+02  0.7818608E-02  0.1483952E+00
          2   -1    0    0  502    0  0.00000000000E+00  0.00000000000E+00  0.25088761276E+04  0.25088761276E+04  0.00000000000E+00 0. -1.
          1   -1    0    0  501    0 -0.00000000000E+00 -0.00000000000E+00 -0.71164488432E+02  0.71164488432E+02  0.00000000000E+00 0. -1.
         25    2    1    2    0    0 -0.70421140279E+02 -0.47684929464E+02  0.10407727154E+03  0.18354667594E+03  0.12499725718E+03 0.  0.
          2    1    1    2  501    0  0.26074321407E+02  0.29325850360E+02 -0.18840310820E+02  0.43529680081E+02  0.00000000000E+00 0. -1.
          1    1    1    2  502    0  0.44346818872E+02  0.18359079104E+02  0.23524746785E+04  0.23529642600E+04  0.00000000000E+00 0. -1.
         22    1    3    3    0    0 -0.41505637617E+02 -0.19222180310E+02  0.12835673284E+03  0.13626320500E+03  0.00000000000E+00 0.  1.
         22    1    3    3    0    0 -0.28915502662E+02 -0.28462749154E+02 -0.24279461304E+02  0.47283470947E+02  0.00000000000E+00 0.  1.
</event>
<event>
 7    1  0.6681656E-006  0.5014328E+02  0.7818608E-02  0.1478085E+00
          2   -1    0    0  502    0  0.00000000000E+00  0.00000000000E+00  0.20746687894E+04  0.20746687894E+04  0.00000000000E+00 0. -1.
          1   -1    0    0  501    0 -0.00000000000E+00 -0.00000000000E+00 -0.10927096592E+03  0.10927096592E+03  0.00000000000E+00 0. -1.
         25    2    1    2    0    0 -0.13867819937E+02 -0.27423117901E+02  0.12268762094E+03  0.17784311084E+03  0.12502630090E+03 0.  0.
          2    1    1    2  501    0 -0.35528870176E+02  0.16856797917E+02 -0.76609082534E+02  0.86112738771E+02  0.00000000000E+00 0. -1.
          1    1    1    2  502    0  0.49396690113E+02  0.10566319984E+02  0.19193192850E+04  0.19199839057E+04  0.00000000000E+00 0. -1.
         22    1    3    3    0    0 -0.27914183065E+02  0.24072144528E+02 -0.70734945686E+01  0.37532706853E+02  0.00000000000E+00 0.  1.
         22    1    3    3    0    0  0.14046363128E+02 -0.51495262429E+02  0.12976111551E+03  0.14031040399E+03  0.00000000000E+00 0.  1.
</event>
<event>
 7    1  0.6681656E-006  0.9753354E+02  0.7818608E-02  0.1405557E+00
          2   -1    0    0  502    0  0.00000000000E+00  0.00000000000E+00  0.32782459365E+04  0.32782459365E+04  0.00000000000E+00 0. -1.
          1   -1    0    0  501    0 -0.00000000000E+00 -0.00000000000E+00 -0.23455728947E+02  0.23455728947E+02  0.00000000000E+00 0. -1.
         25    2    1    2    0    0  0.60604283293E+02 -0.79317714988E+02  0.74374852846E+03  0.76075710567E+03  0.12500128467E+03 0.  0.
          2    1    1    2  501    0  0.22037730016E+02  0.26836796290E+02  0.75468161462E+01  0.35536314009E+02  0.00000000000E+00 0. -1.
          1    1    1    2  502    0 -0.82642013309E+02  0.52480918698E+02  0.25034948629E+04  0.25054082457E+04  0.00000000000E+00 0. -1.
         22    1    3    3    0    0  0.83595646789E+02 -0.98929055729E+02  0.61832937571E+03  0.63174868982E+03  0.00000000000E+00 0.  1.
         22    1    3    3    0    0 -0.22991363496E+02  0.19611340741E+02  0.12541915276E+03  0.12900841585E+03  0.00000000000E+00 0.  1.
</event>
<event>
 7    1  0.6681656E-006  0.7063603E+02  0.7818608E-02  0.1449072E+00
          2   -1    0    0  502    0  0.00000000000E+00  0.00000000000E+00  0.94523554369E+03  0.94523554369E+03  0.00000000000E+00 0. -1.
          1   -1    0    0  501    0 -0.00000000000E+00 -0.00000000000E+00 -0.65159604569E+03  0.65159604569E+03  0.00000000000E+00 0. -1.
         25    2    1    2    0    0  0.32893726978E+02  0.59996568701E+02 -0.39365817376E+03  0.41865707077E+03  0.12500159841E+03 0.  0.
          2    1    1    2  501    0 -0.14895883683E+01 -0.74109296022E+02 -0.23951496440E+03  0.25072260528E+03  0.00000000000E+00 0. -1.
          1    1    1    2  502    0 -0.31404138610E+02  0.14112727321E+02  0.92681263616E+03  0.92745191333E+03  0.00000000000E+00 0. -1.
         22    1    3    3    0    0  0.64616531789E+02  0.77850903451E+02 -0.23459439565E+03  0.25548109484E+03  0.00000000000E+00 0. -1.
         22    1    3    3    0    0 -0.31722804811E+02 -0.17854334750E+02 -0.15906377811E+03  0.16317597593E+03  0.00000000000E+00 0. -1.
</event>
<event>
 7    1  0.6681656E-006  0.7013675E+02  0.7818608E-02  0.1385690E+00
          2   -1    0    0  502    0  0.00000000000E+00  0.00000000000E+00  0.18571636680E+04  0.18571636680E+04  0.00000000000E+00 0. -1.
          1   -1    0    0  501    0 -0.00000000000E+00 -0.00000000000E+00 -0.14552685355E+04  0.14552685355E+04  0.00000000000E+00 0. -1.
         25    2    1    2    0    0  0.62000372124E+02 -0.10795708355E+03  0.56634804853E+03  0.59318977473E+03  0.12500087495E+03 0.  0.
          2    1    1    2  501    0 -0.24424304746E+02  0.65664097195E+02 -0.14403694341E+04  0.14420722683E+04  0.00000000000E+00 0. -1.
          1    1    1    2  502    0 -0.37576067378E+02  0.42292986356E+02  0.12759165181E+04  0.12771701604E+04  0.00000000000E+00 0. -1.
         22    1    3    3    0    0  0.52077222154E+02 -0.11947933019E+03  0.56263873983E+03  0.57753761693E+03  0.00000000000E+00 0.  1.
         22    1    3    3    0    0  0.99231499702E+01  0.11522246637E+02  0.37093087039E+01  0.15652157805E+02  0.00000000000E+00 0.  1.
</event>
<event>
 7    1  0.6681656E-006  0.6116369E+02  0.7818608E-02  0.1518059E+00
          2   -1    0    0  502    0  0.00000000000E+00  0.00000000000E+00  0.38114302788E+03  0.38114302788E+03  0.00000000000E+00 0. -1.
          1   -1    0    0  501    0 -0.00000000000E+00 -0.00000000000E+00 -0.27453427738E+03  0.27453427738E+03  0.00000000000E+00 0. -1.
         25    2    1    2    0    0  0.63020271964E+01 -0.36513468177E+02  0.26576803195E+03  0.29602639914E+03  0.12500413304E+03 0.  0.
          2    1    1    2  501    0 -0.12474996832E+02  0.60199500478E+02 -0.25418976249E+03  0.26151871971E+03  0.00000000000E+00 0. -1.
          1    1    1    2  502    0  0.61729696359E+01 -0.23686032301E+02  0.95030481048E+02  0.98132186404E+02  0.00000000000E+00 0. -1.
         22    1    3    3    0    0  0.25123102518E+02 -0.67673200305E+02  0.24203530770E+03  0.25257062872E+03  0.00000000000E+00 0. -1.
         22    1    3    3    0    0 -0.18821075321E+02  0.31159732128E+02  0.23732724249E+02  0.43455770420E+02  0.00000000000E+00 0. -1.
</event>
<event>
 7    1  0.6681656E-006  0.2714074E+03  0.7818608E-02  0.1323217E+00
          2   -1    0    0  502    0  0.00000000000E+00  0.00000000000E+00  0.16149225422E+03  0.16149225422E+03  0.00000000000E+00 0. -1.
          1   -1    0    0  501    0 -0.00000000000E+00 -0.00000000000E+00 -0.22211634034E+04  0.22211634034E+04  0.00000000000E+00 0. -1.
         25    2    1    2    0    0  0.24464296228E+03 -0.80965965907E+02 -0.19426928766E+04  0.19636921775E+04  0.12500275542E+03 0.  0.
          2    1    1    2  501    0  0.19620619867E+02  0.15217380086E+02 -0.14324373978E+03  0.14537986920E+03  0.00000000000E+00 0. -1.
          1    1    1    2  502    0 -0.26426358215E+03  0.65748585821E+02  0.26265467160E+02  0.27358361090E+03  0.00000000000E+00 0. -1.
         22    1    3    3    0    0  0.17963295509E+03  0.13818540536E+01 -0.11153749465E+04  0.11297482815E+04  0.00000000000E+00 0.  1.
         22    1    3    3    0    0  0.65010007184E+02 -0.82347819960E+02 -0.82731793003E+03  0.83394389609E+03  0.00000000000E+00 0.  1.
</event>
<event>
 7    1  0.6681656E-006  0.9653590E+02  0.7818608E-02  0.1343318E+00
          2   -1    0    0  502    0  0.00000000000E+00  0.00000000000E+00  0.20168150963E+03  0.20168150963E+03  0.00000000000E+00 0. -1.
          1   -1    0    0  501    0 -0.00000000000E+00 -0.00000000000E+00 -0.19485514627E+04  0.19485514627E+04  0.00000000000E+00 0. -1.
         25    2    1    2    0    0 -0.23790113824E+02  0.41075332179E+02 -0.54921037108E+03  0.56525172486E+03  0.12499731328E+03 0.  0.
          2    1    1    2  501    0 -0.56796813394E+02  0.14207560027E+02 -0.13783304508E+04  0.13795733269E+04  0.00000000000E+00 0. -1.
          1    1    1    2  502    0  0.80586927218E+02 -0.55282892206E+02  0.18067086877E+03  0.20540792057E+03  0.00000000000E+00 0. -1.
         22    1    3    3    0    0  0.25671036081E+02  0.91711998414E+01 -0.22734661859E+02  0.35496166692E+02  0.00000000000E+00 0. -1.
         22    1    3    3    0    0 -0.49461149905E+02  0.31904132338E+02 -0.52647570922E+03  0.52975555817E+03  0.00000000000E+00 0. -1.
</event>
<event>
 7    1  0.6681656E-006  0.7816356E+02  0.7818608E-02  0.1449492E+00
          2   -1    0    0  502    0  0.00000000000E+00  0.00000000000E+00  0.16879824621E+04  0.16879824621E+04  0.00000000000E+00 0. -1.
          1   -1    0    0  501    0 -0.00000000000E+00 -0.00000000000E+00 -0.63784475374E+02  0.63784475374E+02  0.00000000000E+00 0. -1.
         25    2    1    2    0    0  0.63586087118E+02  0.20265730957E+02  0.97356391954E+03  0.98382202178E+03  0.12500069913E+03 0.  0.
          2    1    1    2  501    0 -0.78295186986E+02  0.70423663632E+01 -0.31804892217E+02  0.84801429222E+02  0.00000000000E+00 0. -1.
          1    1    1    2  502    0  0.14709099868E+02 -0.27308097320E+02  0.68243895938E+03  0.68314348645E+03  0.00000000000E+00 0. -1.
         22    1    3    3    0    0  0.37675651190E+02 -0.38770510198E+02  0.18804540498E+03  0.19566216162E+03  0.00000000000E+00 0.  1.
         22    1    3    3    0    0  0.25910435928E+02  0.59036241155E+02  0.78551851456E+03  0.78815986016E+03  0.00000000000E+00 0.  1.
</event>
<event>
 7    1  0.6681656E-006  0.7499008E+02  0.7818608E-02  0.1379488E+00
          2   -1    0    0  502    0  0.00000000000E+00  0.00000000000E+00  0.78550119895E+02  0.78550119895E+02  0.00000000000E+00 0. -1.
          1   -1    0    0  501    0 -0.00000000000E+00 -0.00000000000E+00 -0.39196845066E+03  0.39196845066E+03  0.00000000000E+00 0. -1.
         25    2    1    2    0    0 -0.16421807820E+02 -0.25420348428E+02 -0.68263673753E+02  0.14564112328E+03  0.12504214389E+03 0.  0.
          2    1    1    2  501    0  0.66768936685E+02  0.49121952906E+02 -0.25520559961E+03  0.26832993727E+03  0.00000000000E+00 0. -1.
          1    1    1    2  502    0 -0.50347128865E+02 -0.23701604478E+02  0.10050942607E+02  0.56547509999E+02  0.00000000000E+00 0. -1.
         22    1    3    3    0    0 -0.40849032878E+02 -0.48759938817E+02 -0.86404689104E+02  0.10729373430E+03  0.00000000000E+00 0.  1.
         22    1    3    3    0    0  0.24427225058E+02  0.23339590389E+02  0.18141015350E+02  0.38347388979E+02  0.00000000000E+00 0.  1.
</event>
<event>
 7    1  0.6681656E-006  0.1068417E+03  0.7818608E-02  0.1431668E+00
          2   -1    0    0  502    0  0.00000000000E+00  0.00000000000E+00  0.39995613256E+03  0.39995613256E+03  0.00000000000E+00 0. -1.
          1   -1    0    0  501    0 -0.00000000000E+00 -0.00000000000E+00 -0.76898927530E+03  0.76898927530E+03  0.00000000000E+00 0. -1.
         25    2    1    2    0    0 -0.52395135221E+02 -0.96902940536E+02 -0.19560879069E+03  0.25692973427E+03  0.12495863027E+03 0.  0.
          2    1    1    2  501    0  0.25122699255E+02 -0.63876512738E+01 -0.53467342141E+03  0.53530142879E+03  0.00000000000E+00 0. -1.
          1    1    1    2  502    0  0.27272435966E+02  0.10329059181E+03  0.36124906936E+03  0.37671424480E+03  0.00000000000E+00 0. -1.
         22    1    3    3    0    0 -0.34790690129E+02  0.13368883758E+02 -0.11023389893E+03  0.11636421978E+03  0.00000000000E+00 0. -1.
         22    1    3    3    0    0 -0.17604445092E+02 -0.11027182429E+03 -0.85374891758E+02  0.14056551449E+03  0.00000000000E+00 0. -1.
</event>
<event>
 7    1  0.6681656E-006  0.8587610E+02  0.7818608E-02  0.1321640E+00
          2   -1    0    0  502    0  0.00000000000E+00  0.00000000000E+00  0.24783153030E+04  0.24783153030E+04  0.00000000000E+00 0. -1.
          1   -1    0    0  501    0 -0.00000000000E+00 -0.00000000000E+00 -0.25534166072E+04  0.25534166072E+04  0.00000000000E+00 0. -1.
         25    2    1    2    0    0  0.10519786372E+03  0.80645108925E+02  0.31354016927E+03  0.36263384123E+03  0.12500256372E+03 0.  0.
          2    1    1    2  501    0 -0.20221590931E+02 -0.76972369333E+02 -0.25273981226E+04  0.25286508119E+04  0.00000000000E+00 0. -1.
          1    1    1    2  502    0 -0.84976272788E+02 -0.36727395915E+01  0.21387566491E+04  0.21404472571E+04  0.00000000000E+00 0. -1.
         22    1    3    3    0    0  0.77033012211E+02  0.34196412487E+01  0.24088643809E+03  0.25292697558E+03  0.00000000000E+00 0. -1.
         22    1    3    3    0    0  0.28164851509E+02  0.77225467676E+02  0.72653731178E+02  0.10970686566E+03  0.00000000000E+00 0. -1.
</event>
<event>
 7    1  0.6681656E-006  0.4823722E+02  0.7818608E-02  0.1536658E+00
          2   -1    0    0  502    0  0.00000000000E+00  0.00000000000E+00  0.26748787805E+02  0.26748787805E+02  0.00000000000E+00 0. -1.
          1   -1    0    0  501    0 -0.00000000000E+00 -0.00000000000E+00 -0.13188987097E+04  0.13188987097E+04  0.00000000000E+00 0. -1.
         25    2    1    2    0    0  0.53992273028E+02  0.27639204534E+02 -0.82907164199E+03  0.84063309904E+03  0.12500051390E+03 0.  0.
          2    1    1    2  501    0 -0.25222631410E+02  0.10807954887E+02 -0.45558863669E+03  0.45641428429E+03  0.00000000000E+00 0. -1.
          1    1    1    2  502    0 -0.28769641618E+02 -0.38447159421E+02 -0.74896432638E+01  0.48600114224E+02  0.00000000000E+00 0. -1.
         22    1    3    3    0    0  0.86430726022E+02  0.49053737464E+02 -0.63182369579E+03  0.63959184026E+03  0.00000000000E+00 0.  1.
         22    1    3    3    0    0 -0.32438452995E+02 -0.21414532930E+02 -0.19724794620E+03  0.20104125878E+03  0.00000000000E+00 0.  1.
</event>
<event>
 7    1  0.6681656E-006  0.5040691E+02  0.7818608E-02  0.1468929E+00
          2   -1    0    0  502    0  0.00000000000E+00  0.00000000000E+00  0.98613964791E+03  0.98613964791E+03  0.00000000000E+00 0. -1.
          1   -1    0    0  501    0 -0.00000000000E+00 -0.00000000000E+00 -0.61632340489E+02  0.61632340489E+02  0.00000000000E+00 0. -1.
         25    2    1    2    0    0  0.41288523568E+02 -0.52519161217E+02  0.61134493797E+03  0.62755902139E+03  0.12499875069E+03 0.  0.
          2    1    1    2  501    0 -0.49038240881E+02  0.11487291811E+02 -0.40169125125E+02  0.64422554709E+02  0.00000000000E+00 0. -1.
          1    1    1    2  502    0  0.77497173137E+01  0.41031869406E+02  0.35333149458E+03  0.35579041230E+03  0.00000000000E+00 0. -1.
         22    1    3    3    0    0  0.79660576588E+02 -0.38933389160E+01  0.33738451457E+03  0.34668325056E+03  0.00000000000E+00 0.  1.
         22    1    3    3    0    0 -0.38372053020E+02 -0.48625822301E+02  0.27396042340E+03  0.28087577083E+03  0.00000000000E+00 0.  1.
</event>
<event>
 7    1  0.6681656E-006  0.5251093E+02  0.7818608E-02  0.1444285E+00
          2   -1    0    0  502    0  0.00000000000E+00  0.00000000000E+00  0.20729489982E+04  0.20729489982E+04  0.00000000000E+00 0. -1.
          1   -1    0    0  501    0 -0.00000000000E+00 -0.00000000000E+00 -0.79766833019E+01  0.79766833019E+01  0.00000000000E+00 0. -1.
         25    2    1    2    0    0  0.22444227014E+02  0.15318955233E+02  0.13260343293E+04  0.13321899927E+04  0.12499888270E+03 0.  0.
          2    1    1    2  501    0 -0.55220239649E+02  0.19726781875E+02  0.22333135715E+03  0.23090109544E+03  0.00000000000E+00 0. -1.
          1    1    1    2  502    0  0.32776012636E+02 -0.35045737107E+02  0.51560662853E+03  0.51783459336E+03  0.00000000000E+00 0. -1.
         22    1    3    3    0    0  0.48684095968E+02  0.57718193282E+02  0.66370105840E+03  0.66798250423E+03  0.00000000000E+00 0.  1.
         22    1    3    3    0    0 -0.26239868954E+02 -0.42399238049E+02  0.66233327085E+03  0.66420748851E+03  0.00000000000E+00 0.  1.
</event>
<event>
 7    1  0.6681656E-006  0.4833332E+02  0.7818608E-02  0.1478991E+00
          2   -1    0    0  502    0  0.00000000000E+00  0.00000000000E+00  0.14206248508E+02  0.14206248508E+02  0.00000000000E+00 0. -1.
          1   -1    0    0  501    0 -0.00000000000E+00 -0.00000000000E+00 -0.15451490775E+04  0.15451490775E+04  0.00000000000E+00 0. -1.
         25    2    1    2    0    0 -0.10992389997E+02  0.98341521226E+00 -0.10736938583E+04  0.10810023480E+04  0.12500310152E+03 0.  0.
          2    1    1    2  501    0 -0.37963999023E+02 -0.14211357451E+02 -0.39928138265E+03  0.40133383914E+03  0.00000000000E+00 0. -1.
          1    1    1    2  502    0  0.48956389020E+02  0.13227942239E+02 -0.57967588025E+02  0.77019138811E+02  0.00000000000E+00 0. -1.
         22    1    3    3    0    0  0.38922527363E+02  0.86084141252E+00 -0.88382187891E+03  0.88467893488E+03  0.00000000000E+00 0.  1.
         22    1    3    3    0    0 -0.49914917359E+02  0.12257379975E+00 -0.18987197937E+03  0.19632341314E+03  0.00000000000E+00 0.  1.
</event>
<event>
 7    1  0.6681656E-006  0.1287555E+03  0.7818608E-02  0.1390317E+00
          2   -1    0    0  502    0  0.00000000000E+00  0.00000000000E+00  0.47227605557E+03  0.47227605557E+03  0.00000000000E+00 0. -1.
          1   -1    0    0  501    0 -0.00000000000E+00 -0.00000000000E+00 -0.10114149343E+04  0.10114149343E+04  0.00000000000E+00 0. -1.
         25    2    1    2    0    0 -0.95820292152E+02 -0.77250047345E+02 -0.41829184656E+03  0.45358882226E+03  0.12500261030E+03 0.  0.
          2    1    1    2  501    0  0.11860891143E+03  0.58219840653E+02 -0.56739113514E+03  0.58257216201E+03  0.00000000000E+00 0. -1.
          1    1    1    2  502    0 -0.22788619281E+02  0.19030206692E+02  0.44654410301E+03  0.44753000555E+03  0.00000000000E+00 0. -1.
         22    1    3    3    0    0 -0.30744735664E+02  0.10426252159E+02 -0.25560106779E+03  0.25765451939E+03  0.00000000000E+00 0.  1.
         22    1    3    3    0    0 -0.65075556488E+02 -0.87676299504E+02 -0.16269077877E+03  0.19593430288E+03  0.00000000000E+00 0.  1.
</event>
<event>
 7    1  0.6681656E-006  0.8755660E+02  0.7818608E-02  0.1466073E+00
          2   -1    0    0  502    0  0.00000000000E+00  0.00000000000E+00  0.16394264804E+03  0.16394264804E+03  0.00000000000E+00 0. -1.
          1   -1    0    0  501    0 -0.00000000000E+00 -0.00000000000E+00 -0.18430242456E+03  0.18430242456E+03  0.00000000000E+00 0. -1.
         25    2    1    2    0    0 -0.79178052829E+02 -0.59691435775E+01  0.75168804897E+02  0.16607406071E+03  0.12500179873E+03 0.  0.
          2    1    1    2  501    0  0.83621872680E+02  0.30102010719E+02 -0.11879146975E+03  0.14835822163E+03  0.00000000000E+00 0. -1.
          1    1    1    2  502    0 -0.44438198511E+01 -0.24132867141E+02  0.23262888342E+02  0.33812790262E+02  0.00000000000E+00 0. -1.
         22    1    3    3    0    0 -0.13986445211E+02 -0.21254593615E+02  0.93296711380E+02  0.96703954178E+02  0.00000000000E+00 0. -1.
         22    1    3    3    0    0 -0.65191607618E+02  0.15285450037E+02 -0.18127906483E+02  0.69370106531E+02  0.00000000000E+00 0. -1.
</event>
<event>
 7    1  0.6681656E-006  0.9941778E+02  0.7818608E-02  0.1415171E+00
          2   -1    0    0  502    0  0.00000000000E+00  0.00000000000E+00  0.99723376135E+03  0.99723376135E+03  0.00000000000E+00 0. -1.
          1   -1    0    0  501    0 -0.00000000000E+00 -0.00000000000E+00 -0.91128601644E+02  0.91128601644E+02  0.00000000000E+00 0. -1.
         25    2    1    2    0    0  0.76528612170E+02 -0.77612217594E+02  0.17781374931E+03  0.24315158155E+03  0.12499870945E+03 0.  0.
          2    1    1    2  501    0  0.10118754948E+02  0.29943013974E+02 -0.50820619892E+02  0.59847378336E+02  0.00000000000E+00 0. -1.
          1    1    1    2  502    0 -0.86647367117E+02  0.47669203619E+02  0.77911203030E+03  0.78536340312E+03  0.00000000000E+00 0. -1.
         22    1    3    3    0    0  0.10731878123E+03 -0.42699582759E+02  0.10150750683E+03  0.15376719128E+03  0.00000000000E+00 0. -1.
         22    1    3    3    0    0 -0.30790169059E+02 -0.34912634835E+02  0.76306242477E+02  0.89384390263E+02  0.00000000000E+00 0. -1.
</event>
<event>
 7    1  0.6681656E-006  0.7365272E+02  0.7818608E-02  0.1469393E+00
          2   -1    0    0  502    0  0.00000000000E+00  0.00000000000E+00  0.15716119171E+04  0.15716119171E+04  0.00000000000E+00 0. -1.
          1   -1    0    0  501    0 -0.00000000000E+00 -0.00000000000E+00 -0.96227772776E+02  0.96227772776E+02  0.00000000000E+00 0. -1.
         25    2    1    2    0    0 -0.77170859373E+02 -0.33804309104E+02  0.79643696977E+02  0.17049365764E+03  0.12500758367E+03 0.  0.
          2    1    1    2  501    0  0.53080509848E+02  0.49001518796E+02 -0.24906555641E+02  0.76413518987E+02  0.00000000000E+00 0. -1.
          1    1    1    2  502    0  0.24090349525E+02 -0.15197209691E+02  0.14206470030E+04  0.14209325133E+04  0.00000000000E+00 0. -1.
         22    1    3    3    0    0 -0.82211881863E+02 -0.32725841802E+02  0.10916637897E+03  0.14052427740E+03  0.00000000000E+00 0.  1.
         22    1    3    3    0    0  0.50410224894E+01 -0.10784673025E+01 -0.29522681996E+02  0.29969380235E+02  0.00000000000E+00 0.  1.
</event>
<event>
 7    1  0.6681656E-006  0.4451257E+02  0.7818608E-02  0.1512114E+00
          2   -1    0    0  502    0  0.00000000000E+00  0.00000000000E+00  0.16312900459E+03  0.16312900459E+03  0.00000000000E+00 0. -1.
          1   -1    0    0  501    0 -0.00000000000E+00 -0.00000000000E+00 -0.57844475122E+03  0.57844475122E+03  0.00000000000E+00 0. -1.
         25    2    1    2    0    0  0.23029017517E+01  0.10626775091E+02  0.35900892604E+02  0.13051278547E+03  0.12500592537E+03 0.  0.
          2    1    1    2  501    0  0.71352176430E+01 -0.44337258382E+02 -0.52630282698E+03  0.52821526814E+03  0.00000000000E+00 0. -1.
          1    1    1    2  502    0 -0.94381193948E+01  0.33710483291E+02  0.75086187747E+02  0.82845702193E+02  0.00000000000E+00 0. -1.
         22    1    3    3    0    0 -0.14040282229E+02  0.65531356042E+02  0.10450864909E+02  0.67828524436E+02  0.00000000000E+00 0.  1.
         22    1    3    3    0    0  0.16343183980E+02 -0.54904580952E+02  0.25450027695E+02  0.62684261037E+02  0.00000000000E+00 0.  1.
</event>
<event>
 7    1  0.6681656E-006  0.6130772E+02  0.7818608E-02  0.1437798E+00
          2   -1    0    0  502    0  0.00000000000E+00  0.00000000000E+00  0.14064602657E+04  0.14064602657E+04  0.00000000000E+00 0. -1.
          1   -1    0    0  501    0 -0.00000000000E+00 -0.00000000000E+00 -0.34432287997E+03  0.34432287997E+03  0.00000000000E+00 0. -1.
         25    2    1    2    0    0 -0.15947333568E+02 -0.31884299185E+02 -0.18442425496E+02  0.13128597223E+03  0.12499982986E+03 0.  0.
          2    1    1    2  501    0 -0.41849374303E+02  0.10461551047E+02 -0.26702324367E+03  0.27048516936E+03  0.00000000000E+00 0. -1.
          1    1    1    2  502    0  0.57796707871E+02  0.21422748138E+02  0.13476030549E+04  0.13490120041E+04  0.00000000000E+00 0. -1.
         22    1    3    3    0    0 -0.39506390054E+02 -0.18425161789E+01 -0.61890378864E+02  0.73447727786E+02  0.00000000000E+00 0. -1.
         22    1    3    3    0    0  0.23559056487E+02 -0.30041783006E+02  0.43447953367E+02  0.57838244446E+02  0.00000000000E+00 0. -1.
</event>
<event>
 7    1  0.6681656E-006  0.6601765E+02  0.7818608E-02  0.1495310E+00
          2   -1    0    0  502    0  0.00000000000E+00  0.00000000000E+00  0.23860058636E+04  0.23860058636E+04  0.00000000000E+00 0. -1.
          1   -1    0    0  501    0 -0.00000000000E+00 -0.00000000000E+00 -0.12567533110E+02  0.12567533110E+02  0.00000000000E+00 0. -1.
         25    2    1    2    0    0 -0.40882084617E+02 -0.41090902049E+02  0.73441359722E+03  0.74722604962E+03  0.12499452136E+03 0.  0.
          2    1    1    2  501    0  0.15643561705E+02 -0.21361422443E+02  0.26651548655E+02  0.37567757949E+02  0.00000000000E+00 0. -1.
          1    1    1    2  502    0  0.25238522912E+02  0.62452324491E+02  0.16123731846E+04  0.16137795891E+04  0.00000000000E+00 0. -1.
         22    1    3    3    0    0  0.26183666632E+02 -0.61906099551E+02  0.38555527200E+03  0.39137043492E+03  0.00000000000E+00 0.  1.
         22    1    3    3    0    0 -0.67065751249E+02  0.20815197502E+02  0.34885832522E+03  0.35585561470E+03  0.00000000000E+00 0.  1.
</event>
<event>
 7    1  0.6681656E-006  0.7206121E+02  0.7818608E-02  0.1398900E+00
          2   -1    0    0  502    0  0.00000000000E+00  0.00000000000E+00  0.17552689440E+03  0.17552689440E+03  0.00000000000E+00 0. -1.
          1   -1    0    0  501    0 -0.00000000000E+00 -0.00000000000E+00 -0.27836134329E+03  0.27836134329E+03  0.00000000000E+00 0. -1.
         25    2    1    2    0    0 -0.31355328988E+02 -0.38764069295E+02 -0.81822093233E+02  0.15749746878E+03  0.12499915203E+03 0.  0.
          2    1    1    2  501    0 -0.42489017575E+02  0.25464872025E+02 -0.14402227477E+03  0.15230296108E+03  0.00000000000E+00 0. -1.
          1    1    1    2  502    0  0.73844346563E+02  0.13299197271E+02  0.12300991911E+03  0.14408780784E+03  0.00000000000E+00 0. -1.
         22    1    3    3    0    0 -0.31847429006E+01  0.14910477920E+02 -0.94370567260E+02  0.95594293262E+02  0.00000000000E+00 0.  1.
         22    1    3    3    0    0 -0.28170586087E+02 -0.53674547216E+02  0.12548474027E+02  0.61903175522E+02  0.00000000000E+00 0.  1.
</event>
<event>
 7    1  0.6681656E-006  0.6574069E+02  0.7818608E-02  0.1473604E+00
          2   -1    0    0  502    0  0.00000000000E+00  0.00000000000E+00  0.20783510206E+04  0.20783510206E+04  0.00000000000E+00 0. -1.
          1   -1    0    0  501    0 -0.00000000000E+00 -0.00000000000E+00 -0.34909495983E+03  0.34909495983E+03  0.00000000000E+00 0. -1.
         25    2    1    2    0    0  0.71533027837E+02  0.37201796400E+02  0.62866897110E+02  0.16148727202E+03  0.12499977818E+03 0.  0.
          2    1    1    2  501    0 -0.62575720131E+01 -0.30326164790E+02 -0.29843569857E+03  0.30003783038E+03  0.00000000000E+00 0. -1.
          1    1    1    2  502    0 -0.65275455824E+02 -0.68756316097E+01  0.19648248622E+04  0.19659208780E+04  0.00000000000E+00 0. -1.
         22    1    3    3    0    0  0.74109822628E+02  0.48877985858E+02 -0.84471184586E+01  0.89177783790E+02  0.00000000000E+00 0.  1.
         22    1    3    3    0    0 -0.25767947914E+01 -0.11676189458E+02  0.71314015568E+02  0.72309488230E+02  0.00000000000E+00 0.  1.
</event>
<event>
 7    1  0.6681656E-006  0.1008955E+03  0.7818608E-02  0.1402938E+00
          2   -1    0    0  502    0  0.00000000000E+00  0.00000000000E+00  0.55592255544E+03  0.55592255544E+03  0.00000000000E+00 0. -1.
          1   -1    0    0  501    0 -0.00000000000E+00 -0.00000000000E+00 -0.11046951728E+04  0.11046951728E+04  0.00000000000E+00 0. -1.
         25    2    1    2    0    0 -0.78903627712E+02 -0.67835427064E+02 -0.32441147027E+02  0.16584940636E+03  0.12500467967E+03 0.  0.
          2    1    1    2  501    0 -0.15070335488E+02  0.30775768213E+02 -0.10000385902E+04  0.10006255268E+04  0.00000000000E+00 0. -1.
          1    1    1    2  502    0  0.93973963200E+02  0.37059658851E+02  0.48370711991E+03  0.49414279507E+03  0.00000000000E+00 0. -1.
         22    1    3    3    0    0 -0.65012183143E+02 -0.10134294177E+03 -0.43353303508E+02  0.12797064010E+03  0.00000000000E+00 0.  1.
         22    1    3    3    0    0 -0.13891444569E+02  0.33507514708E+02  0.10912156481E+02  0.37878766257E+02  0.00000000000E+00 0.  1.
</event>
<event>
 7    1  0.6681656E-006  0.1676806E+03  0.7818608E-02  0.1217255E+00
          2   -1    0    0  502    0  0.00000000000E+00  0.00000000000E+00  0.21497085807E+04  0.21497085807E+04  0.00000000000E+00 0. -1.
          1   -1    0    0  501    0 -0.00000000000E+00 -0.00000000000E+00 -0.13234655425E+04  0.13234655425E+04  0.00000000000E+00 0. -1.
         25    2    1    2    0    0  0.13999897393E+03 -0.11087135426E+03  0.74807317780E+03  0.77918550825E+03  0.12499762809E+03 0.  0.
          2    1    1    2  501    0 -0.16784893049E+03  0.22522465065E+01 -0.13002371226E+04  0.13110281885E+04  0.00000000000E+00 0. -1.
          1    1    1    2  502    0  0.27849956558E+02  0.10861910776E+03  0.13784069829E+04  0.13829604265E+04  0.00000000000E+00 0. -1.
         22    1    3    3    0    0 -0.16331009136E+02 -0.42304234223E+02  0.20315724663E+03  0.20815671248E+03  0.00000000000E+00 0. -1.
         22    1    3    3    0    0  0.15632998307E+03 -0.68567120041E+02  0.54491593117E+03  0.57102879577E+03  0.00000000000E+00 0. -1.
</event>
<event>
 7    1  0.6681656E-006  0.1033025E+03  0.7818608E-02  0.1305386E+00
          2   -1    0    0  502    0  0.00000000000E+00  0.00000000000E+00  0.11021556938E+03  0.11021556938E+03  0.00000000000E+00 0. -1.
          1   -1    0    0  501    0 -0.00000000000E+00 -0.00000000000E+00 -0.49504670624E+03  0.49504670624E+03  0.00000000000E+00 0. -1.
         25    2    1    2    0    0 -0.70217459458E+02  0.21825691301E+02 -0.59048723637E+02  0.15658424733E+03  0.12500008935E+03 0.  0.
          2    1    1    2  501    0  0.10075582885E+03  0.48436049357E+02 -0.35072296554E+03  0.36810920456E+03  0.00000000000E+00 0. -1.
          1    1    1    2  502    0 -0.30538369390E+02 -0.70261740658E+02  0.24940552318E+02  0.80568823718E+02  0.00000000000E+00 0. -1.
         22    1    3    3    0    0  0.23914691484E+02  0.41762634584E+02 -0.26913979887E+02  0.55139753622E+02  0.00000000000E+00 0.  1.
         22    1    3    3    0    0 -0.94132150943E+02 -0.19936943283E+02 -0.32134743750E+02  0.10144449371E+03  0.00000000000E+00 0.  1.
</event>
<event>
 7    1  0.6681656E-006  0.4070810E+02  0.7818608E-02  0.1564936E+00
          2   -1    0    0  502    0  0.00000000000E+00  0.00000000000E+00  0.13202521514E+03  0.13202521514E+03  0.00000000000E+00 0. -1.
          1   -1    0    0  501    0 -0.00000000000E+00 -0.00000000000E+00 -0.52447229728E+03  0.52447229728E+03  0.00000000000E+00 0. -1.
         25    2    1    2    0    0 -0.62855735462E+02 -0.23196430489E+02 -0.10040823672E+03  0.17376629293E+03  0.12499597070E+03 0.  0.
          2    1    1    2  501    0  0.25738541165E+02  0.85462283512E+01 -0.38270896489E+03  0.38366868823E+03  0.00000000000E+00 0. -1.
          1    1    1    2  502    0  0.37117194297E+02  0.14650202137E+02  0.90670119473E+02  0.99062531264E+02  0.00000000000E+00 0. -1.
         22    1    3    3    0    0  0.15955774885E+02 -0.13574376266E+02  0.20375674453E+02  0.29223595819E+02  0.00000000000E+00 0. -1.
         22    1    3    3    0    0 -0.78811510348E+02 -0.96220542226E+01 -0.12078391117E+03  0.14454269711E+03  0.00000000000E+00 0. -1.
</event>
<event>
 7    1  0.6681656E-006  0.4572041E+02  0.7818608E-02  0.1590611E+00
          2   -1    0    0  502    0  0.00000000000E+00  0.00000000000E+00  0.20800301839E+03  0.20800301839E+03  0.00000000000E+00 0. -1.
          1   -1    0    0  501    0 -0.00000000000E+00 -0.00000000000E+00 -0.14034063513E+03  0.14034063513E+03  0.00000000000E+00 0. -1.
         25    2    1    2    0    0 -0.29657080966E+02  0.38389530592E+01  0.58429800252E+02  0.14118231266E+03  0.12499649531E+03 0.  0.
          2    1    1    2  501    0 -0.14556227794E+02  0.14572924448E+02 -0.92475142041E+02  0.94741257064E+02  0.00000000000E+00 0. -1.
          1    1    1    2  502    0  0.44213308760E+02 -0.18411877507E+02  0.10170772506E+03  0.11242008380E+03  0.00000000000E+00 0. -1.
         22    1    3    3    0    0  0.20350296714E+02  0.50718895626E+02  0.61882200267E+01  0.54998500134E+02  0.00000000000E+00 0. -1.
         22    1    3    3    0    0 -0.50007377681E+02 -0.46879942566E+02  0.52241580225E+02  0.86183812528E+02  0.00000000000E+00 0. -1.
</event>
<event>
 7    1  0.6681656E-006  0.1164093E+03  0.7818608E-02  0.1328979E+00
          2   -1    0    0  502    0  0.00000000000E+00  0.00000000000E+00  0.35531605025E+03  0.35531605025E+03  0.00000000000E+00 0. -1.
          1   -1    0    0  501    0 -0.00000000000E+00 -0.00000000000E+00 -0.29146939964E+03  0.29146939964E+03  0.00000000000E+00 0. -1.
         25    2    1    2    0    0  0.64721116827E+02 -0.25896417818E+02 -0.19308753626E+02  0.14439113514E+03  0.12496609348E+03 0.  0.
          2    1    1    2  501    0  0.54208189583E+02 -0.93797786076E+01 -0.19244949656E+03  0.20015822938E+03  0.00000000000E+00 0. -1.
          1    1    1    2  502    0 -0.11892930641E+03  0.35276196426E+02  0.27560490079E+03  0.30223608536E+03  0.00000000000E+00 0. -1.
         22    1    3    3    0    0  0.66125655195E+02 -0.22762902206E+01  0.42207614185E+02  0.78480994307E+02  0.00000000000E+00 0.  1.
         22    1    3    3    0    0 -0.14045383675E+01 -0.23620127598E+02 -0.61516367812E+02  0.65910140832E+02  0.00000000000E+00 0.  1.
</event>
<event>
 7    1  0.6681656E-006  0.1941433E+03  0.7818608E-02  0.1242997E+00
          2   -1    0    0  502    0  0.00000000000E+00  0.00000000000E+00  0.21738598789E+03  0.21738598789E+03  0.00000000000E+00 0. -1.
          1   -1    0    0  501    0 -0.00000000000E+00 -0.00000000000E+00 -0.11107728167E+04  0.11107728167E+04  0.00000000000E+00 0. -1.
         25    2    1    2    0    0 -0.13867213279E+03  0.13656924882E+03 -0.26822279573E+03  0.35419092970E+03  0.12500650539E+03 0.  0.
          2    1    1    2  501    0 -0.42378764461E+02 -0.60964702690E+02 -0.74193837355E+03  0.74564415427E+03  0.00000000000E+00 0. -1.
          1    1    1    2  502    0  0.18105089725E+03 -0.75604546132E+02  0.11677434049E+03  0.22832372060E+03  0.00000000000E+00 0. -1.
         22    1    3    3    0    0 -0.11900441522E+03  0.15266430880E+03 -0.18721990267E+03  0.26929488294E+03  0.00000000000E+00 0.  1.
         22    1    3    3    0    0 -0.19667717568E+02 -0.16095059973E+02 -0.81002893065E+02  0.84896046756E+02  0.00000000000E+00 0.  1.
</event>
<event>
 7    1  0.6681656E-006  0.8804872E+02  0.7818608E-02  0.1319611E+00
          2   -1    0    0  502    0  0.00000000000E+00  0.00000000000E+00  0.20472715371E+04  0.20472715371E+04  0.00000000000E+00 0. -1.
          1   -1    0    0  501    0 -0.00000000000E+00 -0.00000000000E+00 -0.13083648849E+03  0.13083648849E+03  0.00000000000E+00 0. -1.
         25    2    1    2    0    0  0.24221202439E+02  0.75243922362E+02  0.98645650333E+03  0.99748096953E+03  0.12499414833E+03 0.  0.
          2    1    1    2  501    0  0.70032868705E+02 -0.36641222242E+02 -0.11012229230E+03  0.13555110154E+03  0.00000000000E+00 0. -1.
          1    1    1    2  502    0 -0.94254071144E+02 -0.38602700120E+02  0.10401008375E+04  0.10450759545E+04  0.00000000000E+00 0. -1.
         22    1    3    3    0    0  0.66899283735E+02  0.49490502488E+02  0.38129435416E+03  0.39026940504E+03  0.00000000000E+00 0.  1.
         22    1    3    3    0    0 -0.42678081295E+02  0.25753419875E+02  0.60516214917E+03  0.60721156448E+03  0.00000000000E+00 0.  1.
</event>
<event>
 7    1  0.6681656E-006  0.8283991E+02  0.7818608E-02  0.1327475E+00
          2   -1    0    0  502    0  0.00000000000E+00  0.00000000000E+00  0.33418495008E+03  0.33418495008E+03  0.00000000000E+00 0. -1.
          1   -1    0    0  501    0 -0.00000000000E+00 -0.00000000000E+00 -0.17120274312E+04  0.17120274312E+04  0.00000000000E+00 0. -1.
         25    2    1    2    0    0  0.43666869516E+01 -0.16890802797E+02 -0.11978655110E+02  0.12677789632E+03  0.12499911857E+03 0.  0.
          2    1    1    2  501    0 -0.79251029430E+02 -0.24118969924E+02 -0.16349914357E+04  0.16370887103E+04  0.00000000000E+00 0. -1.
          1    1    1    2  502    0  0.74884342478E+02  0.41009772722E+02  0.26912760969E+03  0.28234577472E+03  0.00000000000E+00 0. -1.
         22    1    3    3    0    0  0.64062832918E+01 -0.46687845152E+02  0.43267359137E+02  0.63975461837E+02  0.00000000000E+00 0.  1.
         22    1    3    3    0    0 -0.20395963402E+01  0.29797042355E+02 -0.55246014248E+02  0.62802434479E+02  0.00000000000E+00 0.  1.
</event>
<event>
 7    1  0.6681656E-006  0.7547248E+02  0.7818608E-02  0.1441648E+00
          2   -1    0    0  502    0  0.00000000000E+00  0.00000000000E+00  0.94508015574E+03  0.94508015574E+03  0.00000000000E+00 0. -1.
          1   -1    0    0  501    0 -0.00000000000E+00 -0.00000000000E+00 -0.95143226887E+03  0.95143226887E+03  0.00000000000E+00 0. -1.
         25    2    1    2    0    0 -0.10625957807E+03  0.12686431841E+02  0.15142575401E+03  0.22361840199E+03  0.12499354883E+03 0.  0.
          2    1    1    2  501    0  0.32374353033E+02 -0.10540704671E+02 -0.91321491771E+03  0.91384938098E+03  0.00000000000E+00 0. -1.
          1    1    1    2  502    0  0.73885225034E+02 -0.21457271700E+01  0.75543705058E+03  0.75904464164E+03  0.00000000000E+00 0. -1.
         22    1    3    3    0    0 -0.75659747725E+02  0.50194704921E+02  0.14981941276E+03  0.17518493733E+03  0.00000000000E+00 0.  1.
         22    1    3    3    0    0 -0.30599830343E+02 -0.37508273079E+02  0.16063412420E+01  0.48433464656E+02  0.00000000000E+00 0.  1.
</event>
<event>
 7    1  0.6681656E-006  0.3505546E+02  0.7818608E-02  0.1619396E+00
          2   -1    0    0  502    0  0.00000000000E+00  0.00000000000E+00  0.25027998559E+03  0.25027998559E+03  0.00000000000E+00 0. -1.
          1   -1    0    0  501    0 -0.00000000000E+00 -0.00000000000E+00 -0.49364318560E+03  0.49364318560E+03  0.00000000000E+00 0. -1.
         25    2    1    2    0    0 -0.34274273558E+00 -0.46149445844E+02 -0.11135004989E+03  0.17365007020E+03  0.12500249776E+03 0.  0.
          2    1    1    2  501    0 -0.16500147901E+02  0.15468386996E+02 -0.34937756156E+03  0.35010884936E+03  0.00000000000E+00 0. -1.
          1    1    1    2  502    0  0.16842890636E+02  0.30681058847E+02  0.21736441144E+03  0.22016425163E+03  0.00000000000E+00 0. -1.
         22    1    3    3    0    0 -0.38445009910E+02 -0.44762394510E+02 -0.33312821655E+01  0.59099815483E+02  0.00000000000E+00 0. -1.
         22    1    3    3    0    0  0.38102267174E+02 -0.13870513334E+01 -0.10801876773E+03  0.11455025472E+03  0.00000000000E+00 0. -1.
</event>
<event>
 7    1  0.6681656E-006  0.3146406E+02  0.7818608E-02  0.1600128E+00
          2   -1    0    0  502    0  0.00000000000E+00  0.00000000000E+00  0.67576581556E+02  0.67576581556E+02  0.00000000000E+00 0. -1.
          1   -1    0    0  501    0 -0.00000000000E+00 -0.00000000000E+00 -0.20765510763E+04  0.20765510763E+04  0.00000000000E+00 0. -1.
         25    2    1    2    0    0  0.57634227621E+02  0.10262672051E+02 -0.43749925684E+02  0.14479634807E+03  0.12499959914E+03 0.  0.
          2    1    1    2  501    0 -0.31398620894E+02  0.22668873948E+00 -0.19703629140E+04  0.19706130867E+04  0.00000000000E+00 0. -1.
          1    1    1    2  502    0 -0.26235606727E+02 -0.10489360790E+02  0.51383448762E+01  0.28718223103E+02  0.00000000000E+00 0. -1.
         22    1    3    3    0    0  0.74254345339E+02  0.18396092202E+02  0.19458575898E+02  0.78935164446E+02  0.00000000000E+00 0.  1.
         22    1    3    3    0    0 -0.16620117718E+02 -0.81334201513E+01 -0.63208501582E+02  0.65861183626E+02  0.00000000000E+00 0.  1.
</event>
<event>
 7    1  0.6681656E-006  0.2308473E+03  0.7818608E-02  0.1256881E+00
          2   -1    0    0  502    0  0.00000000000E+00  0.00000000000E+00  0.19581456007E+04  0.19581456007E+04  0.00000000000E+00 0. -1.
          1   -1    0    0  501    0 -0.00000000000E+00 -0.00000000000E+00 -0.26889731527E+03  0.26889731527E+03  0.00000000000E+00 0. -1.
         25    2    1    2    0    0  0.20281809093E+03 -0.12770777020E+03  0.17272945195E+03  0.32078472872E+03  0.12499170386E+03 0.  0.
          2    1    1    2  501    0  0.14990315693E+02  0.52246573878E+02 -0.18314191723E+03  0.19103762952E+03  0.00000000000E+00 0. -1.
          1    1    1    2  502    0 -0.21780840663E+03  0.75461196320E+02  0.16996607507E+04  0.17152205577E+04  0.00000000000E+00 0. -1.
         22    1    3    3    0    0  0.15741856287E+03 -0.14682745406E+03  0.16431366559E+03  0.27080968576E+03  0.00000000000E+00 0.  1.
         22    1    3    3    0    0  0.45399528065E+02  0.19119683858E+02  0.84157863540E+01  0.49975042965E+02  0.00000000000E+00 0.  1.
</event>
<event>
 7    1  0.6681656E-006  0.4428617E+02  0.7818608E-02  0.1489804E+00
          2   -1    0    0  502    0  0.00000000000E+00  0.00000000000E+00  0.25138159693E+03  0.25138159693E+03  0.00000000000E+00 0. -1.
          1   -1    0    0  501    0 -0.00000000000E+00 -0.00000000000E+00 -0.18774675414E+04  0.18774675414E+04  0.00000000000E+00 0. -1.
         25    2    1    2    0    0  0.27822261981E+02 -0.22874262374E+02 -0.16327265527E+04  0.16379004818E+04  0.12499872901E+03 0.  0.
          2    1    1    2  501    0 -0.30889816005E+00  0.57576997724E+02 -0.23670443240E+03  0.24360663867E+03  0.00000000000E+00 0. -1.
          1    1    1    2  502    0 -0.27513363821E+02 -0.34702735349E+02  0.24334504060E+03  0.24734201789E+03  0.00000000000E+00 0. -1.
         22    1    3    3    0    0  0.41398777739E+02  0.10220184392E+02 -0.18982083205E+03  0.19455143086E+03  0.00000000000E+00 0. -1.
         22    1    3    3    0    0 -0.13576515757E+02 -0.33094446766E+02 -0.14429057207E+04  0.14433490510E+04  0.00000000000E+00 0. -1.
</event>
<event>
 7    1  0.6681656E-006  0.1483668E+03  0.7818608E-02  0.1290593E+00
          2   -1    0    0  502    0  0.00000000000E+00  0.00000000000E+00  0.19223398065E+03  0.19223398065E+03  0.00000000000E+00 0. -1.
          1   -1    0    0  501    0 -0.00000000000E+00 -0.00000000000E+00 -0.53761466292E+03  0.53761466292E+03  0.00000000000E+00 0. -1.
         25    2    1    2    0    0  0.87557109267E+02 -0.66973583886E+02 -0.12307534966E+03  0.20718112008E+03  0.12499906600E+03 0.  0.
          2    1    1    2  501    0  0.60563253325E+02  0.85333028903E+01 -0.32662763074E+03  0.33230458028E+03  0.00000000000E+00 0. -1.
          1    1    1    2  502    0 -0.14812036259E+03  0.58440280995E+02  0.10432229813E+03  0.19036294320E+03  0.00000000000E+00 0. -1.
         22    1    3    3    0    0  0.76800136573E+02 -0.59398784740E+02 -0.14915490750E+03  0.17797096122E+03  0.00000000000E+00 0.  1.
         22    1    3    3    0    0  0.10756972695E+02 -0.75747991459E+01  0.26079557838E+02  0.29210158861E+02  0.00000000000E+00 0.  1.
</event>
<event>
 7    1  0.6681656E-006  0.2249995E+03  0.7818608E-02  0.1149975E+00
          2   -1    0    0  502    0  0.00000000000E+00  0.00000000000E+00  0.47579167496E+03  0.47579167496E+03  0.00000000000E+00 0. -1.
          1   -1    0    0  501    0 -0.00000000000E+00 -0.00000000000E+00 -0.29515119861E+03  0.29515119861E+03  0.00000000000E+00 0. -1.
         25    2    1    2    0    0 -0.15609011144E+03 -0.29378220231E+02  0.75620940588E+02  0.21580020487E+03  0.12499599614E+03 0.  0.
          2    1    1    2  501    0  0.93471058655E+01  0.22480529308E+03 -0.90148803733E+02  0.24238728308E+03  0.00000000000E+00 0. -1.
          1    1    1    2  502    0  0.14674300558E+03 -0.19542707285E+03  0.19516833950E+03  0.31275538562E+03  0.00000000000E+00 0. -1.
         22    1    3    3    0    0 -0.17733468123E+03 -0.33469230805E+02  0.68372735986E+02  0.19298344386E+03  0.00000000000E+00 0. -1.
         22    1    3    3    0    0  0.21244569787E+02  0.40910105746E+01  0.72482046018E+01  0.22816761009E+02  0.00000000000E+00 0. -1.
</event>
<event>
 7    1  0.6681656E-006  0.2049545E+03  0.7818608E-02  0.1274733E+00
          2   -1    0    0  502    0  0.00000000000E+00  0.00000000000E+00  0.27998298129E+04  0.27998298129E+04  0.00000000000E+00 0. -1.
          1   -1    0    0  501    0 -0.00000000000E+00 -0.00000000000E+00 -0.13700119381E+04  0.13700119381E+04  0.00000000000E+00 0. -1.
         25    2    1    2    0    0  0.14716518527E+03  0.20246692789E+03  0.62495290786E+03  0.68472577312E+03  0.12503119087E+03 0.  0.
          2    1    1    2  501    0 -0.13657600703E+03 -0.15211392860E+03 -0.13320177832E+04  0.13476138274E+04  0.00000000000E+00 0. -1.
          1    1    1    2  502    0 -0.10589178246E+02 -0.50352999285E+02  0.21368827502E+04  0.21375021505E+04  0.00000000000E+00 0. -1.
         22    1    3    3    0    0  0.15453538618E+03  0.16074225215E+03  0.42084586701E+03  0.47626725794E+03  0.00000000000E+00 0. -1.
         22    1    3    3    0    0 -0.73702009032E+01  0.41724675737E+02  0.20410704085E+03  0.20845851518E+03  0.00000000000E+00 0. -1.
</event>
<event>
 7    1  0.6681656E-006  0.3967555E+02  0.7818608E-02  0.1535323E+00
          2   -1    0    0  502    0  0.00000000000E+00  0.00000000000E+00  0.22075654471E+04  0.22075654471E+04  0.00000000000E+00 0. -1.
          1   -1    0    0  501    0 -0.00000000000E+00 -0.00000000000E+00 -0.52671337889E+03  0.52671337889E+03  0.00000000000E+00 0. -1.
         25    2    1    2    0    0 -0.14917697227E+02  0.75078831112E+01  0.30346084567E+02  0.12972030473E+03  0.12501026603E+03 0.  0.
          2    1    1    2  501    0  0.10361528455E+02  0.32020183299E+02 -0.47624634376E+03  0.47743400942E+03  0.00000000000E+00 0. -1.
          1    1    1    2  502    0  0.45561687724E+01 -0.39528066410E+02  0.21267523274E+04  0.21271245118E+04  0.00000000000E+00 0. -1.
         22    1    3    3    0    0 -0.35172062341E+02 -0.50043979116E+01  0.72822963025E+02  0.81026550658E+02  0.00000000000E+00 0.  1.
         22    1    3    3    0    0  0.20254365114E+02  0.12512281023E+02 -0.42476878458E+02  0.48693754077E+02  0.00000000000E+00 0.  1.
</event>
<event>
 7    1  0.6681656E-006  0.4029858E+02  0.7818608E-02  0.1582246E+00
          2   -1    0    0  502    0  0.00000000000E+00  0.00000000000E+00  0.10755586547E+04  0.10755586547E+04  0.00000000000E+00 0. -1.
          1   -1    0    0  501    0 -0.00000000000E+00 -0.00000000000E+00 -0.34372241026E+03  0.34372241026E+03  0.00000000000E+00 0. -1.
         25    2    1    2    0    0 -0.30205737659E+02  0.17999174165E+02  0.47812631737E+03  0.49544571875E+03  0.12500131203E+03 0.  0.
          2    1    1    2  501    0  0.14240405549E+02  0.20055216142E+02 -0.33388664125E+03  0.33479141275E+03  0.00000000000E+00 0. -1.
          1    1    1    2  502    0  0.15965332110E+02 -0.38054390307E+02  0.58759656828E+03  0.58904393343E+03  0.00000000000E+00 0. -1.
         22    1    3    3    0    0  0.44977038310E+02 -0.15460619057E+02  0.17556481379E+03  0.18189273915E+03  0.00000000000E+00 0.  1.
         22    1    3    3    0    0 -0.75182775969E+02  0.33459793223E+02  0.30256150358E+03  0.31355297959E+03  0.00000000000E+00 0.  1.
</event>
<event>
 7    1  0.6681656E-006  0.1472879E+03  0.7818608E-02  0.1264647E+00
          2   -1    0    0  502    0  0.00000000000E+00  0.00000000000E+00  0.17447380624E+04  0.17447380624E+04  0.00000000000E+00 0. -1.
          1   -1    0    0  501    0 -0.00000000000E+00 -0.00000000000E+00 -0.79430921421E+03  0.79430921421E+03  0.00000000000E+00 0. -1.
         25    2    1    2    0    0 -0.75812735308E+02  0.13036188513E+03  0.65384075799E+03  0.68254931354E+03  0.12499614667E+03 0.  0.
          2    1    1    2  501    0 -0.56087826771E+02 -0.55547191584E+02 -0.77259379994E+03  0.77661606635E+03  0.00000000000E+00 0. -1.
          1    1    1    2  502    0  0.13190056208E+03 -0.74814693549E+02  0.10691818901E+04  0.10798818967E+04  0.00000000000E+00 0. -1.
         22    1    3    3    0    0  0.17417002002E+02 -0.15052021332E+02  0.84835109918E+02  0.87902850805E+02  0.00000000000E+00 0.  1.
         22    1    3    3    0    0 -0.93229737309E+02  0.14541390646E+03  0.56900564807E+03  0.59464646274E+03  0.00000000000E+00 0.  1.
</event>
<event>
 7    1  0.6681656E-006  0.1091521E+03  0.7818608E-02  0.1449331E+00
          2   -1    0    0  502    0  0.00000000000E+00  0.00000000000E+00  0.10052325773E+04  0.10052325773E+04  0.00000000000E+00 0. -1.
          1   -1    0    0  501    0 -0.00000000000E+00 -0.00000000000E+00 -0.13029050813E+03  0.13029050813E+03  0.00000000000E+00 0. -1.
         25    2    1    2    0    0 -0.12245303380E+03  0.87369383959E+01  0.14644927994E+03  0.22835674134E+03  0.12501331986E+03 0.  0.
          2    1    1    2  501    0  0.10467819856E+03 -0.22100414101E+02 -0.57092569162E+02  0.12126629792E+03  0.00000000000E+00 0. -1.
          1    1    1    2  502    0  0.17774835242E+02  0.13363475705E+02  0.78558535843E+03  0.78590004621E+03  0.00000000000E+00 0. -1.
         22    1    3    3    0    0 -0.22670360743E+02  0.74210197516E+01  0.12373445751E+03  0.12601282778E+03  0.00000000000E+00 0. -1.
         22    1    3    3    0    0 -0.99782673060E+02  0.13159186443E+01  0.22714822428E+02  0.10234391356E+03  0.00000000000E+00 0. -1.
</event>
<event>
 7    1  0.6681656E-006  0.8589913E+02  0.7818608E-02  0.1494846E+00
          2   -1    0    0  502    0  0.00000000000E+00  0.00000000000E+00  0.97140853392E+03  0.97140853392E+03  0.00000000000E+00 0. -1.
          1   -1    0    0  501    0 -0.00000000000E+00 -0.00000000000E+00 -0.32230684995E+03  0.32230684995E+03  0.00000000000E+00 0. -1.
         25    2    1    2    0    0  0.67834886046E+02 -0.23932309528E+02  0.32596108962E+03  0.35645368302E+03  0.12503707047E+03 0.  0.
          2    1    1    2  501    0  0.10969096836E+02 -0.17216810552E+02 -0.30358081103E+03  0.30426641036E+03  0.00000000000E+00 0. -1.
          1    1    1    2  502    0 -0.78803982882E+02  0.41149120080E+02  0.62672140538E+03  0.63299529048E+03  0.00000000000E+00 0. -1.
         22    1    3    3    0    0 -0.29071247306E+02 -0.27764376954E+02  0.51305647895E+02  0.65178735440E+02  0.00000000000E+00 0.  1.
         22    1    3    3    0    0  0.96906133352E+02  0.38320674261E+01  0.27465544172E+03  0.29127494759E+03  0.00000000000E+00 0.  1.
</event>
<event>
 7    1  0.6681656E-006  0.4985669E+02  0.7818608E-02  0.1485643E+00
          2   -1    0    0  502    0  0.00000000000E+00  0.00000000000E+00  0.10012215425E+04  0.10012215425E+04  0.00000000000E+00 0. -1.
          1   -1    0    0  501    0 -0.00000000000E+00 -0.00000000000E+00 -0.41564246671E+03  0.41564246671E+03  0.00000000000E+00 0. -1.
         25    2    1    2    0    0 -0.79734853252E+02  0.21904109246E+02  0.51811964282E+02  0.15858874873E+03  0.12501389825E+03 0.  0.
          2    1    1    2  501    0  0.37328782819E+02  0.35805444820E+01 -0.36059805807E+03  0.36254271170E+03  0.00000000000E+00 0. -1.
          1    1    1    2  502    0  0.42406070433E+02 -0.25484653728E+02  0.89436516955E+03  0.89573254875E+03  0.00000000000E+00 0. -1.
         22    1    3    3    0    0 -0.94987102483E+02 -0.17452233755E+02  0.66991284537E+01  0.96809133987E+02  0.00000000000E+00 0. -1.
         22    1    3    3    0    0  0.15252249231E+02  0.39356343001E+02  0.45112835828E+02  0.61779614741E+02  0.00000000000E+00 0. -1.
</event>
<event>
 7    1  0.6681656E-006  0.1910167E+03  0.7818608E-02  0.1242061E+00
          2   -1    0    0  502    0  0.00000000000E+00  0.00000000000E+00  0.20472099184E+04  0.20472099184E+04  0.00000000000E+00 0. -1.
          1   -1    0    0  501    0 -0.00000000000E+00 -0.00000000000E+00 -0.10820772480E+03  0.10820772480E+03  0.00000000000E+00 0. -1.
         25    2    1    2    0    0  0.52307909679E+01  0.13588368718E+03  0.10571425280E+03  0.21281862124E+03  0.12499809873E+03 0.  0.
          2    1    1    2  501    0 -0.52477619377E+02  0.55222545515E+02 -0.20098580230E+02  0.78786946862E+02  0.00000000000E+00 0. -1.
          1    1    1    2  502    0  0.47246828409E+02 -0.19110623270E+03  0.18533865211E+04  0.18638120751E+04  0.00000000000E+00 0. -1.
         22    1    3    3    0    0  0.16342325363E+02  0.14930276243E+03  0.56260806356E+02  0.16038598692E+03  0.00000000000E+00 0. -1.
         22    1    3    3    0    0 -0.11111534395E+02 -0.13419075246E+02  0.49453446446E+02  0.52432634326E+02  0.00000000000E+00 0. -1.
</event>
<event>
 7    1  0.6681656E-006  0.3106026E+03  0.7818608E-02  0.1211642E+00
          2   -1    0    0  502    0  0.00000000000E+00  0.00000000000E+00  0.23990756439E+04  0.23990756439E+04  0.00000000000E+00 0. -1.
          1   -1    0    0  501    0 -0.00000000000E+00 -0.00000000000E+00 -0.85008605466E+03  0.85008605466E+03  0.00000000000E+00 0. -1.
         25    2    1    2    0    0  0.14443314818E+03  0.33988466774E+03 -0.46838385262E+03  0.60941892006E+03  0.12500186028E+03 0.  0.
          2    1    1    2  501    0 -0.43448121661E+02 -0.47325781426E+02 -0.29745594432E+03  0.30431481671E+03  0.00000000000E+00 0. -1.
          1    1    1    2  502    0 -0.10098502652E+03 -0.29255888631E+03  0.23148293861E+04  0.23354279617E+04  0.00000000000E+00 0. -1.
         22    1    3    3    0    0  0.41358779903E+02  0.38098012205E+02 -0.14372348718E+03  0.15433226486E+03  0.00000000000E+00 0.  1.
         22    1    3    3    0    0  0.10307436828E+03  0.30178665553E+03 -0.32466036543E+03  0.45508665520E+03  0.00000000000E+00 0.  1.
</event>
<event>
 7    1  0.6681656E-006  0.8403718E+02  0.7818608E-02  0.1387298E+00
          2   -1    0    0  502    0  0.00000000000E+00  0.00000000000E+00  0.26929970835E+03  0.26929970835E+03  0.00000000000E+00 0. -1.
          1   -1    0    0  501    0 -0.00000000000E+00 -0.00000000000E+00 -0.22680193450E+03  0.22680193450E+03  0.00000000000E+00 0. -1.
         25    2    1    2    0    0 -0.22391343660E+02  0.34196116899E+02 -0.78361565666E+02  0.15308809548E+03  0.12499873328E+03 0.  0.
          2    1    1    2  501    0 -0.18656919594E+02  0.42709893911E+02 -0.97406587212E+02  0.10798267879E+03  0.00000000000E+00 0. -1.
          1    1    1    2  502    0  0.41048263254E+02 -0.76906010811E+02  0.21826592673E+03  0.23503086858E+03  0.00000000000E+00 0. -1.
         22    1    3    3    0    0 -0.15591496673E+02  0.77766074199E+02 -0.23542545665E+02  0.82733962320E+02  0.00000000000E+00 0. -1.
         22    1    3    3    0    0 -0.67998469862E+01 -0.43569957299E+02 -0.54819020002E+02  0.70354133156E+02  0.00000000000E+00 0. -1.
</event>
<event>
 7    1  0.6681656E-006  0.6249114E+02  0.7818608E-02  0.1483054E+00
          2   -1    0    0  502    0  0.00000000000E+00  0.00000000000E+00  0.47761640495E+02  0.47761640495E+02  0.00000000000E+00 0. -1.
          1   -1    0    0  501    0 -0.00000000000E+00 -0.00000000000E+00 -0.88848911636E+03  0.88848911636E+03  0.00000000000E+00 0. -1.
         25    2    1    2    0    0 -0.59280046643E+02  0.23942695022E+02 -0.18830828693E+03  0.23488933409E+03  0.12500244705E+03 0.  0.
          2    1    1    2  501    0 -0.38277638655E+01 -0.30225789712E+02 -0.63481218629E+03  0.63554288762E+03  0.00000000000E+00 0. -1.
          1    1    1    2  502    0  0.63107810508E+02  0.62830946905E+01 -0.17607002641E+02  0.65818535141E+02  0.00000000000E+00 0. -1.
         22    1    3    3    0    0  0.24739321635E+02  0.47142317834E+02 -0.71300507933E+02  0.88984237914E+02  0.00000000000E+00 0. -1.
         22    1    3    3    0    0 -0.84019368278E+02 -0.23199622812E+02 -0.11700777899E+03  0.14590509617E+03  0.00000000000E+00 0. -1.
</event>
<event>
 7    1  0.6681656E-006  0.8832532E+02  0.7818608E-02  0.1339084E+00
          2   -1    0    0  502    0  0.00000000000E+00  0.00000000000E+00  0.11436198828E+04  0.11436198828E+04  0.00000000000E+00 0. -1.
          1   -1    0    0  501    0 -0.00000000000E+00 -0.00000000000E+00 -0.73756879404E+03  0.73756879404E+03  0.00000000000E+00 0. -1.
         25    2    1    2    0    0  0.22304259760E+02 -0.89230810522E+02 -0.46738150904E+03  0.49247375267E+03  0.12500121808E+03 0.  0.
          2    1    1    2  501    0 -0.65285072130E+02  0.11981252917E+02 -0.25160326687E+03  0.26021125065E+03  0.00000000000E+00 0. -1.
          1    1    1    2  502    0  0.42980812369E+02  0.77249557605E+02  0.11250358647E+04  0.11285036735E+04  0.00000000000E+00 0. -1.
         22    1    3    3    0    0  0.60731943268E+02 -0.49415351741E+02 -0.13962795393E+03  0.16008188979E+03  0.00000000000E+00 0. -1.
         22    1    3    3    0    0 -0.38427683507E+02 -0.39815458781E+02 -0.32775355511E+03  0.33239186287E+03  0.00000000000E+00 0. -1.
</event>
<event>
 7    1  0.6681656E-006  0.5626945E+02  0.7818608E-02  0.1420029E+00
          2   -1    0    0  502    0  0.00000000000E+00  0.00000000000E+00  0.44522045455E+03  0.44522045455E+03  0.00000000000E+00 0. -1.
          1   -1    0    0  501    0 -0.00000000000E+00 -0.00000000000E+00 -0.17181446302E+04  0.17181446302E+04  0.00000000000E+00 0. -1.
         25    2    1    2    0    0  0.50084236219E+02 -0.31240846070E+02  0.20812108116E+03  0.24984394952E+03  0.12499277383E+03 0.  0.
          2    1    1    2  501    0  0.13652668904E+01  0.56252889025E+02 -0.16930239593E+04  0.16939587888E+04  0.00000000000E+00 0. -1.
          1    1    1    2  502    0 -0.51449503109E+02 -0.25012042955E+02  0.21197870247E+03  0.21956234642E+03  0.00000000000E+00 0. -1.
         22    1    3    3    0    0 -0.35052786333E+02  0.17882993093E+02  0.70275776600E+02  0.80543057109E+02  0.00000000000E+00 0.  1.
         22    1    3    3    0    0  0.85137022552E+02 -0.49123839162E+02  0.13784530456E+03  0.16930089241E+03  0.00000000000E+00 0.  1.
</event>
<event>
 7    1  0.6681656E-006  0.7518604E+02  0.7818608E-02  0.1434911E+00
          2   -1    0    0  502    0  0.00000000000E+00  0.00000000000E+00  0.26846586892E+04  0.26846586892E+04  0.00000000000E+00 0. -1.
          1   -1    0    0  501    0 -0.00000000000E+00 -0.00000000000E+00 -0.17059623941E+02  0.17059623941E+02  0.00000000000E+00 0. -1.
         25    2    1    2    0    0 -0.98615931603E+02  0.35693915384E+02  0.16878070763E+04  0.16956762348E+04  0.12500403491E+03 0.  0.
          2    1    1    2  501    0  0.72645510531E+02 -0.10841655993E+02  0.92930760840E+02  0.11845268260E+03  0.00000000000E+00 0. -1.
          1    1    1    2  502    0  0.25970421072E+02 -0.24852259391E+02  0.88686122806E+03  0.88758939572E+03  0.00000000000E+00 0. -1.
         22    1    3    3    0    0 -0.92734746550E+02  0.47029401782E+02  0.16725546752E+04  0.16757835897E+04  0.00000000000E+00 0.  1.
         22    1    3    3    0    0 -0.58811850536E+01 -0.11335486398E+02  0.15252401107E+02  0.19892645100E+02  0.00000000000E+00 0.  1.
</event>
<event>
 7    1  0.6681656E-006  0.1163473E+03  0.7818608E-02  0.1433671E+00
          2   -1    0    0  502    0  0.00000000000E+00  0.00000000000E+00  0.45588424609E+02  0.45588424609E+02  0.00000000000E+00 0. -1.
          1   -1    0    0  501    0 -0.00000000000E+00 -0.00000000000E+00 -0.80133094806E+03  0.80133094806E+03  0.00000000000E+00 0. -1.
         25    2    1    2    0    0  0.80331865166E+02  0.85974375417E+02 -0.43316151108E+03  0.46593903666E+03  0.12500195760E+03 0.  0.
          2    1    1    2  501    0  0.14548107587E+02 -0.18387710575E+02 -0.23261372805E+03  0.23379243317E+03  0.00000000000E+00 0. -1.
          1    1    1    2  502    0 -0.94879972752E+02 -0.67586664843E+02 -0.89967284323E+02  0.14718790284E+03  0.00000000000E+00 0. -1.
         22    1    3    3    0    0  0.94060549252E+02  0.16632023435E+02 -0.18923044931E+03  0.21197210683E+03  0.00000000000E+00 0.  1.
         22    1    3    3    0    0 -0.13728684086E+02  0.69342351983E+02 -0.24393106177E+03  0.25396692982E+03  0.00000000000E+00 0.  1.
</event>
<event>
 7    1  0.6681656E-006  0.8159690E+02  0.7818608E-02  0.1448442E+00
          2   -1    0    0  502    0  0.00000000000E+00  0.00000000000E+00  0.16758254591E+04  0.16758254591E+04  0.00000000000E+00 0. -1.
          1   -1    0    0  501    0 -0.00000000000E+00 -0.00000000000E+00 -0.11241264853E+03  0.11241264853E+03  0.00000000000E+00 0. -1.
         25    2    1    2    0    0 -0.66031534349E+02 -0.73619094603E+02  0.36446203141E+03  0.39779186216E+03  0.12500343455E+03 0.  0.
          2    1    1    2  501    0 -0.16033457315E+01  0.29900527466E+02 -0.92120895395E+02  0.96865224042E+02  0.00000000000E+00 0. -1.
          1    1    1    2  502    0  0.67634880080E+02  0.43718567137E+02  0.12910716746E+04  0.12935810214E+04  0.00000000000E+00 0. -1.
         22    1    3    3    0    0  0.34463701079E+02 -0.25393232163E+02  0.61141718218E+02  0.74638278640E+02  0.00000000000E+00 0. -1.
         22    1    3    3    0    0 -0.10049523543E+03 -0.48225862440E+02  0.30332031319E+03  0.32315358352E+03  0.00000000000E+00 0. -1.
</event>
<event>
 7    1  0.6681656E-006  0.1060251E+03  0.7818608E-02  0.1317510E+00
          2   -1    0    0  502    0  0.00000000000E+00  0.00000000000E+00  0.60683289922E+02  0.60683289922E+02  0.00000000000E+00 0. -1.
          1   -1    0    0  501    0 -0.00000000000E+00 -0.00000000000E+00 -0.23391479095E+04  0.23391479095E+04  0.00000000000E+00 0. -1.
         25    2    1    2    0    0  0.15890824621E+03 -0.32538151748E+02 -0.37113141174E+03  0.42387989514E+03  0.12500031478E+03 0.  0.
          2    1    1    2  501    0 -0.66744298285E+02  0.43220954312E+01 -0.18721499038E+04  0.18733442674E+04  0.00000000000E+00 0. -1.
          1    1    1    2  502    0 -0.92163947922E+02  0.28216056316E+02 -0.35183303998E+02  0.10260703685E+03  0.00000000000E+00 0. -1.
         22    1    3    3    0    0 -0.88191110319E+01 -0.16464841201E+02 -0.12009550289E+03  0.12153928390E+03  0.00000000000E+00 0.  1.
         22    1    3    3    0    0  0.16772735724E+03 -0.16073310546E+02 -0.25103590885E+03  0.30234061125E+03  0.00000000000E+00 0.  1.
</event>
<event>
 7    1  0.6681656E-006  0.1695062E+03  0.7818608E-02  0.1343722E+00
          2   -1    0    0  502    0  0.00000000000E+00  0.00000000000E+00  0.30826571063E+03  0.30826571063E+03  0.00000000000E+00 0. -1.
          1   -1    0    0  501    0 -0.00000000000E+00 -0.00000000000E+00 -0.12696932535E+04  0.12696932535E+04  0.00000000000E+00 0. -1.
         25    2    1    2    0    0 -0.14577680394E+03 -0.61428535644E+02 -0.15039601113E+02  0.20217783941E+03  0.12500139034E+03 0.  0.
          2    1    1    2  501    0  0.19836705479E-01 -0.33227355607E+02 -0.11256276391E+04  0.11261179509E+04  0.00000000000E+00 0. -1.
          1    1    1    2  502    0  0.14575696723E+03  0.94655891251E+02  0.17923969733E+03  0.24966317378E+03  0.00000000000E+00 0. -1.
         22    1    3    3    0    0 -0.10822244620E+03 -0.35862074446E+01 -0.56063076357E+02  0.12193452045E+03  0.00000000000E+00 0.  1.
         22    1    3    3    0    0 -0.37554357735E+02 -0.57842328200E+02  0.41023475245E+02  0.80243318959E+02  0.00000000000E+00 0.  1.
</event>
<event>
 7    1  0.6681656E-006  0.9121446E+02  0.7818608E-02  0.1378187E+00
          2   -1    0    0  502    0  0.00000000000E+00  0.00000000000E+00  0.85116418160E+03  0.85116418160E+03  0.00000000000E+00 0. -1.
          1   -1    0    0  501    0 -0.00000000000E+00 -0.00000000000E+00 -0.14729798183E+04  0.14729798183E+04  0.00000000000E+00 0. -1.
         25    2    1    2    0    0  0.59457002493E+02 -0.52457189337E+01  0.29534325950E+02  0.14163726436E+03  0.12500474205E+03 0.  0.
          2    1    1    2  501    0  0.28149232851E+02  0.36681647281E+02 -0.14137200562E+04  0.14144759878E+04  0.00000000000E+00 0. -1.
          1    1    1    2  502    0 -0.87606235344E+02 -0.31435928348E+02  0.76237009354E+03  0.76803074781E+03  0.00000000000E+00 0. -1.
         22    1    3    3    0    0  0.91378880329E+01  0.52164858659E+02 -0.12604191771E+02  0.54438397540E+02  0.00000000000E+00 0.  1.
         22    1    3    3    0    0  0.50319114460E+02 -0.57410577592E+02  0.42138517721E+02  0.87198866823E+02  0.00000000000E+00 0.  1.
</event>
<event>
 7    1  0.6681656E-006  0.1113981E+03  0.7818608E-02  0.1387872E+00
          2   -1    0    0  502    0  0.00000000000E+00  0.00000000000E+00  0.71672179238E+03  0.71672179238E+03  0.00000000000E+00 0. -1.
          1   -1    0    0  501    0 -0.00000000000E+00 -0.00000000000E+00 -0.22500354246E+03  0.22500354246E+03  0.00000000000E+00 0. -1.
         25    2    1    2    0    0 -0.10029335526E+02 -0.83100873518E+02  0.46196948283E+02  0.15735428721E+03  0.12497948201E+03 0.  0.
          2    1    1    2  501    0  0.26576778373E+02  0.11393916200E+03 -0.14864998146E+03  0.18916996266E+03  0.00000000000E+00 0. -1.
          1    1    1    2  502    0 -0.16547442847E+02 -0.30838288484E+02  0.59417128309E+03  0.59520108497E+03  0.00000000000E+00 0. -1.
         22    1    3    3    0    0 -0.41709798204E+01 -0.17965841474E+02 -0.42978495366E+02  0.46768788700E+02  0.00000000000E+00 0.  1.
         22    1    3    3    0    0 -0.58583557060E+01 -0.65135032044E+02  0.89175443649E+02  0.11058549851E+03  0.00000000000E+00 0.  1.
</event>
<event>
 7    1  0.6681656E-006  0.6623681E+02  0.7818608E-02  0.1478602E+00
          2   -1    0    0  502    0  0.00000000000E+00  0.00000000000E+00  0.64716110041E+03  0.64716110041E+03  0.00000000000E+00 0. -1.
          1   -1    0    0  501    0 -0.00000000000E+00 -0.00000000000E+00 -0.85166943478E+02  0.85166943478E+02  0.00000000000E+00 0. -1.
         25    2    1    2    0    0 -0.48068469726E+02 -0.57318564859E+02  0.30900749311E+03  0.34162279129E+03  0.12499802028E+03 0.  0.
          2    1    1    2  501    0  0.59023330901E+02  0.29754336618E+02 -0.52110322660E+02  0.84169827527E+02  0.00000000000E+00 0. -1.
          1    1    1    2  502    0 -0.10954861175E+02  0.27564228241E+02  0.30509698648E+03  0.30653542507E+03  0.00000000000E+00 0. -1.
         22    1    3    3    0    0 -0.49450417302E+02 -0.74235081707E+02  0.31190128638E+03  0.32440499931E+03  0.00000000000E+00 0. -1.
         22    1    3    3    0    0  0.13819475763E+01  0.16916516848E+02 -0.28937932730E+01  0.17217791986E+02  0.00000000000E+00 0. -1.
</event>
<event>
 7    1  0.6681656E-006  0.6367849E+02  0.7818608E-02  0.1460965E+00
          2   -1    0    0  502    0  0.00000000000E+00  0.00000000000E+00  0.22607292871E+04  0.22607292871E+04  0.00000000000E+00 0. -1.
          1   -1    0    0  501    0 -0.00000000000E+00 -0.00000000000E+00 -0.40657211706E+02  0.40657211706E+02  0.00000000000E+00 0. -1.
         25    2    1    2    0    0  0.86639865878E+02 -0.28587916607E+02  0.55448048820E+03  0.57567191421E+03  0.12500322266E+03 0.  0.
          2    1    1    2  501    0 -0.62159206305E+02  0.35611532691E+01  0.25591646484E+01  0.62313706877E+02  0.00000000000E+00 0. -1.
          1    1    1    2  502    0 -0.24480659573E+02  0.25026763338E+02  0.16630324225E+04  0.16634008777E+04  0.00000000000E+00 0. -1.
         22    1    3    3    0    0  0.17884657285E+01  0.20437861866E+02  0.10712915404E+02  0.23144575256E+02  0.00000000000E+00 0. -1.
         22    1    3    3    0    0  0.84851400149E+02 -0.49025778473E+02  0.54376757280E+03  0.55252733895E+03  0.00000000000E+00 0. -1.
</event>
<event>
 7    1  0.6681656E-006  0.5909014E+02  0.7818608E-02  0.1408731E+00
          2   -1    0    0  502    0  0.00000000000E+00  0.00000000000E+00  0.34025678103E+04  0.34025678103E+04  0.00000000000E+00 0. -1.
          1   -1    0    0  501    0 -0.00000000000E+00 -0.00000000000E+00 -0.32426737407E+02  0.32426737407E+02  0.00000000000E+00 0. -1.
         25    2    1    2    0    0  0.70964289817E+01 -0.22530503009E+02  0.16236108534E+04  0.16285870212E+04  0.12500199856E+03 0.  0.
          2    1    1    2  501    0  0.46712100489E+02  0.37714760936E+02  0.10641855564E+01  0.60046282278E+02  0.00000000000E+00 0. -1.
          1    1    1    2  502    0 -0.53808529471E+02 -0.15184257926E+02  0.17454660340E+04  0.17463612442E+04  0.00000000000E+00 0. -1.
         22    1    3    3    0    0  0.57649120799E+02 -0.43688401147E+02  0.89513232122E+03  0.89805009327E+03  0.00000000000E+00 0.  1.
         22    1    3    3    0    0 -0.50552691817E+02  0.21157898138E+02  0.72847853214E+03  0.73053692795E+03  0.00000000000E+00 0.  1.
</event>
<event>
 7    1  0.6681656E-006  0.3225544E+02  0.7818608E-02  0.1651650E+00
          2   -1    0    0  502    0  0.00000000000E+00  0.00000000000E+00  0.50302515056E+03  0.50302515056E+03  0.00000000000E+00 0. -1.
          1   -1    0    0  501    0 -0.00000000000E+00 -0.00000000000E+00 -0.38690323841E+02  0.38690323841E+02  0.00000000000E+00 0. -1.
         25    2    1    2    0    0  0.13775389796E+02 -0.18536593913E+02  0.10560107662E+03  0.16525770175E+03  0.12500061569E+03 0.  0.
          2    1    1    2  501    0  0.17730813319E+02  0.10126525829E+02  0.47355021698E+01  0.20960754927E+02  0.00000000000E+00 0. -1.
          1    1    1    2  502    0 -0.31506203115E+02  0.84100680846E+01  0.35399824792E+03  0.35549701773E+03  0.00000000000E+00 0. -1.
         22    1    3    3    0    0 -0.95747133468E+01 -0.49751250436E+02 -0.21115421465E+01  0.50708191310E+02  0.00000000000E+00 0. -1.
         22    1    3    3    0    0  0.23350103143E+02  0.31214656523E+02  0.10771261877E+03  0.11454951044E+03  0.00000000000E+00 0. -1.
</event>
<event>
 7    1  0.6681656E-006  0.6396906E+02  0.7818608E-02  0.1436808E+00
          2   -1    0    0  502    0  0.00000000000E+00  0.00000000000E+00  0.16779289080E+03  0.16779289080E+03  0.00000000000E+00 0. -1.
          1   -1    0    0  501    0 -0.00000000000E+00 -0.00000000000E+00 -0.64158813523E+03  0.64158813523E+03  0.00000000000E+00 0. -1.
         25    2    1    2    0    0 -0.98344215164E+02  0.33314659475E+02 -0.97267605772E+02  0.18939018298E+03  0.12500481224E+03 0.  0.
          2    1    1    2  501    0  0.58260786942E+02 -0.21996972958E+02 -0.49267812643E+03  0.49659835116E+03  0.00000000000E+00 0. -1.
          1    1    1    2  502    0  0.40083428222E+02 -0.11317686517E+02  0.11615048777E+03  0.12339249189E+03  0.00000000000E+00 0. -1.
         22    1    3    3    0    0 -0.10638450568E+02 -0.41169144206E+02 -0.68931951426E+01  0.43076573731E+02  0.00000000000E+00 0.  1.
         22    1    3    3    0    0 -0.87705764596E+02  0.74483803681E+02 -0.90374410629E+02  0.14631360925E+03  0.00000000000E+00 0.  1.
</event>
<event>
 7    1  0.6681656E-006  0.5785138E+02  0.7818608E-02  0.1449656E+00
          2   -1    0    0  502    0  0.00000000000E+00  0.00000000000E+00  0.17806559315E+03  0.17806559315E+03  0.00000000000E+00 0. -1.
          1   -1    0    0  501    0 -0.00000000000E+00 -0.00000000000E+00 -0.32196354337E+03  0.32196354337E+03  0.00000000000E+00 0. -1.
         25    2    1    2    0    0 -0.67282526796E+02 -0.99726322946E+01 -0.15860459602E+03  0.21308917196E+03  0.12500074208E+03 0.  0.
          2    1    1    2  501    0  0.40259928010E+02  0.41938631356E+02 -0.12673611681E+03  0.13943369000E+03  0.00000000000E+00 0. -1.
          1    1    1    2  502    0  0.27022598786E+02 -0.31965999061E+02  0.14144276261E+03  0.14750627456E+03  0.00000000000E+00 0. -1.
         22    1    3    3    0    0 -0.42917356823E+02  0.28464691861E+02 -0.36930056457E+01  0.51631158133E+02  0.00000000000E+00 0.  1.
         22    1    3    3    0    0 -0.24365169972E+02 -0.38437324156E+02 -0.15491159038E+03  0.16145801383E+03  0.00000000000E+00 0.  1.
</event>
<event>
 7    1  0.6681656E-006  0.1493459E+03  0.7818608E-02  0.1325717E+00
          2   -1    0    0  502    0  0.00000000000E+00  0.00000000000E+00  0.29786870986E+03  0.29786870986E+03  0.00000000000E+00 0. -1.
          1   -1    0    0  501    0 -0.00000000000E+00 -0.00000000000E+00 -0.48208122882E+03  0.48208122882E+03  0.00000000000E+00 0. -1.
         25    2    1    2    0    0  0.39283384722E+02  0.12275273602E+03  0.25032960311E+02  0.18128769247E+03  0.12500863900E+03 0.  0.
          2    1    1    2  501    0 -0.68158009875E+01 -0.15264734423E+03 -0.38670416962E+03  0.41579776532E+03  0.00000000000E+00 0. -1.
          1    1    1    2  502    0 -0.32467583734E+02  0.29894608209E+02  0.17745869035E+03  0.18286448089E+03  0.00000000000E+00 0. -1.
         22    1    3    3    0    0  0.57095437423E+02  0.11113716760E+03 -0.24552434270E+02  0.12733491676E+03  0.00000000000E+00 0.  1.
         22    1    3    3    0    0 -0.17812052701E+02  0.11615568412E+02  0.49585394581E+02  0.53952775709E+02  0.00000000000E+00 0.  1.
</event>
<event>
 7    1  0.6681656E-006  0.3784827E+02  0.7818608E-02  0.1577943E+00
          2   -1    0    0  502    0  0.00000000000E+00  0.00000000000E+00  0.56333747839E+03  0.56333747839E+03  0.00000000000E+00 0. -1.
          1   -1    0    0  501    0 -0.00000000000E+00 -0.00000000000E+00 -0.49067831666E+03  0.49067831666E+03  0.00000000000E+00 0. -1.
         25    2    1    2    0    0 -0.46713292430E+00 -0.11260032799E+02 -0.64733146931E+02  0.14121567919E+03  0.12499792472E+03 0.  0.
          2    1    1    2  501    0  0.38721209246E+01 -0.26613986922E+02 -0.38654759976E+03  0.38748205701E+03  0.00000000000E+00 0. -1.
          1    1    1    2  502    0 -0.34049880003E+01  0.37874019721E+02  0.52393990843E+03  0.52531805885E+03  0.00000000000E+00 0. -1.
         22    1    3    3    0    0 -0.28794814623E+02 -0.48180365644E+02 -0.74885021391E+02  0.93585551296E+02  0.00000000000E+00 0. -1.
         22    1    3    3    0    0  0.28327681699E+02  0.36920332845E+02  0.10151874460E+02  0.47630127891E+02  0.00000000000E+00 0. -1.
</event>
<event>
 7    1  0.6681656E-006  0.6395404E+02  0.7818608E-02  0.1494716E+00
          2   -1    0    0  502    0  0.00000000000E+00  0.00000000000E+00  0.55224396643E+01  0.55224396643E+01  0.00000000000E+00 0. -1.
          1   -1    0    0  501    0 -0.00000000000E+00 -0.00000000000E+00 -0.33778637635E+04  0.33778637635E+04  0.00000000000E+00 0. -1.
         25    2    1    2    0    0  0.68899916524E+01 -0.48416437287E+02 -0.12178870893E+04  0.12252615964E+04  0.12500157566E+03 0.  0.
          2    1    1    2  501    0  0.15996023289E+02 -0.22300058518E+02 -0.13412224756E+04  0.13415032220E+04  0.00000000000E+00 0. -1.
          1    1    1    2  502    0 -0.22886014941E+02  0.70716495805E+02 -0.81323175892E+03  0.81662138484E+03  0.00000000000E+00 0. -1.
         22    1    3    3    0    0  0.57534796448E+02  0.72526236124E+01 -0.60438460759E+03  0.60716028135E+03  0.00000000000E+00 0. -1.
         22    1    3    3    0    0 -0.50644804795E+02 -0.55669060900E+02 -0.61350248167E+03  0.61810131500E+03  0.00000000000E+00 0. -1.
</event>
<event>
 7    1  0.6681656E-006  0.7763791E+02  0.7818608E-02  0.1451923E+00
          2   -1    0    0  502    0  0.00000000000E+00  0.00000000000E+00  0.11419459267E+04  0.11419459267E+04  0.00000000000E+00 0. -1.
          1   -1    0    0  501    0 -0.00000000000E+00 -0.00000000000E+00 -0.19149759729E+03  0.19149759729E+03  0.00000000000E+00 0. -1.
         25    2    1    2    0    0  0.35698288688E+02 -0.32547671765E+02  0.21166902380E+03  0.25052394334E+03  0.12499900717E+03 0.  0.
          2    1    1    2  501    0 -0.61101770446E+02  0.49739188391E+02 -0.16277689015E+03  0.18084172412E+03  0.00000000000E+00 0. -1.
          1    1    1    2  502    0  0.25403481758E+02 -0.17191516626E+02  0.90155619579E+03  0.90207785656E+03  0.00000000000E+00 0. -1.
         22    1    3    3    0    0 -0.19113380765E+02 -0.36430389870E+02  0.18486248294E+03  0.18938487856E+03  0.00000000000E+00 0.  1.
         22    1    3    3    0    0  0.54811669453E+02  0.38827181054E+01  0.26806540868E+02  0.61139064774E+02  0.00000000000E+00 0.  1.
</event>
<event>
 7    1  0.6681656E-006  0.3443681E+02  0.7818608E-02  0.1621143E+00
          2   -1    0    0  502    0  0.00000000000E+00  0.00000000000E+00  0.78594569493E+03  0.78594569493E+03  0.00000000000E+00 0. -1.
          1   -1    0    0  501    0 -0.00000000000E+00 -0.00000000000E+00 -0.27728556810E+02  0.27728556810E+02  0.00000000000E+00 0. -1.
         25    2    1    2    0    0 -0.49665577399E+02  0.11669556903E+02  0.41127274547E+03  0.43286539123E+03  0.12499731047E+03 0.  0.
          2    1    1    2  501    0  0.16477639090E+02 -0.15741926010E+02 -0.81060997013E+01  0.24187386730E+02  0.00000000000E+00 0. -1.
          1    1    1    2  502    0  0.33187938309E+02  0.40723691063E+01  0.35505049235E+03  0.35662147377E+03  0.00000000000E+00 0. -1.
         22    1    3    3    0    0 -0.50216969421E+02  0.99758734933E+00  0.41749114178E+03  0.42050159651E+03  0.00000000000E+00 0.  1.
         22    1    3    3    0    0  0.55139202186E+00  0.10671969554E+02 -0.62183963120E+01  0.12363794726E+02  0.00000000000E+00 0.  1.
</event>
<event>
 7    1  0.6681656E-006  0.8926149E+02  0.7818608E-02  0.1393463E+00
          2   -1    0    0  502    0  0.00000000000E+00  0.00000000000E+00  0.18158227535E+04  0.18158227535E+04  0.00000000000E+00 0. -1.
          1   -1    0    0  501    0 -0.00000000000E+00 -0.00000000000E+00 -0.74169706128E+02  0.74169706128E+02  0.00000000000E+00 0. -1.
         25    2    1    2    0    0  0.83262605734E+02  0.38816748971E+02  0.92617720191E+02  0.18067537127E+03  0.12500458462E+03 0.  0.
          2    1    1    2  501    0 -0.56936092864E+02 -0.71232583453E+02  0.39729857244E+02  0.99469900838E+02  0.00000000000E+00 0. -1.
          1    1    1    2  502    0 -0.26326512870E+02  0.32415834482E+02  0.16093054699E+04  0.16098471875E+04  0.00000000000E+00 0. -1.
         22    1    3    3    0    0 -0.33095167730E+02  0.89946933271E+01  0.13583776181E+02  0.36887851801E+02  0.00000000000E+00 0. -1.
         22    1    3    3    0    0  0.11635777346E+03  0.29822055644E+02  0.79033944010E+02  0.14378751947E+03  0.00000000000E+00 0. -1.
</event>
<event>
 7    1  0.6681656E-006  0.8404424E+02  0.7818608E-02  0.1348675E+00
          2   -1    0    0  502    0  0.00000000000E+00  0.00000000000E+00  0.26062615147E+04  0.26062615147E+04  0.00000000000E+00 0. -1.
          1   -1    0    0  501    0 -0.00000000000E+00 -0.00000000000E+00 -0.65397088983E+02  0.65397088983E+02  0.00000000000E+00 0. -1.
         25    2    1    2    0    0 -0.83520264531E+02  0.51206737204E+02  0.28325165880E+03  0.32473977192E+03  0.12500661076E+03 0.  0.
          2    1    1    2  501    0  0.83916134359E+02  0.13018232483E+02 -0.34058618521E+01  0.84988186694E+02  0.00000000000E+00 0. -1.
          1    1    1    2  502    0 -0.39586982711E+00 -0.64224969687E+02  0.22610186287E+04  0.22619306450E+04  0.00000000000E+00 0. -1.
         22    1    3    3    0    0 -0.80800388852E+02  0.82909792033E+02  0.16027961112E+03  0.19771770329E+03  0.00000000000E+00 0.  1.
         22    1    3    3    0    0 -0.27198756793E+01 -0.31703054828E+02  0.12297204768E+03  0.12702206863E+03  0.00000000000E+00 0.  1.
</event>
<event>
 7    1  0.6681656E-006  0.2362205E+02  0.7818608E-02  0.1703898E+00
          2   -1    0    0  502    0  0.00000000000E+00  0.00000000000E+00  0.96088601426E+03  0.96088601426E+03  0.00000000000E+00 0. -1.
          1   -1    0    0  501    0 -0.00000000000E+00 -0.00000000000E+00 -0.29321883231E+03  0.29321883231E+03  0.00000000000E+00 0. -1.
         25    2    1    2    0    0  0.16470012751E+02 -0.31137106307E+01 -0.51294228277E+02  0.13615212205E+03  0.12500138387E+03 0.  0.
          2    1    1    2  501    0 -0.15861756128E+02 -0.17842447400E+02 -0.19866126037E+03  0.20009059101E+03  0.00000000000E+00 0. -1.
          1    1    1    2  502    0 -0.60825662251E+00  0.20956158031E+02  0.91762267060E+03  0.91786213351E+03  0.00000000000E+00 0. -1.
         22    1    3    3    0    0  0.97811671359E+00 -0.50782298307E+02 -0.66587815247E+02  0.83748048771E+02  0.00000000000E+00 0. -1.
         22    1    3    3    0    0  0.15491896037E+02  0.47668587676E+02  0.15293586970E+02  0.52404073280E+02  0.00000000000E+00 0. -1.
</event>
<event>
 7    1  0.6681656E-006  0.2040641E+03  0.7818608E-02  0.1311645E+00
          2   -1    0    0  502    0  0.00000000000E+00  0.00000000000E+00  0.32949699668E+03  0.32949699668E+03  0.00000000000E+00 0. -1.
          1   -1    0    0  501    0 -0.00000000000E+00 -0.00000000000E+00 -0.66097855684E+03  0.66097855684E+03  0.00000000000E+00 0. -1.
         25    2    1    2    0    0 -0.17796179507E+03 -0.85171376756E+02  0.73936937122E+01  0.23367412967E+03  0.12499747297E+03 0.  0.
          2    1    1    2  501    0  0.84962475644E+01 -0.35637910260E+02 -0.49517372688E+03  0.49652720637E+03  0.00000000000E+00 0. -1.
          1    1    1    2  502    0  0.16946554750E+03  0.12080928702E+03  0.15629847301E+03  0.26027421748E+03  0.00000000000E+00 0. -1.
         22    1    3    3    0    0 -0.62256348559E+02 -0.68967149813E+02  0.54483365851E+02  0.10770681429E+03  0.00000000000E+00 0. -1.
         22    1    3    3    0    0 -0.11570544651E+03 -0.16204226943E+02 -0.47089672139E+02  0.12596731538E+03  0.00000000000E+00 0. -1.
</event>
<event>
 7    1  0.6681656E-006  0.1212727E+03  0.7818608E-02  0.1245713E+00
          2   -1    0    0  502    0  0.00000000000E+00  0.00000000000E+00  0.13658180466E+04  0.13658180466E+04  0.00000000000E+00 0. -1.
          1   -1    0    0  501    0 -0.00000000000E+00 -0.00000000000E+00 -0.30805924842E+03  0.30805924842E+03  0.00000000000E+00 0. -1.
         25    2    1    2    0    0  0.32957070241E+02  0.26868017772E+02  0.25364585451E+03  0.28595226774E+03  0.12499768421E+03 0.  0.
          2    1    1    2  501    0 -0.11343172623E+03  0.56191225929E+02 -0.27494552274E+03  0.30268672066E+03  0.00000000000E+00 0. -1.
          1    1    1    2  502    0  0.80474655988E+02 -0.83059243701E+02  0.10790584664E+04  0.10852383066E+04  0.00000000000E+00 0. -1.
         22    1    3    3    0    0  0.30102381612E+02 -0.47600250239E+02  0.12845909142E+03  0.14026287952E+03  0.00000000000E+00 0.  1.
         22    1    3    3    0    0  0.28546886294E+01  0.74468268012E+02  0.12518676309E+03  0.14568938823E+03  0.00000000000E+00 0.  1.
</event>
<event>
 7    1  0.6681656E-006  0.1387592E+03  0.7818608E-02  0.1313145E+00
          2   -1    0    0  502    0  0.00000000000E+00  0.00000000000E+00  0.32068149571E+03  0.32068149571E+03  0.00000000000E+00 0. -1.
          1   -1    0    0  501    0 -0.00000000000E+00 -0.00000000000E+00 -0.43498726256E+03  0.43498726256E+03  0.00000000000E+00 0. -1.
         25    2    1    2    0    0  0.70729997999E+02 -0.73522152689E+02 -0.65150635726E+02  0.17400458325E+03  0.12499900041E+03 0.  0.
          2    1    1    2  501    0  0.65305994671E+00 -0.53149536025E+02 -0.29298790043E+03  0.29777039723E+03  0.00000000000E+00 0. -1.
          1    1    1    2  502    0 -0.71383057946E+02  0.12667168871E+03  0.24383276930E+03  0.28389377779E+03  0.00000000000E+00 0. -1.
         22    1    3    3    0    0  0.82308478266E+02 -0.97868450385E+02 -0.71215772177E+02  0.14637146369E+03  0.00000000000E+00 0. -1.
         22    1    3    3    0    0 -0.11578480267E+02  0.24346297695E+02  0.60651364513E+01  0.27633119566E+02  0.00000000000E+00 0. -1.
</event>
<event>
 7    1  0.6681656E-006  0.1655046E+03  0.7818608E-02  0.1196731E+00
          2   -1    0    0  502    0  0.00000000000E+00  0.00000000000E+00  0.17926164273E+04  0.17926164273E+04  0.00000000000E+00 0. -1.
          1   -1    0    0  501    0 -0.00000000000E+00 -0.00000000000E+00 -0.13674640757E+04  0.13674640757E+04  0.00000000000E+00 0. -1.
         25    2    1    2    0    0  0.78891337408E+01 -0.13347896685E+03  0.23639868898E+03  0.29898207028E+03  0.12500826042E+03 0.  0.
          2    1    1    2  501    0 -0.14206047882E+03  0.88217315685E+02 -0.13276289436E+04  0.13381188611E+04  0.00000000000E+00 0. -1.
          1    1    1    2  502    0  0.13417134507E+03  0.45261651163E+02  0.15163826063E+04  0.15229795716E+04  0.00000000000E+00 0. -1.
         22    1    3    3    0    0 -0.41703477033E+02 -0.28179262690E+02  0.21797633008E+02  0.54848770699E+02  0.00000000000E+00 0.  1.
         22    1    3    3    0    0  0.49592610774E+02 -0.10529970416E+03  0.21460105597E+03  0.24413329958E+03  0.00000000000E+00 0.  1.
</event>
<event>
 7    1  0.6681656E-006  0.8993726E+02  0.7818608E-02  0.1326821E+00
          2   -1    0    0  502    0  0.00000000000E+00  0.00000000000E+00  0.91868373098E+03  0.91868373098E+03  0.00000000000E+00 0. -1.
          1   -1    0    0  501    0 -0.00000000000E+00 -0.00000000000E+00 -0.17780477320E+03  0.17780477320E+03  0.00000000000E+00 0. -1.
         25    2    1    2    0    0 -0.88860896497E+02  0.12841323480E+03  0.28469143395E+03  0.34793840720E+03  0.12500281933E+03 0.  0.
          2    1    1    2  501    0  0.38240109010E+02 -0.61683593534E+02 -0.13403070715E+03  0.15241850973E+03  0.00000000000E+00 0. -1.
          1    1    1    2  502    0  0.50620787486E+02 -0.66729641267E+02  0.59021823098E+03  0.59613158726E+03  0.00000000000E+00 0. -1.
         22    1    3    3    0    0 -0.40076034615E+02 -0.18355635037E+02  0.80567319964E+02  0.91837415764E+02  0.00000000000E+00 0.  1.
         22    1    3    3    0    0 -0.48784861882E+02  0.14676886984E+03  0.20412411399E+03  0.25610099143E+03  0.00000000000E+00 0.  1.
</event>
<event>
 7    1  0.6681656E-006  0.1203250E+03  0.7818608E-02  0.1386938E+00
          2   -1    0    0  502    0  0.00000000000E+00  0.00000000000E+00  0.16594643814E+04  0.16594643814E+04  0.00000000000E+00 0. -1.
          1   -1    0    0  501    0 -0.00000000000E+00 -0.00000000000E+00 -0.12087261805E+03  0.12087261805E+03  0.00000000000E+00 0. -1.
         25    2    1    2    0    0  0.14931626583E+03  0.13034520337E+02  0.67216925848E+03  0.69993411122E+03  0.12502400591E+03 0.  0.
          2    1    1    2  501    0 -0.11891246975E+03 -0.11447449742E+01 -0.73575197821E+02  0.13983846265E+03  0.00000000000E+00 0. -1.
          1    1    1    2  502    0 -0.30403796083E+02 -0.11889775363E+02  0.93999770274E+03  0.94056442562E+03  0.00000000000E+00 0. -1.
         22    1    3    3    0    0  0.19498163943E+02 -0.84827916361E+01  0.77850375317E+01  0.22643828309E+02  0.00000000000E+00 0.  1.
         22    1    3    3    0    0  0.12981810189E+03  0.21517311973E+02  0.66438422094E+03  0.67729028292E+03  0.00000000000E+00 0.  1.
</event>
<event>
 7    1  0.6681656E-006  0.1217400E+03  0.7818608E-02  0.1420010E+00
          2   -1    0    0  502    0  0.00000000000E+00  0.00000000000E+00  0.14621185279E+04  0.14621185279E+04  0.00000000000E+00 0. -1.
          1   -1    0    0  501    0 -0.00000000000E+00 -0.00000000000E+00 -0.58012975778E+02  0.58012975778E+02  0.00000000000E+00 0. -1.
         25    2    1    2    0    0 -0.49281542933E+02  0.93047812391E+02  0.63270204211E+03  0.65346734057E+03  0.12498450002E+03 0.  0.
          2    1    1    2  501    0 -0.84199105330E+01  0.23396129883E+02 -0.38811260186E+02  0.46093250093E+02  0.00000000000E+00 0. -1.
          1    1    1    2  502    0  0.57701453466E+02 -0.11644394227E+03  0.81021477016E+03  0.82057091297E+03  0.00000000000E+00 0. -1.
         22    1    3    3    0    0 -0.89498090535E-01 -0.29916900738E+02  0.14823879782E+03  0.15122754424E+03  0.00000000000E+00 0.  1.
         22    1    3    3    0    0 -0.49192044842E+02  0.12296471313E+03  0.48446324429E+03  0.50223979633E+03  0.00000000000E+00 0.  1.
</event>
<event>
 7    1  0.6681656E-006  0.4696062E+02  0.7818608E-02  0.1484461E+00
          2   -1    0    0  502    0  0.00000000000E+00  0.00000000000E+00  0.17958392295E+04  0.17958392295E+04  0.00000000000E+00 0. -1.
          1   -1    0    0  501    0 -0.00000000000E+00 -0.00000000000E+00 -0.15683348703E+04  0.15683348703E+04  0.00000000000E+00 0. -1.
         25    2    1    2    0    0  0.46617042312E+01 -0.13698754777E+02  0.25312314860E+03  0.28267555075E+03  0.12499900506E+03 0.  0.
          2    1    1    2  501    0  0.39969708011E+02 -0.37383426915E+01 -0.15529235385E+04  0.15534423289E+04  0.00000000000E+00 0. -1.
          1    1    1    2  502    0 -0.44631412242E+02  0.17437097468E+02  0.15273047491E+04  0.15280562202E+04  0.00000000000E+00 0. -1.
         22    1    3    3    0    0  0.18600014801E+02 -0.57107547707E+02  0.62516886889E+02  0.86692523911E+02  0.00000000000E+00 0. -1.
         22    1    3    3    0    0 -0.13938310570E+02  0.43408792930E+02  0.19060626171E+03  0.19598302684E+03  0.00000000000E+00 0. -1.
</event>
<event>
 7    1  0.6681656E-006  0.1232031E+03  0.7818608E-02  0.1288216E+00
          2   -1    0    0  502    0  0.00000000000E+00  0.00000000000E+00  0.65085811992E+03  0.65085811992E+03  0.00000000000E+00 0. -1.
          1   -1    0    0  501    0 -0.00000000000E+00 -0.00000000000E+00 -0.11133997967E+04  0.11133997967E+04  0.00000000000E+00 0. -1.
         25    2    1    2    0    0  0.14672259699E+01 -0.75137662601E+02 -0.33488177372E+03  0.36526556006E+03  0.12500122361E+03 0.  0.
          2    1    1    2  501    0 -0.37324856643E+02  0.14136674556E+03 -0.75404820886E+03  0.76809270466E+03  0.00000000000E+00 0. -1.
          1    1    1    2  502    0  0.35857630673E+02 -0.66229082958E+02  0.62638830581E+03  0.63089965189E+03  0.00000000000E+00 0. -1.
         22    1    3    3    0    0 -0.12897306954E+02  0.77603795108E+01  0.44207305994E+01  0.15687793849E+02  0.00000000000E+00 0.  1.
         22    1    3    3    0    0  0.14364532924E+02 -0.82898042112E+02 -0.33930250432E+03  0.34957776621E+03  0.00000000000E+00 0.  1.
</event>
<event>
 7    1  0.6681656E-006  0.1047298E+03  0.7818608E-02  0.1324622E+00
          2   -1    0    0  502    0  0.00000000000E+00  0.00000000000E+00  0.18291412361E+04  0.18291412361E+04  0.00000000000E+00 0. -1.
          1   -1    0    0  501    0 -0.00000000000E+00 -0.00000000000E+00 -0.65291060921E+03  0.65291060921E+03  0.00000000000E+00 0. -1.
         25    2    1    2    0    0 -0.16010713136E+03  0.17861658053E+02 -0.54641793400E+02  0.21110144960E+03  0.12499905639E+03 0.  0.
          2    1    1    2  501    0  0.61566524094E+02  0.15752138902E+02 -0.51654220411E+03  0.52043675446E+03  0.00000000000E+00 0. -1.
          1    1    1    2  502    0  0.98540607262E+02 -0.33613796955E+02  0.17474146244E+04  0.17505136413E+04  0.00000000000E+00 0. -1.
         22    1    3    3    0    0 -0.93896595314E+02 -0.20032829784E+02 -0.85737239035E+02  0.12871969173E+03  0.00000000000E+00 0. -1.
         22    1    3    3    0    0 -0.66210536043E+02  0.37894487837E+02  0.31095445635E+02  0.82381757876E+02  0.00000000000E+00 0. -1.
</event>
<event>
 7    1  0.6681656E-006  0.5341512E+02  0.7818608E-02  0.1442016E+00
          2   -1    0    0  502    0  0.00000000000E+00  0.00000000000E+00  0.17979814705E+04  0.17979814705E+04  0.00000000000E+00 0. -1.
          1   -1    0    0  501    0 -0.00000000000E+00 -0.00000000000E+00 -0.48859942464E+02  0.48859942464E+02  0.00000000000E+00 0. -1.
         25    2    1    2    0    0 -0.20822210909E+02  0.34102672700E+02  0.27938209137E+03  0.30866836621E+03  0.12500100225E+03 0.  0.
          2    1    1    2  501    0 -0.33693888904E+02 -0.34150964589E+02 -0.16651828659E+02  0.50782378140E+02  0.00000000000E+00 0. -1.
          1    1    1    2  502    0  0.54516099813E+02  0.48291889185E-01  0.14863912654E+04  0.14873906687E+04  0.00000000000E+00 0. -1.
         22    1    3    3    0    0 -0.16159830300E+02 -0.43469499915E+02  0.15692359817E+03  0.16363298323E+03  0.00000000000E+00 0.  1.
         22    1    3    3    0    0 -0.46623806090E+01  0.77572172615E+02  0.12245849321E+03  0.14503538298E+03  0.00000000000E+00 0.  1.
</event>
<event>
 7    1  0.6681656E-006  0.2387502E+03  0.7818608E-02  0.1237768E+00
          2   -1    0    0  502    0  0.00000000000E+00  0.00000000000E+00  0.98737531740E+03  0.98737531740E+03  0.00000000000E+00 0. -1.
          1   -1    0    0  501    0 -0.00000000000E+00 -0.00000000000E+00 -0.42038783077E+03  0.42038783077E+03  0.00000000000E+00 0. -1.
         25    2    1    2    0    0 -0.10077362692E+03  0.15156011564E+03 -0.11678888826E+03  0.24978111921E+03  0.12500068224E+03 0.  0.
          2    1    1    2  501    0 -0.48576748686E+02  0.41153112583E+02 -0.21629665170E+03  0.22547177367E+03  0.00000000000E+00 0. -1.
          1    1    1    2  502    0  0.14935037560E+03 -0.19271322822E+03  0.90007302658E+03  0.93251025528E+03  0.00000000000E+00 0. -1.
         22    1    3    3    0    0 -0.12709537652E+03  0.13930336135E+03 -0.85352191059E+02  0.20698709558E+03  0.00000000000E+00 0.  1.
         22    1    3    3    0    0  0.26321749604E+02  0.12256754284E+02 -0.31436697206E+02  0.42794023636E+02  0.00000000000E+00 0.  1.
</event>
<event>
 7    1  0.6681656E-006  0.5962991E+02  0.7818608E-02  0.1503228E+00
          2   -1    0    0  502    0  0.00000000000E+00  0.00000000000E+00  0.17667534654E+04  0.17667534654E+04  0.00000000000E+00 0. -1.
          1   -1    0    0  501    0 -0.00000000000E+00 -0.00000000000E+00 -0.21320274003E+02  0.21320274003E+02  0.00000000000E+00 0. -1.
         25    2    1    2    0    0  0.33520106891E+02 -0.19667190060E+02  0.32932651441E+03  0.35438925134E+03  0.12500156976E+03 0.  0.
          2    1    1    2  501    0  0.26339917235E+02  0.87631880043E+01  0.15572072525E+02  0.31828825719E+02  0.00000000000E+00 0. -1.
          1    1    1    2  502    0 -0.59860024126E+02  0.10904002055E+02  0.14005346044E+04  0.14018556623E+04  0.00000000000E+00 0. -1.
         22    1    3    3    0    0 -0.48179932557E+01  0.18006681630E+02 -0.19853761197E+01  0.18745542421E+02  0.00000000000E+00 0. -1.
         22    1    3    3    0    0  0.38338100147E+02 -0.37673871689E+02  0.33131189053E+03  0.33564370892E+03  0.00000000000E+00 0. -1.
</event>
<event>
 7    1  0.6681656E-006  0.2826215E+02  0.7818608E-02  0.1628883E+00
          2   -1    0    0  502    0  0.00000000000E+00  0.00000000000E+00  0.67472898654E+03  0.67472898654E+03  0.00000000000E+00 0. -1.
          1   -1    0    0  501    0 -0.00000000000E+00 -0.00000000000E+00 -0.22187841291E+02  0.22187841291E+02  0.00000000000E+00 0. -1.
         25    2    1    2    0    0 -0.72094751238E+01  0.53283800214E+01  0.34345954145E+03  0.36560797506E+03  0.12499746656E+03 0.  0.
          2    1    1    2  501    0 -0.20106391335E+02 -0.17327828332E+02  0.65889299630E+01  0.27348393102E+02  0.00000000000E+00 0. -1.
          1    1    1    2  502    0  0.27315866459E+02  0.11999448310E+02  0.30249267384E+03  0.30396045967E+03  0.00000000000E+00 0. -1.
         22    1    3    3    0    0 -0.25167922850E+02  0.61001691703E+02  0.20290526527E+03  0.21336629867E+03  0.00000000000E+00 0.  1.
         22    1    3    3    0    0  0.17958447726E+02 -0.55673311682E+02  0.14055427618E+03  0.15224167639E+03  0.00000000000E+00 0.  1.
</event>
<event>
 7    1  0.6735312E-006  0.6684498E+02  0.7818608E-02  0.1424256E+00
          2   -1    0    0  502    0  0.00000000000E+00  0.00000000000E+00  0.46595469865E+03  0.46595469865E+03  0.00000000000E+00 0. -1.
          1   -1    0    0  501    0 -0.00000000000E+00 -0.00000000000E+00 -0.23151350164E+04  0.23151350164E+04  0.00000000000E+00 0. -1.
         25    2    1    2    0    0 -0.35080124303E+02 -0.14459100718E+02 -0.37495570408E+03  0.39705957608E+03  0.12499938486E+03 0.  0.
          2    1    1    2  501    0  0.36645468270E+02  0.58265614741E+02 -0.19274556595E+04  0.19286842903E+04  0.00000000000E+00 0. -1.
          1    1    1    2  502    0 -0.15653439666E+01 -0.43806514023E+02  0.45323104586E+03  0.45534584868E+03  0.00000000000E+00 0. -1.
         22    1    3    3    0    0  0.32298292567E+02  0.16316378860E+02 -0.39694492270E+02  0.53712723245E+02  0.00000000000E+00 0. -1.
         22    1    3    3    0    0 -0.67378416870E+02 -0.30775479578E+02 -0.33526121181E+03  0.34334685283E+03  0.00000000000E+00 0. -1.
</event>
<event>
 7    1  0.6681656E-006  0.1348266E+03  0.7818608E-02  0.1332500E+00
          2   -1    0    0  502    0  0.00000000000E+00  0.00000000000E+00  0.92670862207E+02  0.92670862207E+02  0.00000000000E+00 0. -1.
          1   -1    0    0  501    0 -0.00000000000E+00 -0.00000000000E+00 -0.29372491838E+04  0.29372491838E+04  0.00000000000E+00 0. -1.
         25    2    1    2    0    0 -0.12234651755E+03 -0.77086550129E+02 -0.21367313955E+03  0.28669143460E+03  0.12499904616E+03 0.  0.
          2    1    1    2  501    0 -0.73469558352E+01  0.45461807332E+02 -0.26072484891E+04  0.26076551608E+04  0.00000000000E+00 0. -1.
          1    1    1    2  502    0  0.12969347339E+03  0.31624742797E+02 -0.23656692968E+02  0.13557345064E+03  0.00000000000E+00 0. -1.
         22    1    3    3    0    0 -0.53820833015E+02 -0.79824002606E+02 -0.48401071860E+02  0.10775535818E+03  0.00000000000E+00 0. -1.
         22    1    3    3    0    0 -0.68525684537E+02  0.27374524774E+01 -0.16527206769E+03  0.17893607642E+03  0.00000000000E+00 0. -1.
</event>
<event>
 7    1  0.6681656E-006  0.1555662E+03  0.7818608E-02  0.1334255E+00
          2   -1    0    0  502    0  0.00000000000E+00  0.00000000000E+00  0.35613048986E+04  0.35613048986E+04  0.00000000000E+00 0. -1.
          1   -1    0    0  501    0 -0.00000000000E+00 -0.00000000000E+00 -0.32658912438E+03  0.32658912438E+03  0.00000000000E+00 0. -1.
         25    2    1    2    0    0 -0.10539304979E+03 -0.57929651514E+02  0.13756887741E+04  0.13865810818E+04  0.12499581548E+03 0.  0.
          2    1    1    2  501    0  0.14469327496E+03  0.58475443005E+02 -0.30199368687E+03  0.33993485870E+03  0.00000000000E+00 0. -1.
          1    1    1    2  502    0 -0.39300225174E+02 -0.54579149046E+00  0.21610206870E+04  0.21613780824E+04  0.00000000000E+00 0. -1.
         22    1    3    3    0    0 -0.93243000803E+02 -0.67254483133E+01  0.11874530905E+04  0.11911273362E+04  0.00000000000E+00 0. -1.
         22    1    3    3    0    0 -0.12150048984E+02 -0.51204203201E+02  0.18823568358E+03  0.19545374565E+03  0.00000000000E+00 0. -1.
</event>
<event>
 7    1  0.6681656E-006  0.7479406E+02  0.7818608E-02  0.1414864E+00
          2   -1    0    0  502    0  0.00000000000E+00  0.00000000000E+00  0.74215115423E+02  0.74215115423E+02  0.00000000000E+00 0. -1.
          1   -1    0    0  501    0 -0.00000000000E+00 -0.00000000000E+00 -0.47744240860E+03  0.47744240860E+03  0.00000000000E+00 0. -1.
         25    2    1    2    0    0 -0.17450670769E+02  0.35010293066E+02 -0.17561769678E+03  0.21908178068E+03  0.12500001869E+03 0.  0.
          2    1    1    2  501    0 -0.27273236760E+02  0.32087447068E+02 -0.24623950992E+03  0.24981459115E+03  0.00000000000E+00 0. -1.
          1    1    1    2  502    0  0.44723907529E+02 -0.67097740133E+02  0.18629913522E+02  0.82761152200E+02  0.00000000000E+00 0. -1.
         22    1    3    3    0    0  0.18100318097E+02 -0.25223802227E+02 -0.10951232624E+01  0.31065431092E+02  0.00000000000E+00 0.  1.
         22    1    3    3    0    0 -0.35550988866E+02  0.60234095292E+02 -0.17452257352E+03  0.18801634959E+03  0.00000000000E+00 0.  1.
</event>
<event>
 7    1  0.6681656E-006  0.7761104E+02  0.7818608E-02  0.1403836E+00
          2   -1    0    0  502    0  0.00000000000E+00  0.00000000000E+00  0.88580257017E+03  0.88580257017E+03  0.00000000000E+00 0. -1.
          1   -1    0    0  501    0 -0.00000000000E+00 -0.00000000000E+00 -0.10267888057E+04  0.10267888057E+04  0.00000000000E+00 0. -1.
         25    2    1    2    0    0  0.13225211570E+02  0.90429290134E+02  0.12508939268E+03  0.19905876530E+03  0.12499869258E+03 0.  0.
          2    1    1    2  501    0 -0.46931225287E+02 -0.61784044693E+02 -0.98760530926E+03  0.99064830033E+03  0.00000000000E+00 0. -1.
          1    1    1    2  502    0  0.33706013717E+02 -0.28645245441E+02  0.72152968102E+03  0.72288431027E+03  0.00000000000E+00 0. -1.
         22    1    3    3    0    0 -0.51788823486E+01  0.11986835172E+03  0.10056522592E+03  0.15655225079E+03  0.00000000000E+00 0.  1.
         22    1    3    3    0    0  0.18404093919E+02 -0.29439061582E+02  0.24524166766E+02  0.42506514505E+02  0.00000000000E+00 0.  1.
</event>
<event>
 7    1  0.6681656E-006  0.1060591E+03  0.7818608E-02  0.1373485E+00
          2   -1    0    0  502    0  0.00000000000E+00  0.00000000000E+00  0.20345565717E+04  0.20345565717E+04  0.00000000000E+00 0. -1.
          1   -1    0    0  501    0 -0.00000000000E+00 -0.00000000000E+00 -0.44232508006E+02  0.44232508006E+02  0.00000000000E+00 0. -1.
         25    2    1    2    0    0 -0.55467217636E+02 -0.54252725336E+02  0.42653726278E+03  0.45119582454E+03  0.12499466027E+03 0.  0.
          2    1    1    2  501    0  0.96555377575E+02  0.58721186880E+02  0.69363830418E+02  0.13259886763E+03  0.00000000000E+00 0. -1.
          1    1    1    2  502    0 -0.41088159940E+02 -0.44684615441E+01  0.14944229704E+04  0.14949943875E+04  0.00000000000E+00 0. -1.
         22    1    3    3    0    0 -0.25611574382E+02 -0.81614827950E+02  0.15842961406E+03  0.18004687027E+03  0.00000000000E+00 0.  1.
         22    1    3    3    0    0 -0.29855643254E+02  0.27362102614E+02  0.26810764873E+03  0.27114895427E+03  0.00000000000E+00 0.  1.
</event>
<event>
 7    1  0.6681656E-006  0.3178577E+03  0.7818608E-02  0.1195645E+00
          2   -1    0    0  502    0  0.00000000000E+00  0.00000000000E+00  0.42542069323E+04  0.42542069323E+04  0.00000000000E+00 0. -1.
          1   -1    0    0  501    0 -0.00000000000E+00 -0.00000000000E+00 -0.47116626099E+03  0.47116626099E+03  0.00000000000E+00 0. -1.
         25    2    1    2    0    0  0.13509606070E+01 -0.26901586732E+03  0.47584312368E+03  0.56073845880E+03  0.12501831411E+03 0.  0.
          2    1    1    2  501    0 -0.56689887694E+02  0.31905775117E+03 -0.36704999922E+03  0.48962975183E+03  0.00000000000E+00 0. -1.
          1    1    1    2  502    0  0.55338927087E+02 -0.50041883849E+02  0.36742475469E+04  0.36750049827E+04  0.00000000000E+00 0. -1.
         22    1    3    3    0    0  0.18585225647E+02 -0.23449010229E+03  0.46425856576E+03  0.52044887796E+03  0.00000000000E+00 0. -1.
         22    1    3    3    0    0 -0.17234265040E+02 -0.34525765031E+02  0.11584557913E+02  0.40289580843E+02  0.00000000000E+00 0. -1.
</event>
<event>
 7    1  0.6681656E-006  0.2125772E+03  0.7818608E-02  0.1308579E+00
          2   -1    0    0  502    0  0.00000000000E+00  0.00000000000E+00  0.81777012120E+03  0.81777012120E+03  0.00000000000E+00 0. -1.
          1   -1    0    0  501    0 -0.00000000000E+00 -0.00000000000E+00 -0.61510294356E+03  0.61510294356E+03  0.00000000000E+00 0. -1.
         25    2    1    2    0    0  0.12434677725E+03  0.12963961590E+03  0.43926229092E+03  0.49074765013E+03  0.12495337076E+03 0.  0.
          2    1    1    2  501    0 -0.13892567941E+03 -0.16273210787E+03 -0.56892684175E+03  0.60783207763E+03  0.00000000000E+00 0. -1.
          1    1    1    2  502    0  0.14578902158E+02  0.33092491967E+02  0.33233172848E+03  0.33429333700E+03  0.00000000000E+00 0. -1.
         22    1    3    3    0    0  0.10112956189E+03  0.51311664907E+02  0.13806497482E+03  0.17866732358E+03  0.00000000000E+00 0. -1.
         22    1    3    3    0    0  0.23217215360E+02  0.78327950996E+02  0.30119731610E+03  0.31208032655E+03  0.00000000000E+00 0. -1.
</event>
<event>
 7    1  0.6681656E-006  0.7669833E+02  0.7818608E-02  0.1389232E+00
          2   -1    0    0  502    0  0.00000000000E+00  0.00000000000E+00  0.60456639957E+03  0.60456639957E+03  0.00000000000E+00 0. -1.
          1   -1    0    0  501    0 -0.00000000000E+00 -0.00000000000E+00 -0.18751092249E+04  0.18751092249E+04  0.00000000000E+00 0. -1.
         25    2    1    2    0    0 -0.18340922579E+02  0.71626991874E+02 -0.49076299589E+01  0.14531404592E+03  0.12500108681E+03 0.  0.
          2    1    1    2  501    0 -0.31909441967E+02 -0.69989696912E+02 -0.17979916356E+04  0.17996362666E+04  0.00000000000E+00 0. -1.
          1    1    1    2  502    0  0.50250364546E+02 -0.16372949616E+01  0.53235644022E+03  0.53472531202E+03  0.00000000000E+00 0. -1.
         22    1    3    3    0    0 -0.22488835406E+02  0.11236781041E+02 -0.59000898193E+02  0.64133602375E+02  0.00000000000E+00 0.  1.
         22    1    3    3    0    0  0.41479128264E+01  0.60390210832E+02  0.54093268234E+02  0.81180443540E+02  0.00000000000E+00 0.  1.
</event>
<event>
 7    1  0.6681656E-006  0.1337965E+03  0.7818608E-02  0.1382381E+00
          2   -1    0    0  502    0  0.00000000000E+00  0.00000000000E+00  0.37955926051E+03  0.37955926051E+03  0.00000000000E+00 0. -1.
          1   -1    0    0  501    0 -0.00000000000E+00 -0.00000000000E+00 -0.13246857360E+04  0.13246857360E+04  0.00000000000E+00 0. -1.
         25    2    1    2    0    0  0.11454123830E+03 -0.52090333423E+02  0.16592295011E+03  0.24287419861E+03  0.12499741146E+03 0.  0.
          2    1    1    2  501    0 -0.10639291188E+03  0.81443115415E+02 -0.12813656152E+04  0.12883517658E+04  0.00000000000E+00 0. -1.
          1    1    1    2  502    0 -0.81483264256E+01 -0.29352781992E+02  0.17031618957E+03  0.17301903208E+03  0.00000000000E+00 0. -1.
         22    1    3    3    0    0  0.10276444783E+03  0.17626616693E+02  0.11796808992E+03  0.15744109880E+03  0.00000000000E+00 0.  1.
         22    1    3    3    0    0  0.11776790478E+02 -0.69716950116E+02  0.47954860188E+02  0.85433099810E+02  0.00000000000E+00 0.  1.
</event>
<event>
 7    1  0.6681656E-006  0.4344184E+02  0.7818608E-02  0.1510625E+00
          2   -1    0    0  502    0  0.00000000000E+00  0.00000000000E+00  0.31740962830E+04  0.31740962830E+04  0.00000000000E+00 0. -1.
          1   -1    0    0  501    0 -0.00000000000E+00 -0.00000000000E+00 -0.45658672686E+03  0.45658672686E+03  0.00000000000E+00 0. -1.
         25    2    1    2    0    0  0.11752936557E+02 -0.62431019683E+02  0.30763268348E+03  0.33807728005E+03  0.12499046205E+03 0.  0.
          2    1    1    2  501    0  0.18340609843E+02  0.31248057673E+02 -0.44045582899E+03  0.44194361221E+03  0.00000000000E+00 0. -1.
          1    1    1    2  502    0 -0.30093546400E+02  0.31182962010E+02  0.28503327017E+04  0.28506621176E+04  0.00000000000E+00 0. -1.
         22    1    3    3    0    0  0.65615045519E+02 -0.13858216405E+02  0.16367311720E+03  0.17687926293E+03  0.00000000000E+00 0.  1.
         22    1    3    3    0    0 -0.53862108962E+02 -0.48572803278E+02  0.14395956627E+03  0.16119801712E+03  0.00000000000E+00 0.  1.
</event>
<event>
 7    1  0.6681656E-006  0.6135922E+02  0.7818608E-02  0.1412085E+00
          2   -1    0    0  502    0  0.00000000000E+00  0.00000000000E+00  0.40138468216E+03  0.40138468216E+03  0.00000000000E+00 0. -1.
          1   -1    0    0  501    0 -0.00000000000E+00 -0.00000000000E+00 -0.15989507033E+04  0.15989507033E+04  0.00000000000E+00 0. -1.
         25    2    1    2    0    0 -0.74354830034E+02 -0.78839838853E+01 -0.63007290917E+03  0.64668997667E+03  0.12500102841E+03 0.  0.
          2    1    1    2  501    0  0.34906503424E+02 -0.39150317981E+02 -0.95745031036E+03  0.95888597247E+03  0.00000000000E+00 0. -1.
          1    1    1    2  502    0  0.39448326610E+02  0.47034301866E+02  0.38995719837E+03  0.39475943635E+03  0.00000000000E+00 0. -1.
         22    1    3    3    0    0 -0.35417302674E+02  0.27105598164E+02 -0.54485644036E+03  0.54667873508E+03  0.00000000000E+00 0. -1.
         22    1    3    3    0    0 -0.38937527361E+02 -0.34989582049E+02 -0.85216468803E+02  0.10001124159E+03  0.00000000000E+00 0. -1.
</event>
<event>
 7    1  0.6681656E-006  0.8528587E+02  0.7818608E-02  0.1431560E+00
          2   -1    0    0  502    0  0.00000000000E+00  0.00000000000E+00  0.35859011971E+03  0.35859011971E+03  0.00000000000E+00 0. -1.
          1   -1    0    0  501    0 -0.00000000000E+00 -0.00000000000E+00 -0.26851886403E+03  0.26851886403E+03  0.00000000000E+00 0. -1.
         25    2    1    2    0    0 -0.10068985271E+03  0.97435828393E+01 -0.76037687319E+01  0.16095500332E+03  0.12496124180E+03 0.  0.
          2    1    1    2  501    0  0.77309519971E+02 -0.32318794978E+02 -0.17369206108E+03  0.19284760426E+03  0.00000000000E+00 0. -1.
          1    1    1    2  502    0  0.23380332737E+02  0.22575212138E+02  0.27136708549E+03  0.27330637616E+03  0.00000000000E+00 0. -1.
         22    1    3    3    0    0  0.16172542525E+02  0.34175660174E+02  0.12631429811E+02  0.39863265033E+02  0.00000000000E+00 0. -1.
         22    1    3    3    0    0 -0.11686239523E+03 -0.24432077334E+02 -0.20235198543E+02  0.12109173829E+03  0.00000000000E+00 0. -1.
</event>
<event>
 7    1  0.6681656E-006  0.1008307E+03  0.7818608E-02  0.1382799E+00
          2   -1    0    0  502    0  0.00000000000E+00  0.00000000000E+00  0.27344498796E+04  0.27344498796E+04  0.00000000000E+00 0. -1.
          1   -1    0    0  501    0 -0.00000000000E+00 -0.00000000000E+00 -0.17106122054E+04  0.17106122054E+04  0.00000000000E+00 0. -1.
         25    2    1    2    0    0  0.50735778996E+02 -0.62836068525E+02  0.26102818868E+02  0.15109178729E+03  0.12499952103E+03 0.  0.
          2    1    1    2  501    0 -0.21484262123E+02 -0.34078356883E+02 -0.16469029970E+04  0.16473956384E+04  0.00000000000E+00 0. -1.
          1    1    1    2  502    0 -0.29251516873E+02  0.96914425408E+02  0.26446378524E+04  0.26465746593E+04  0.00000000000E+00 0. -1.
         22    1    3    3    0    0  0.22567558362E+02 -0.55360151982E+02  0.73934648767E+02  0.95080878237E+02  0.00000000000E+00 0. -1.
         22    1    3    3    0    0  0.28168220634E+02 -0.74759165431E+01 -0.47831829900E+02  0.56010909057E+02  0.00000000000E+00 0. -1.
</event>
<event>
 7    1  0.6681656E-006  0.9200476E+02  0.7818608E-02  0.1326689E+00
          2   -1    0    0  502    0  0.00000000000E+00  0.00000000000E+00  0.13220493558E+04  0.13220493558E+04  0.00000000000E+00 0. -1.
          1   -1    0    0  501    0 -0.00000000000E+00 -0.00000000000E+00 -0.39209284740E+03  0.39209284740E+03  0.00000000000E+00 0. -1.
         25    2    1    2    0    0 -0.10502952412E+03 -0.11419668588E+03 -0.57590872061E+02  0.20739589278E+03  0.12499705513E+03 0.  0.
          2    1    1    2  501    0  0.66762263459E+02  0.54359843409E+02 -0.25141616432E+03  0.26574852790E+03  0.00000000000E+00 0. -1.
          1    1    1    2  502    0  0.38267260662E+02  0.59836842475E+02  0.12389635448E+04  0.12409977825E+04  0.00000000000E+00 0. -1.
         22    1    3    3    0    0  0.15150918593E+02  0.85538245947E+01  0.12949834690E+02  0.21689086378E+02  0.00000000000E+00 0.  1.
         22    1    3    3    0    0 -0.12018044271E+03 -0.12275051048E+03 -0.70540706751E+02  0.18570680640E+03  0.00000000000E+00 0.  1.
</event>
<event>
 7    1  0.6681656E-006  0.9079153E+02  0.7818608E-02  0.1461445E+00
          2   -1    0    0  502    0  0.00000000000E+00  0.00000000000E+00  0.35682695469E+03  0.35682695469E+03  0.00000000000E+00 0. -1.
          1   -1    0    0  501    0 -0.00000000000E+00 -0.00000000000E+00 -0.17163973137E+03  0.17163973137E+03  0.00000000000E+00 0. -1.
         25    2    1    2    0    0  0.56612463514E+02 -0.70642575053E+02  0.11261309894E+03  0.19105339016E+03  0.12499737359E+03 0.  0.
          2    1    1    2  501    0  0.17580281215E+02  0.17019705767E+02 -0.12091279474E+03  0.12336385453E+03  0.00000000000E+00 0. -1.
          1    1    1    2  502    0 -0.74192744730E+02  0.53622869286E+02  0.19348691912E+03  0.21404944137E+03  0.00000000000E+00 0. -1.
         22    1    3    3    0    0  0.73161653342E+02 -0.34048904840E+01  0.20955028373E+02  0.76179616782E+02  0.00000000000E+00 0.  1.
         22    1    3    3    0    0 -0.16549189828E+02 -0.67237684569E+02  0.91658070571E+02  0.11487377338E+03  0.00000000000E+00 0.  1.
</event>
<event>
 7    1  0.6681656E-006  0.9304651E+02  0.7818608E-02  0.1350619E+00
          2   -1    0    0  502    0  0.00000000000E+00  0.00000000000E+00  0.11819559084E+03  0.11819559084E+03  0.00000000000E+00 0. -1.
          1   -1    0    0  501    0 -0.00000000000E+00 -0.00000000000E+00 -0.23711067365E+04  0.23711067365E+04  0.00000000000E+00 0. -1.
         25    2    1    2    0    0 -0.48788259184E+02 -0.68696322355E+01 -0.27684364352E+03  0.30772635235E+03  0.12500247554E+03 0.  0.
          2    1    1    2  501    0 -0.43169817921E+02  0.37308676580E+02 -0.20555092548E+04  0.20563010156E+04  0.00000000000E+00 0. -1.
          1    1    1    2  502    0  0.91958077105E+02 -0.30439044344E+02  0.79441752657E+02  0.12527495931E+03  0.00000000000E+00 0. -1.
         22    1    3    3    0    0 -0.64515718478E+02  0.45831535881E+02 -0.17202597222E+03  0.18935612673E+03  0.00000000000E+00 0.  1.
         22    1    3    3    0    0  0.15727459294E+02 -0.52701168117E+02 -0.10481767130E+03  0.11837022562E+03  0.00000000000E+00 0.  1.
</event>
<event>
 7    1  0.6681656E-006  0.2943909E+02  0.7818608E-02  0.1620175E+00
          2   -1    0    0  502    0  0.00000000000E+00  0.00000000000E+00  0.94300386227E+02  0.94300386227E+02  0.00000000000E+00 0. -1.
          1   -1    0    0  501    0 -0.00000000000E+00 -0.00000000000E+00 -0.44508831582E+03  0.44508831582E+03  0.00000000000E+00 0. -1.
         25    2    1    2    0    0  0.51365227530E+02 -0.15684207792E+02 -0.19143857731E+03  0.23485763652E+03  0.12499999830E+03 0.  0.
          2    1    1    2  501    0 -0.22244799334E+02  0.14962778294E+02 -0.22820133502E+03  0.22977067946E+03  0.00000000000E+00 0. -1.
          1    1    1    2  502    0 -0.29120428196E+02  0.72142949812E+00  0.68851982739E+02  0.74760386074E+02  0.00000000000E+00 0. -1.
         22    1    3    3    0    0  0.62303241742E+02 -0.62073966882E+02 -0.13297737775E+03  0.15942977855E+03  0.00000000000E+00 0. -1.
         22    1    3    3    0    0 -0.10938014212E+02  0.46389759090E+02 -0.58461199565E+02  0.75427857970E+02  0.00000000000E+00 0. -1.
</event>
<event>
 7    1  0.6681656E-006  0.3740959E+02  0.7818608E-02  0.1605958E+00
          2   -1    0    0  502    0  0.00000000000E+00  0.00000000000E+00  0.14901293582E+04  0.14901293582E+04  0.00000000000E+00 0. -1.
          1   -1    0    0  501    0 -0.00000000000E+00 -0.00000000000E+00 -0.15869292871E+02  0.15869292871E+02  0.00000000000E+00 0. -1.
         25    2    1    2    0    0  0.35509030966E+01 -0.39018022886E+02  0.58692881237E+03  0.60136968190E+03  0.12500019397E+03 0.  0.
          2    1    1    2  501    0 -0.24185942148E+02  0.28976982755E+02  0.33432170888E+02  0.50421576507E+02  0.00000000000E+00 0. -1.
          1    1    1    2  502    0  0.20635039051E+02  0.10041040132E+02  0.85389908207E+03  0.85420739267E+03  0.00000000000E+00 0. -1.
         22    1    3    3    0    0  0.73839336706E+01  0.17467182949E+02  0.95699912559E+01  0.21241696949E+02  0.00000000000E+00 0.  1.
         22    1    3    3    0    0 -0.38330305741E+01 -0.56485205836E+02  0.57735882111E+03  0.58012798495E+03  0.00000000000E+00 0.  1.
</event>
<event>
 7    1  0.6681656E-006  0.1355634E+03  0.7818608E-02  0.1236808E+00
          2   -1    0    0  502    0  0.00000000000E+00  0.00000000000E+00  0.42627614875E+03  0.42627614875E+03  0.00000000000E+00 0. -1.
          1   -1    0    0  501    0 -0.00000000000E+00 -0.00000000000E+00 -0.12460525079E+04  0.12460525079E+04  0.00000000000E+00 0. -1.
         25    2    1    2    0    0 -0.21656161456E+03  0.10551746971E+03  0.98336848076E+02  0.28866640576E+03  0.12500115524E+03 0.  0.
          2    1    1    2  501    0  0.10596615685E+03 -0.81238917016E+02 -0.11329617909E+04  0.11408027909E+04  0.00000000000E+00 0. -1.
          1    1    1    2  502    0  0.11059545770E+03 -0.24278552694E+02  0.21484858370E+03  0.24285945998E+03  0.00000000000E+00 0. -1.
         22    1    3    3    0    0 -0.81175432795E+02  0.10644461211E+03  0.67007854272E+02  0.14969956202E+03  0.00000000000E+00 0.  1.
         22    1    3    3    0    0 -0.13538618176E+03 -0.92714239669E+00  0.31328993805E+02  0.13896684374E+03  0.00000000000E+00 0.  1.
</event>
<event>
 7    1  0.6681656E-006  0.4029277E+02  0.7818608E-02  0.1511463E+00
          2   -1    0    0  502    0  0.00000000000E+00  0.00000000000E+00  0.58244495457E+03  0.58244495457E+03  0.00000000000E+00 0. -1.
          1   -1    0    0  501    0 -0.00000000000E+00 -0.00000000000E+00 -0.23226711667E+03  0.23226711667E+03  0.00000000000E+00 0. -1.
         25    2    1    2    0    0 -0.67162873154E+02  0.26035703219E+02  0.88159927125E+02  0.16907193542E+03  0.12499774887E+03 0.  0.
          2    1    1    2  501    0  0.27459463602E+02 -0.27473856579E+02 -0.18896224636E+03  0.19291336264E+03  0.00000000000E+00 0. -1.
          1    1    1    2  502    0  0.39703409552E+02  0.14381533601E+01  0.45098015714E+03  0.45272677317E+03  0.00000000000E+00 0. -1.
         22    1    3    3    0    0  0.12811069600E+01  0.40319181109E+02 -0.16186880209E+02  0.43465994654E+02  0.00000000000E+00 0.  1.
         22    1    3    3    0    0 -0.68443980114E+02 -0.14283477891E+02  0.10434680733E+03  0.12560594076E+03  0.00000000000E+00 0.  1.
</event>
<event>
 7    1  0.6681656E-006  0.5203076E+02  0.7818608E-02  0.1449438E+00
          2   -1    0    0  502    0  0.00000000000E+00  0.00000000000E+00  0.25937225487E+03  0.25937225487E+03  0.00000000000E+00 0. -1.
          1   -1    0    0  501    0 -0.00000000000E+00 -0.00000000000E+00 -0.97849096599E+03  0.97849096599E+03  0.00000000000E+00 0. -1.
         25    2    1    2    0    0 -0.26863728714E+02  0.61454039188E+02 -0.29591457344E+03  0.32815312899E+03  0.12498312862E+03 0.  0.
          2    1    1    2  501    0  0.48196779383E+02 -0.20007294280E+02 -0.66318948531E+03  0.66523944170E+03  0.00000000000E+00 0. -1.
          1    1    1    2  502    0 -0.21333050669E+02 -0.41446744908E+02  0.23998534763E+03  0.24447065016E+03  0.00000000000E+00 0. -1.
         22    1    3    3    0    0 -0.41364683661E+02  0.90124239192E+02 -0.26740271034E+03  0.28519751934E+03  0.00000000000E+00 0. -1.
         22    1    3    3    0    0  0.14500954947E+02 -0.28670200004E+02 -0.28511863104E+02  0.42955609649E+02  0.00000000000E+00 0. -1.
</event>
<event>
 7    1  0.6681656E-006  0.7713512E+02  0.7818608E-02  0.1358226E+00
          2   -1    0    0  502    0  0.00000000000E+00  0.00000000000E+00  0.72098211221E+03  0.72098211221E+03  0.00000000000E+00 0. -1.
          1   -1    0    0  501    0 -0.00000000000E+00 -0.00000000000E+00 -0.18536309369E+03  0.18536309369E+03  0.00000000000E+00 0. -1.
         25    2    1    2    0    0 -0.28688768352E+02 -0.11147497420E+02  0.43989562332E+03  0.45834555291E+03  0.12500069731E+03 0.  0.
          2    1    1    2  501    0  0.66700196534E+02 -0.40999606403E+02 -0.16327874577E+03  0.18107963100E+03  0.00000000000E+00 0. -1.
          1    1    1    2  502    0 -0.38011428182E+02  0.52147103823E+02  0.25900214098E+03  0.26692002199E+03  0.00000000000E+00 0. -1.
         22    1    3    3    0    0 -0.41245459583E+02 -0.62203906404E+02  0.22259082662E+03  0.23477050497E+03  0.00000000000E+00 0.  1.
         22    1    3    3    0    0  0.12556691231E+02  0.51056408984E+02  0.21730479670E+03  0.22357504794E+03  0.00000000000E+00 0.  1.
</event>
<event>
 7    1  0.6681656E-006  0.3325632E+02  0.7818608E-02  0.1598451E+00
          2   -1    0    0  502    0  0.00000000000E+00  0.00000000000E+00  0.90048776390E+03  0.90048776390E+03  0.00000000000E+00 0. -1.
          1   -1    0    0  501    0 -0.00000000000E+00 -0.00000000000E+00 -0.26708082559E+03  0.26708082559E+03  0.00000000000E+00 0. -1.
         25    2    1    2    0    0 -0.22288563154E+02  0.28179638174E+02 -0.59776983539E+02  0.14314031979E+03  0.12499996533E+03 0.  0.
          2    1    1    2  501    0 -0.10815757371E+02 -0.24742823619E+02 -0.16419647390E+03  0.16640213330E+03  0.00000000000E+00 0. -1.
          1    1    1    2  502    0  0.33104320525E+02 -0.34368145551E+01  0.85738039574E+03  0.85802613639E+03  0.00000000000E+00 0. -1.
         22    1    3    3    0    0 -0.50545702610E+02  0.36278982496E+02 -0.84359161719E+02  0.10482128023E+03  0.00000000000E+00 0.  1.
         22    1    3    3    0    0  0.28257139456E+02 -0.80993443215E+01  0.24582178181E+02  0.38319039560E+02  0.00000000000E+00 0.  1.
</event>
<event>
 7    1  0.6987269E-006  0.4590351E+02  0.7818608E-02  0.1503817E+00
          2   -1    0    0  502    0  0.00000000000E+00  0.00000000000E+00  0.13662496723E+04  0.13662496723E+04  0.00000000000E+00 0. -1.
          1   -1    0    0  501    0 -0.00000000000E+00 -0.00000000000E+00 -0.99359583670E+03  0.99359583670E+03  0.00000000000E+00 0. -1.
         25    2    1    2    0    0 -0.59798129866E+02 -0.55365196872E+02 -0.12625485137E+02  0.14975353951E+03  0.12500239342E+03 0.  0.
          2    1    1    2  501    0  0.32709397030E+02  0.31783101256E+02 -0.91158761615E+03  0.91272780833E+03  0.00000000000E+00 0. -1.
          1    1    1    2  502    0  0.27088732836E+02  0.23582095617E+02  0.12968669369E+04  0.12973641611E+04  0.00000000000E+00 0. -1.
         22    1    3    3    0    0 -0.88074166379E+02 -0.89256737488E+01 -0.28691801128E+02  0.93058830249E+02  0.00000000000E+00 0.  1.
         22    1    3    3    0    0  0.28276036513E+02 -0.46439523124E+02  0.16066315991E+02  0.56694709263E+02  0.00000000000E+00 0.  1.
</event>
<event>
 7    1  0.6681656E-006  0.1293380E+03  0.7818608E-02  0.1277882E+00
          2   -1    0    0  502    0  0.00000000000E+00  0.00000000000E+00  0.30129715162E+04  0.30129715162E+04  0.00000000000E+00 0. -1.
          1   -1    0    0  501    0 -0.00000000000E+00 -0.00000000000E+00 -0.45132477104E+02  0.45132477104E+02  0.00000000000E+00 0. -1.
         25    2    1    2    0    0 -0.62173636541E+02  0.36502264299E+02  0.74818024968E+03  0.76196877004E+03  0.12499897648E+03 0.  0.
          2    1    1    2  501    0  0.83341043996E+02 -0.11273369074E+03  0.93519623523E+02  0.16852458166E+03  0.00000000000E+00 0. -1.
          1    1    1    2  502    0 -0.21167407455E+02  0.76231426438E+02  0.21261391659E+04  0.21276106416E+04  0.00000000000E+00 0. -1.
         22    1    3    3    0    0 -0.67673518503E+02 -0.10372824729E+02  0.19295440188E+03  0.20474057195E+03  0.00000000000E+00 0.  1.
         22    1    3    3    0    0  0.54998819619E+01  0.46875089027E+02  0.55522584780E+03  0.55722819809E+03  0.00000000000E+00 0.  1.
</event>
<event>
 7    1  0.1009698E-005  0.8904506E+02  0.7818608E-02  0.1318571E+00
          2   -1    0    0  502    0  0.00000000000E+00  0.00000000000E+00  0.27222138983E+04  0.27222138983E+04  0.00000000000E+00 0. -1.
          1   -1    0    0  501    0 -0.00000000000E+00 -0.00000000000E+00 -0.11290197792E+04  0.11290197792E+04  0.00000000000E+00 0. -1.
         25    2    1    2    0    0  0.13968412019E+03  0.82813340151E+02 -0.32033238588E+03  0.38027335688E+03  0.12500114305E+03 0.  0.
          2    1    1    2  501    0 -0.54646417924E+02 -0.56890989472E+02 -0.77598279503E+03  0.77998212406E+03  0.00000000000E+00 0. -1.
          1    1    1    2  502    0 -0.85037702269E+02 -0.25922350679E+02  0.26895093001E+04  0.26909781966E+04  0.00000000000E+00 0. -1.
         22    1    3    3    0    0  0.22605882667E+02  0.47869428788E+02 -0.20976252473E+02  0.56943053233E+02  0.00000000000E+00 0.  1.
         22    1    3    3    0    0  0.11707823753E+03  0.34943911363E+02 -0.29935613341E+03  0.32333030364E+03  0.00000000000E+00 0.  1.
</event>
<event>
 7    1  0.6681656E-006  0.1110021E+03  0.7818608E-02  0.1403002E+00
          2   -1    0    0  502    0  0.00000000000E+00  0.00000000000E+00  0.19046418294E+04  0.19046418294E+04  0.00000000000E+00 0. -1.
          1   -1    0    0  501    0 -0.00000000000E+00 -0.00000000000E+00 -0.10747315698E+04  0.10747315698E+04  0.00000000000E+00 0. -1.
         25    2    1    2    0    0  0.67547926482E+02 -0.95931647453E+02  0.80087387972E+02  0.18922141407E+03  0.12500060190E+03 0.  0.
          2    1    1    2  501    0  0.18045359200E+02  0.25368347511E+02 -0.10181883482E+04  0.10186641745E+04  0.00000000000E+00 0. -1.
          1    1    1    2  502    0 -0.85593285682E+02  0.70563299942E+02  0.17680112198E+04  0.17714878106E+04  0.00000000000E+00 0. -1.
         22    1    3    3    0    0 -0.12308854460E+02  0.22577914592E+02  0.25589959767E+02  0.36278315373E+02  0.00000000000E+00 0. -1.
         22    1    3    3    0    0  0.79856780942E+02 -0.11850956204E+03  0.54497428205E+02  0.15294309870E+03  0.00000000000E+00 0. -1.
</event>
<event>
 7    1  0.6681656E-006  0.6986011E+02  0.7818608E-02  0.1415977E+00
          2   -1    0    0  502    0  0.00000000000E+00  0.00000000000E+00  0.85566106355E+03  0.85566106355E+03  0.00000000000E+00 0. -1.
          1   -1    0    0  501    0 -0.00000000000E+00 -0.00000000000E+00 -0.65755027107E+03  0.65755027107E+03  0.00000000000E+00 0. -1.
         25    2    1    2    0    0 -0.55752904821E+02  0.47111574729E+01 -0.23444758240E+03  0.27150751666E+03  0.12498032369E+03 0.  0.
          2    1    1    2  501    0  0.62931198777E+02  0.39408003357E+02 -0.40056165548E+03  0.40738552545E+03  0.00000000000E+00 0. -1.
          1    1    1    2  502    0 -0.71782939565E+01 -0.44119160830E+02  0.83312003035E+03  0.83431829252E+03  0.00000000000E+00 0. -1.
         22    1    3    3    0    0 -0.80134218134E+02  0.12773497067E+02 -0.76615968970E+02  0.11160045629E+03  0.00000000000E+00 0.  1.
         22    1    3    3    0    0  0.24381313313E+02 -0.80623395936E+01 -0.15783161343E+03  0.15990706037E+03  0.00000000000E+00 0.  1.
</event>
<event>
 7    1  0.6681656E-006  0.1448059E+03  0.7818608E-02  0.1273428E+00
          2   -1    0    0  502    0  0.00000000000E+00  0.00000000000E+00  0.44991547605E+03  0.44991547605E+03  0.00000000000E+00 0. -1.
          1   -1    0    0  501    0 -0.00000000000E+00 -0.00000000000E+00 -0.40595037188E+03  0.40595037188E+03  0.00000000000E+00 0. -1.
         25    2    1    2    0    0  0.33930276011E+02  0.82086871721E+02 -0.11043412523E+02  0.15374159714E+03  0.12500001437E+03 0.  0.
          2    1    1    2  501    0 -0.80450789039E+02 -0.13930886365E+03 -0.29953040895E+03  0.33999669827E+03  0.00000000000E+00 0. -1.
          1    1    1    2  502    0  0.46520513028E+02  0.57221991933E+02  0.35453892564E+03  0.36212755251E+03  0.00000000000E+00 0. -1.
         22    1    3    3    0    0  0.63333053277E+02  0.54636478104E+02  0.36675274487E+02  0.91330696569E+02  0.00000000000E+00 0. -1.
         22    1    3    3    0    0 -0.29402777266E+02  0.27450393618E+02 -0.47718687010E+02  0.62410900576E+02  0.00000000000E+00 0. -1.
</event>
<event>
 7    1  0.6681656E-006  0.2334250E+03  0.7818608E-02  0.1259581E+00
          2   -1    0    0  502    0  0.00000000000E+00  0.00000000000E+00  0.21575410859E+04  0.21575410859E+04  0.00000000000E+00 0. -1.
          1   -1    0    0  501    0 -0.00000000000E+00 -0.00000000000E+00 -0.73220162883E+03  0.73220162883E+03  0.00000000000E+00 0. -1.
         25    2    1    2    0    0 -0.16562722170E+03 -0.13118028174E+03 -0.75457262415E+02  0.25682607665E+03  0.12500076924E+03 0.  0.
          2    1    1    2  501    0  0.21369423015E+03  0.11045925046E+03 -0.54015256504E+03  0.59129625699E+03  0.00000000000E+00 0. -1.
          1    1    1    2  502    0 -0.48067008443E+02  0.20721031280E+02  0.20409492845E+04  0.20416203811E+04  0.00000000000E+00 0. -1.
         22    1    3    3    0    0 -0.12277519057E+03 -0.14995017721E+03 -0.80331595273E+02  0.20979029592E+03  0.00000000000E+00 0. -1.
         22    1    3    3    0    0 -0.42852031132E+02  0.18769895465E+02  0.48743328571E+01  0.47035780728E+02  0.00000000000E+00 0. -1.
</event>
<event>
 7    1  0.6681656E-006  0.8630153E+02  0.7818608E-02  0.1453975E+00
          2   -1    0    0  502    0  0.00000000000E+00  0.00000000000E+00  0.30456713280E+04  0.30456713280E+04  0.00000000000E+00 0. -1.
          1   -1    0    0  501    0 -0.00000000000E+00 -0.00000000000E+00 -0.15838154959E+03  0.15838154959E+03  0.00000000000E+00 0. -1.
         25    2    1    2    0    0  0.44786229417E+02 -0.96972655025E+02  0.27748706586E+04  0.27797376537E+04  0.12499899654E+03 0.  0.
          2    1    1    2  501    0 -0.49942265346E+02  0.70283841810E+02 -0.14325478226E+03  0.16720042143E+03  0.00000000000E+00 0. -1.
          1    1    1    2  502    0  0.51560359290E+01  0.26688813215E+02  0.25567390210E+03  0.25711480252E+03  0.00000000000E+00 0. -1.
         22    1    3    3    0    0 -0.16470984346E+02  0.11948449320E+02  0.10555475507E+03  0.10749820968E+03  0.00000000000E+00 0.  1.
         22    1    3    3    0    0  0.61257213763E+02 -0.10892110435E+03  0.26693159035E+04  0.26722394440E+04  0.00000000000E+00 0.  1.
</event>
<event>
 7    1  0.6681656E-006  0.4835266E+02  0.7818608E-02  0.1548331E+00
          2   -1    0    0  502    0  0.00000000000E+00  0.00000000000E+00  0.46553708442E+03  0.46553708442E+03  0.00000000000E+00 0. -1.
          1   -1    0    0  501    0 -0.00000000000E+00 -0.00000000000E+00 -0.12778242155E+03  0.12778242155E+03  0.00000000000E+00 0. -1.
         25    2    1    2    0    0  0.65089804957E+02  0.47186304377E+01  0.10862547371E+03  0.17799938273E+03  0.12500135412E+03 0.  0.
          2    1    1    2  501    0 -0.46182657967E+02  0.12210685543E+02 -0.86424337451E+02  0.98747682718E+02  0.00000000000E+00 0. -1.
          1    1    1    2  502    0 -0.18907146990E+02 -0.16929315980E+02  0.31555352661E+03  0.31657244053E+03  0.00000000000E+00 0. -1.
         22    1    3    3    0    0 -0.13174071276E+02  0.16823199122E+01  0.98073911791E+02  0.98969078647E+02  0.00000000000E+00 0.  1.
         22    1    3    3    0    0  0.78263876233E+02  0.30363105255E+01  0.10551561920E+02  0.79030304084E+02  0.00000000000E+00 0.  1.
</event>
<event>
 7    1  0.6681656E-006  0.4501107E+02  0.7818608E-02  0.1510039E+00
          2   -1    0    0  502    0  0.00000000000E+00  0.00000000000E+00  0.14486934934E+03  0.14486934934E+03  0.00000000000E+00 0. -1.
          1   -1    0    0  501    0 -0.00000000000E+00 -0.00000000000E+00 -0.78723877998E+03  0.78723877998E+03  0.00000000000E+00 0. -1.
         25    2    1    2    0    0  0.35888733362E+02 -0.19463060098E+02 -0.10728795250E+03  0.16969946997E+03  0.12498157250E+03 0.  0.
          2    1    1    2  501    0 -0.24883794503E+02 -0.24767213268E+02 -0.64367813011E+03  0.64463489920E+03  0.00000000000E+00 0. -1.
          1    1    1    2  502    0 -0.11004938859E+02  0.44230273366E+02  0.10859665197E+03  0.11777376015E+03  0.00000000000E+00 0. -1.
         22    1    3    3    0    0  0.27574746473E+02  0.48877063460E+02 -0.74969526635E+02  0.93647017568E+02  0.00000000000E+00 0.  1.
         22    1    3    3    0    0  0.83139868885E+01 -0.68340123558E+02 -0.32318425863E+02  0.76052452401E+02  0.00000000000E+00 0.  1.
</event>
<event>
 7    1  0.6681656E-006  0.5250006E+02  0.7818608E-02  0.1567893E+00
          2   -1    0    0  502    0  0.00000000000E+00  0.00000000000E+00  0.60438193786E+03  0.60438193786E+03  0.00000000000E+00 0. -1.
          1   -1    0    0  501    0 -0.00000000000E+00 -0.00000000000E+00 -0.23010675202E+03  0.23010675202E+03  0.00000000000E+00 0. -1.
         25    2    1    2    0    0 -0.18660565190E+02 -0.28579942801E+02  0.41611642099E+02  0.13609544772E+03  0.12500164922E+03 0.  0.
          2    1    1    2  501    0  0.36606673516E+02  0.38778789574E+02 -0.17876432038E+03  0.18654898903E+03  0.00000000000E+00 0. -1.
          1    1    1    2  502    0 -0.17946108326E+02 -0.10198846773E+02  0.51142786411E+03  0.51184425314E+03  0.00000000000E+00 0. -1.
         22    1    3    3    0    0  0.43854782645E+02 -0.96809585067E+01 -0.17313495555E+02  0.48132318111E+02  0.00000000000E+00 0. -1.
         22    1    3    3    0    0 -0.62515347835E+02 -0.18898984294E+02  0.58925137654E+02  0.87963129605E+02  0.00000000000E+00 0. -1.
</event>
<event>
 7    1  0.6681656E-006  0.5646280E+02  0.7818608E-02  0.1429574E+00
          2   -1    0    0  502    0  0.00000000000E+00  0.00000000000E+00  0.10686744663E+04  0.10686744663E+04  0.00000000000E+00 0. -1.
          1   -1    0    0  501    0 -0.00000000000E+00 -0.00000000000E+00 -0.14720307539E+03  0.14720307539E+03  0.00000000000E+00 0. -1.
         25    2    1    2    0    0  0.93713450218E+02 -0.38629167063E+02  0.53000754137E+03  0.55390261089E+03  0.12500274052E+03 0.  0.
          2    1    1    2  501    0 -0.44981447948E+02  0.21452838917E+02 -0.12934280250E+03  0.13861138307E+03  0.00000000000E+00 0. -1.
          1    1    1    2  502    0 -0.48732002270E+02  0.17176328146E+02  0.52080665207E+03  0.52336354777E+03  0.00000000000E+00 0. -1.
         22    1    3    3    0    0  0.31833808502E+02 -0.37182143745E+02  0.45045598668E+03  0.45310760213E+03  0.00000000000E+00 0.  1.
         22    1    3    3    0    0  0.61879641716E+02 -0.14470233181E+01  0.79551554693E+02  0.10079500875E+03  0.00000000000E+00 0.  1.
</event>
<event>
 7    1  0.6681656E-006  0.1021357E+03  0.7818608E-02  0.1278338E+00
          2   -1    0    0  502    0  0.00000000000E+00  0.00000000000E+00  0.12696913874E+04  0.12696913874E+04  0.00000000000E+00 0. -1.
          1   -1    0    0  501    0 -0.00000000000E+00 -0.00000000000E+00 -0.26707098123E+03  0.26707098123E+03  0.00000000000E+00 0. -1.
         25    2    1    2    0    0  0.24754204058E+02 -0.12470377936E+02  0.24259632749E+03  0.27431099832E+03  0.12500105899E+03 0.  0.
          2    1    1    2  501    0 -0.78340240816E+02 -0.71666507823E+02 -0.23739475998E+03  0.26005682791E+03  0.00000000000E+00 0. -1.
          1    1    1    2  502    0  0.53586036758E+02  0.84136885759E+02  0.99741883866E+03  0.10023945424E+04  0.00000000000E+00 0. -1.
         22    1    3    3    0    0 -0.40865932587E+02  0.13065744517E+02  0.35874529351E+02  0.55926022406E+02  0.00000000000E+00 0. -1.
         22    1    3    3    0    0  0.65620136645E+02 -0.25536122453E+02  0.20672179813E+03  0.21838497592E+03  0.00000000000E+00 0. -1.
</event>
<event>
 7    1  0.6681656E-006  0.3461216E+03  0.7818608E-02  0.1246025E+00
          2   -1    0    0  502    0  0.00000000000E+00  0.00000000000E+00  0.15606287665E+04  0.15606287665E+04  0.00000000000E+00 0. -1.
          1   -1    0    0  501    0 -0.00000000000E+00 -0.00000000000E+00 -0.31440167770E+03  0.31440167770E+03  0.00000000000E+00 0. -1.
         25    2    1    2    0    0  0.20752422997E+01  0.33912846342E+03  0.56666484114E+03  0.67212062679E+03  0.12499869376E+03 0.  0.
          2    1    1    2  501    0 -0.42004932463E+02 -0.34523560073E+03 -0.14540484769E+03  0.37695437933E+03  0.00000000000E+00 0. -1.
          1    1    1    2  502    0  0.39929690164E+02  0.61071373110E+01  0.82496709537E+03  0.82595543810E+03  0.00000000000E+00 0. -1.
         22    1    3    3    0    0 -0.77784437831E+01  0.33157750656E+03  0.47334637294E+03  0.57798004795E+03  0.00000000000E+00 0. -1.
         22    1    3    3    0    0  0.98536860828E+01  0.75509568603E+01  0.93318468196E+02  0.94140578845E+02  0.00000000000E+00 0. -1.
</event>
<event>
 7    1  0.6681656E-006  0.1600477E+03  0.7818608E-02  0.1236372E+00
          2   -1    0    0  502    0  0.00000000000E+00  0.00000000000E+00  0.63047717655E+03  0.63047717655E+03  0.00000000000E+00 0. -1.
          1   -1    0    0  501    0 -0.00000000000E+00 -0.00000000000E+00 -0.10230998792E+04  0.10230998792E+04  0.00000000000E+00 0. -1.
         25    2    1    2    0    0 -0.13908427763E+03 -0.61468720434E+02  0.10378272329E+03  0.22250127931E+03  0.12495249404E+03 0.  0.
          2    1    1    2  501    0  0.51361430390E+02 -0.81500759927E+02 -0.94616457123E+03  0.95105613202E+03  0.00000000000E+00 0. -1.
          1    1    1    2  502    0  0.87722847236E+02  0.14296948036E+03  0.44975914530E+03  0.48001964441E+03  0.00000000000E+00 0. -1.
         22    1    3    3    0    0 -0.12100054405E+03 -0.63605959589E+02  0.21685992761E+02  0.13840929173E+03  0.00000000000E+00 0. -1.
         22    1    3    3    0    0 -0.18083733578E+02  0.21372391547E+01  0.82096730534E+02  0.84091987583E+02  0.00000000000E+00 0. -1.
</event>
<event>
 7    1  0.6681656E-006  0.2090758E+03  0.7818608E-02  0.1163974E+00
          2   -1    0    0  502    0  0.00000000000E+00  0.00000000000E+00  0.18567845660E+03  0.18567845660E+03  0.00000000000E+00 0. -1.
          1   -1    0    0  501    0 -0.00000000000E+00 -0.00000000000E+00 -0.14161135914E+04  0.14161135914E+04  0.00000000000E+00 0. -1.
         25    2    1    2    0    0 -0.52107504694E+01 -0.87726453115E+02 -0.11248375667E+03  0.18973824677E+03  0.12499969709E+03 0.  0.
          2    1    1    2  501    0 -0.82384916088E+01  0.24912216874E+03 -0.12033973206E+04  0.12289405352E+04  0.00000000000E+00 0. -1.
          1    1    1    2  502    0  0.13449242078E+02 -0.16139571562E+03  0.85445942472E+02  0.18311326609E+03  0.00000000000E+00 0. -1.
         22    1    3    3    0    0  0.24003479404E+02  0.19653282257E+02 -0.58131226775E+02  0.65891259310E+02  0.00000000000E+00 0. -1.
         22    1    3    3    0    0 -0.29214229874E+02 -0.10737973537E+03 -0.54352529898E+02  0.12384698746E+03  0.00000000000E+00 0. -1.
</event>
<event>
 7    1  0.6681656E-006  0.1040864E+03  0.7818608E-02  0.1363657E+00
          2   -1    0    0  502    0  0.00000000000E+00  0.00000000000E+00  0.23819629952E+04  0.23819629952E+04  0.00000000000E+00 0. -1.
          1   -1    0    0  501    0 -0.00000000000E+00 -0.00000000000E+00 -0.22650765684E+03  0.22650765684E+03  0.00000000000E+00 0. -1.
         25    2    1    2    0    0  0.10211111507E+03 -0.27069114131E+02  0.31001869239E+03  0.35056394778E+03  0.12499630031E+03 0.  0.
          2    1    1    2  501    0 -0.21917417257E+02 -0.40091108716E+02 -0.20235294657E+03  0.20744730695E+03  0.00000000000E+00 0. -1.
          1    1    1    2  502    0 -0.80193697809E+02  0.67160222847E+02  0.20477895926E+04  0.20504593973E+04  0.00000000000E+00 0. -1.
         22    1    3    3    0    0  0.41865573102E+02 -0.75285052071E+02  0.15205841304E+03  0.17476362966E+03  0.00000000000E+00 0. -1.
         22    1    3    3    0    0  0.60245541965E+02  0.48215937939E+02  0.15796027935E+03  0.17580031812E+03  0.00000000000E+00 0. -1.
</event>
<event>
 7    1  0.6681656E-006  0.3459878E+02  0.7818608E-02  0.1587535E+00
          2   -1    0    0  502    0  0.00000000000E+00  0.00000000000E+00  0.14760896844E+03  0.14760896844E+03  0.00000000000E+00 0. -1.
          1   -1    0    0  501    0 -0.00000000000E+00 -0.00000000000E+00 -0.50855184116E+03  0.50855184116E+03  0.00000000000E+00 0. -1.
         25    2    1    2    0    0  0.41241922554E+02 -0.40033025159E+02 -0.25314584627E+02  0.13988979447E+03  0.12499914849E+03 0.  0.
          2    1    1    2  501    0 -0.10640260506E+02  0.25611820137E+02 -0.42231109933E+03  0.42322079946E+03  0.00000000000E+00 0. -1.
          1    1    1    2  502    0 -0.30601662048E+02  0.14421205022E+02  0.86682811234E+02  0.93050215679E+02  0.00000000000E+00 0. -1.
         22    1    3    3    0    0 -0.43489754241E+02 -0.27564473209E+02 -0.40698293264E+01  0.51649999206E+02  0.00000000000E+00 0. -1.
         22    1    3    3    0    0  0.84731676795E+02 -0.12468551949E+02 -0.21244755301E+02  0.88239795262E+02  0.00000000000E+00 0. -1.
</event>
<event>
 7    1  0.6681656E-006  0.9443175E+02  0.7818608E-02  0.1324038E+00
          2   -1    0    0  502    0  0.00000000000E+00  0.00000000000E+00  0.16393685244E+04  0.16393685244E+04  0.00000000000E+00 0. -1.
          1   -1    0    0  501    0 -0.00000000000E+00 -0.00000000000E+00 -0.86422152017E+03  0.86422152017E+03  0.00000000000E+00 0. -1.
         25    2    1    2    0    0  0.12101938223E+02 -0.46328620673E+02  0.85896231064E+02  0.15904690509E+03  0.12499983003E+03 0.  0.
          2    1    1    2  501    0  0.48872490807E+02  0.82402502880E+02 -0.82404214272E+03  0.82959275902E+03  0.00000000000E+00 0. -1.
          1    1    1    2  502    0 -0.60974429030E+02 -0.36073882207E+02  0.15132929158E+04  0.15149503804E+04  0.00000000000E+00 0. -1.
         22    1    3    3    0    0  0.41455498986E+02 -0.21627049767E+02  0.10591289400E+03  0.11577490572E+03  0.00000000000E+00 0.  1.
         22    1    3    3    0    0 -0.29353560764E+02 -0.24701570906E+02 -0.20016662939E+02  0.43271999375E+02  0.00000000000E+00 0.  1.
</event>
<event>
 7    1  0.6681656E-006  0.2824050E+03  0.7818608E-02  0.1221640E+00
          2   -1    0    0  502    0  0.00000000000E+00  0.00000000000E+00  0.25605332363E+03  0.25605332363E+03  0.00000000000E+00 0. -1.
          1   -1    0    0  501    0 -0.00000000000E+00 -0.00000000000E+00 -0.10846944326E+04  0.10846944326E+04  0.00000000000E+00 0. -1.
         25    2    1    2    0    0 -0.11514589972E+03  0.23721252707E+03 -0.14336170730E+02  0.29216209392E+03  0.12499920844E+03 0.  0.
          2    1    1    2  501    0  0.66698320520E+02 -0.27838751241E+03 -0.89854547030E+03  0.94304413217E+03  0.00000000000E+00 0. -1.
          1    1    1    2  502    0  0.48447579200E+02  0.41174985343E+02  0.84240532044E+02  0.10554153015E+03  0.00000000000E+00 0. -1.
         22    1    3    3    0    0 -0.11313149690E+03  0.19513302821E+03 -0.56535731332E+02  0.23253370338E+03  0.00000000000E+00 0.  1.
         22    1    3    3    0    0 -0.20144028156E+01  0.42079498856E+02  0.42199560603E+02  0.59628390534E+02  0.00000000000E+00 0.  1.
</event>
<event>
 7    1  0.6681656E-006  0.9416795E+02  0.7818608E-02  0.1397553E+00
          2   -1    0    0  502    0  0.00000000000E+00  0.00000000000E+00  0.10606706247E+04  0.10606706247E+04  0.00000000000E+00 0. -1.
          1   -1    0    0  501    0 -0.00000000000E+00 -0.00000000000E+00 -0.39944764626E+02  0.39944764626E+02  0.00000000000E+00 0. -1.
         25    2    1    2    0    0  0.79806229330E+02  0.52745647987E+02  0.34534068866E+03  0.37952107831E+03  0.12499968004E+03 0.  0.
          2    1    1    2  501    0 -0.27471367374E+02  0.26707689257E+02 -0.72688770654E+00  0.38321078489E+02  0.00000000000E+00 0. -1.
          1    1    1    2  502    0 -0.52334861956E+02 -0.79453337244E+02  0.67611205914E+03  0.68277323255E+03  0.00000000000E+00 0. -1.
         22    1    3    3    0    0  0.98224909454E+02  0.47412838738E+02  0.34333298909E+03  0.36024110192E+03  0.00000000000E+00 0.  1.
         22    1    3    3    0    0 -0.18418680124E+02  0.53328092495E+01  0.20076995753E+01  0.19279976389E+02  0.00000000000E+00 0.  1.
</event>
<event>
 7    1  0.6681656E-006  0.5399818E+02  0.7818608E-02  0.1428582E+00
          2   -1    0    0  502    0  0.00000000000E+00  0.00000000000E+00  0.44569817189E+03  0.44569817189E+03  0.00000000000E+00 0. -1.
          1   -1    0    0  501    0 -0.00000000000E+00 -0.00000000000E+00 -0.38675841229E+03  0.38675841229E+03  0.00000000000E+00 0. -1.
         25    2    1    2    0    0 -0.10564497073E+02 -0.32563836841E+01 -0.39625402529E+01  0.12554874944E+03  0.12499829650E+03 0.  0.
          2    1    1    2  501    0  0.65508247885E+01  0.55606273361E+02 -0.31775319431E+03  0.32264851377E+03  0.00000000000E+00 0. -1.
          1    1    1    2  502    0  0.40136722848E+01 -0.52349889677E+02  0.38065549416E+03  0.38425932097E+03  0.00000000000E+00 0. -1.
         22    1    3    3    0    0  0.49331226260E+01  0.59873190577E+02 -0.69462236244E+01  0.60476314962E+02  0.00000000000E+00 0.  1.
         22    1    3    3    0    0 -0.15497619699E+02 -0.63129574261E+02  0.29836833715E+01  0.65072434481E+02  0.00000000000E+00 0.  1.
</event>
<event>
 7    1  0.6681656E-006  0.4093098E+02  0.7818608E-02  0.1568371E+00
          2   -1    0    0  502    0  0.00000000000E+00  0.00000000000E+00  0.13117076274E+04  0.13117076274E+04  0.00000000000E+00 0. -1.
          1   -1    0    0  501    0 -0.00000000000E+00 -0.00000000000E+00 -0.17057915158E+03  0.17057915158E+03  0.00000000000E+00 0. -1.
         25    2    1    2    0    0  0.41558679355E+02  0.44963000621E+02  0.80848866645E+03  0.82038266196E+03  0.12499997203E+03 0.  0.
          2    1    1    2  501    0 -0.36125057891E+02 -0.19131640404E+02 -0.16173707641E+03  0.16682302407E+03  0.00000000000E+00 0. -1.
          1    1    1    2  502    0 -0.54336214637E+01 -0.25831360217E+02  0.49437688574E+03  0.49508109292E+03  0.00000000000E+00 0. -1.
         22    1    3    3    0    0  0.79976773642E+02  0.41675904879E+02  0.39812975902E+03  0.40821620544E+03  0.00000000000E+00 0.  1.
         22    1    3    3    0    0 -0.38418094287E+02  0.32870957417E+01  0.41035890743E+03  0.41216645651E+03  0.00000000000E+00 0.  1.
</event>
<event>
 7    1  0.6681656E-006  0.4970930E+02  0.7818608E-02  0.1502639E+00
          2   -1    0    0  502    0  0.00000000000E+00  0.00000000000E+00  0.42461157659E+03  0.42461157659E+03  0.00000000000E+00 0. -1.
          1   -1    0    0  501    0 -0.00000000000E+00 -0.00000000000E+00 -0.40367938377E+03  0.40367938377E+03  0.00000000000E+00 0. -1.
         25    2    1    2    0    0 -0.13922478595E+02  0.79827663018E+02 -0.56375937340E+02  0.15927025104E+03  0.12498990104E+03 0.  0.
          2    1    1    2  501    0  0.14195177948E+02 -0.46394853173E+02 -0.29310917815E+03  0.29709758631E+03  0.00000000000E+00 0. -1.
          1    1    1    2  502    0 -0.27269935291E+00 -0.33432809845E+02  0.37041730830E+03  0.37192312301E+03  0.00000000000E+00 0. -1.
         22    1    3    3    0    0  0.32057969417E+02  0.94812652229E+02 -0.31752387721E+02  0.10500174547E+03  0.00000000000E+00 0. -1.
         22    1    3    3    0    0 -0.45980448012E+02 -0.14984989211E+02 -0.24623549619E+02  0.54268505571E+02  0.00000000000E+00 0. -1.
</event>
<event>
 7    1  0.6681656E-006  0.8753246E+02  0.7818608E-02  0.1363479E+00
          2   -1    0    0  502    0  0.00000000000E+00  0.00000000000E+00  0.18948227080E+03  0.18948227080E+03  0.00000000000E+00 0. -1.
          1   -1    0    0  501    0 -0.00000000000E+00 -0.00000000000E+00 -0.39861210322E+03  0.39861210322E+03  0.00000000000E+00 0. -1.
         25    2    1    2    0    0 -0.26011192216E+02  0.31172479365E+02 -0.84844459113E+01  0.13170190530E+03  0.12500040179E+03 0.  0.
          2    1    1    2  501    0  0.75399523419E+02 -0.54010826015E+02 -0.31574159865E+03  0.32908207878E+03  0.00000000000E+00 0. -1.
          1    1    1    2  502    0 -0.49388331203E+02  0.22838346650E+02  0.11509621214E+03  0.12731038994E+03  0.00000000000E+00 0. -1.
         22    1    3    3    0    0 -0.64546877697E+02 -0.86237996038E+01 -0.30728732014E+02  0.72006418542E+02  0.00000000000E+00 0. -1.
         22    1    3    3    0    0  0.38535685482E+02  0.39796278968E+02  0.22244286102E+02  0.59695486760E+02  0.00000000000E+00 0. -1.
</event>
<event>
 7    1  0.6681656E-006  0.1088909E+03  0.7818608E-02  0.1416197E+00
          2   -1    0    0  502    0  0.00000000000E+00  0.00000000000E+00  0.36216178972E+03  0.36216178972E+03  0.00000000000E+00 0. -1.
          1   -1    0    0  501    0 -0.00000000000E+00 -0.00000000000E+00 -0.35054832845E+03  0.35054832845E+03  0.00000000000E+00 0. -1.
         25    2    1    2    0    0  0.12055676265E+03  0.53989115146E+01 -0.22958451210E+02  0.17525872872E+03  0.12500180096E+03 0.  0.
          2    1    1    2  501    0 -0.14351453302E+02 -0.24771541928E+02 -0.24037256935E+03  0.24207140599E+03  0.00000000000E+00 0. -1.
          1    1    1    2  502    0 -0.10620530935E+03  0.19372630413E+02  0.27494448182E+03  0.29537998346E+03  0.00000000000E+00 0. -1.
         22    1    3    3    0    0 -0.12540903717E+01 -0.31732118633E+02  0.23710683674E+02  0.39632015036E+02  0.00000000000E+00 0. -1.
         22    1    3    3    0    0  0.12181085302E+03  0.37131030147E+02 -0.46669134884E+02  0.13562671369E+03  0.00000000000E+00 0. -1.
</event>
<event>
 7    1  0.6681656E-006  0.1102260E+03  0.7818608E-02  0.1278000E+00
          2   -1    0    0  502    0  0.00000000000E+00  0.00000000000E+00  0.15011753611E+04  0.15011753611E+04  0.00000000000E+00 0. -1.
          1   -1    0    0  501    0 -0.00000000000E+00 -0.00000000000E+00 -0.28420319850E+03  0.28420319850E+03  0.00000000000E+00 0. -1.
         25    2    1    2    0    0 -0.13933519066E+02 -0.37223818170E+02  0.34119338208E+03  0.36555722221E+03  0.12505759930E+03 0.  0.
          2    1    1    2  501    0 -0.96112459693E+02  0.53964540358E+02 -0.25801656225E+03  0.28057498627E+03  0.00000000000E+00 0. -1.
          1    1    1    2  502    0  0.11004597876E+03 -0.16740722189E+02  0.11337953428E+04  0.11392463511E+04  0.00000000000E+00 0. -1.
         22    1    3    3    0    0  0.37150791219E+02 -0.62080281755E+02  0.22253949564E+03  0.23400420892E+03  0.00000000000E+00 0. -1.
         22    1    3    3    0    0 -0.51084310285E+02  0.24856463586E+02  0.11865388644E+03  0.13155301329E+03  0.00000000000E+00 0. -1.
</event>
<event>
 7    1  0.6681656E-006  0.1533909E+03  0.7818608E-02  0.1277537E+00
          2   -1    0    0  502    0  0.00000000000E+00  0.00000000000E+00  0.17439634470E+03  0.17439634470E+03  0.00000000000E+00 0. -1.
          1   -1    0    0  501    0 -0.00000000000E+00 -0.00000000000E+00 -0.64452157887E+03  0.64452157887E+03  0.00000000000E+00 0. -1.
         25    2    1    2    0    0 -0.14668632595E+03 -0.14823114713E+03 -0.18521883226E+03  0.30564918594E+03  0.12500423130E+03 0.  0.
          2    1    1    2  501    0  0.38013637098E+02  0.55087409119E+02 -0.34977944336E+03  0.35612542488E+03  0.00000000000E+00 0. -1.
          1    1    1    2  502    0  0.10867268885E+03  0.93143738006E+02  0.64873041462E+02  0.15714331275E+03  0.00000000000E+00 0. -1.
         22    1    3    3    0    0 -0.57411512723E+02 -0.13148100354E+03 -0.15178482354E+03  0.20885872915E+03  0.00000000000E+00 0.  1.
         22    1    3    3    0    0 -0.89274813229E+02 -0.16750143588E+02 -0.33434008724E+02  0.96790456796E+02  0.00000000000E+00 0.  1.
</event>
<event>
 7    1  0.6681656E-006  0.9879535E+02  0.7818608E-02  0.1348573E+00
          2   -1    0    0  502    0  0.00000000000E+00  0.00000000000E+00  0.82258848241E+03  0.82258848241E+03  0.00000000000E+00 0. -1.
          1   -1    0    0  501    0 -0.00000000000E+00 -0.00000000000E+00 -0.31652156533E+04  0.31652156533E+04  0.00000000000E+00 0. -1.
         25    2    1    2    0    0  0.66355802185E+02 -0.39816741620E+02 -0.13107935337E+03  0.19696726069E+03  0.12500335799E+03 0.  0.
          2    1    1    2  501    0 -0.43658406518E+02  0.89568117611E+02 -0.29994172994E+04  0.30010719152E+04  0.00000000000E+00 0. -1.
          1    1    1    2  502    0 -0.22697395667E+02 -0.49751375991E+02  0.78786948192E+03  0.78976495979E+03  0.00000000000E+00 0. -1.
         22    1    3    3    0    0  0.17455005127E+02 -0.67227676552E+01  0.24347155480E+02  0.30702716312E+02  0.00000000000E+00 0. -1.
         22    1    3    3    0    0  0.48900797058E+02 -0.33093973965E+02 -0.15542650885E+03  0.16626454438E+03  0.00000000000E+00 0. -1.
</event>
<event>
 7    1  0.6681656E-006  0.4871624E+03  0.7818608E-02  0.1054200E+00
          2   -1    0    0  502    0  0.00000000000E+00  0.00000000000E+00  0.13471770480E+04  0.13471770480E+04  0.00000000000E+00 0. -1.
          1   -1    0    0  501    0 -0.00000000000E+00 -0.00000000000E+00 -0.12605642039E+04  0.12605642039E+04  0.00000000000E+00 0. -1.
         25    2    1    2    0    0 -0.50088593769E+03 -0.27146472957E+03  0.32544906338E+03  0.66792301209E+03  0.12499694092E+03 0.  0.
          2    1    1    2  501    0  0.25563999590E+03  0.41265107972E+03 -0.10087922858E+04  0.11195064078E+04  0.00000000000E+00 0. -1.
          1    1    1    2  502    0  0.24524594179E+03 -0.14118635015E+03  0.76995606649E+03  0.82031183202E+03  0.00000000000E+00 0. -1.
         22    1    3    3    0    0 -0.11663142566E+02  0.12547437416E+02  0.53352239332E+01  0.17942455090E+02  0.00000000000E+00 0.  1.
         22    1    3    3    0    0 -0.48922279512E+03 -0.28401216699E+03  0.32011383945E+03  0.64998055700E+03  0.00000000000E+00 0.  1.
</event>
<event>
 7    1  0.6681656E-006  0.8399541E+02  0.7818608E-02  0.1324016E+00
          2   -1    0    0  502    0  0.00000000000E+00  0.00000000000E+00  0.98421317458E+03  0.98421317458E+03  0.00000000000E+00 0. -1.
          1   -1    0    0  501    0 -0.00000000000E+00 -0.00000000000E+00 -0.36927070789E+02  0.36927070789E+02  0.00000000000E+00 0. -1.
         25    2    1    2    0    0 -0.54547837253E+02  0.27600138880E+02  0.36821404261E+03  0.39362927507E+03  0.12500076320E+03 0.  0.
          2    1    1    2  501    0  0.12519709588E+01 -0.92521477513E+02  0.82758910031E+02  0.12414035775E+03  0.00000000000E+00 0. -1.
          1    1    1    2  502    0  0.53295866294E+02  0.64921338633E+02  0.49631315115E+03  0.50337061255E+03  0.00000000000E+00 0. -1.
         22    1    3    3    0    0 -0.49264031757E+02  0.75082642270E+02  0.21096397761E+03  0.22928180880E+03  0.00000000000E+00 0.  1.
         22    1    3    3    0    0 -0.52838054960E+01 -0.47482503390E+02  0.15725006499E+03  0.16434746627E+03  0.00000000000E+00 0.  1.
</event>
<event>
 7    1  0.6681656E-006  0.6573595E+02  0.7818608E-02  0.1416630E+00
          2   -1    0    0  502    0  0.00000000000E+00  0.00000000000E+00  0.16533593239E+03  0.16533593239E+03  0.00000000000E+00 0. -1.
          1   -1    0    0  501    0 -0.00000000000E+00 -0.00000000000E+00 -0.39763252360E+03  0.39763252360E+03  0.00000000000E+00 0. -1.
         25    2    1    2    0    0 -0.10521221374E+03  0.31822075577E+02  0.92764437540E+02  0.19055690972E+03  0.12499776221E+03 0.  0.
          2    1    1    2  501    0  0.58051924741E+02 -0.28684071238E+02 -0.31811633213E+03  0.32463949648E+03  0.00000000000E+00 0. -1.
          1    1    1    2  502    0  0.47160288996E+02 -0.31380043384E+01 -0.69446966196E+01  0.47772049784E+02  0.00000000000E+00 0. -1.
         22    1    3    3    0    0 -0.64699686093E+02 -0.41188758378E+02  0.18700889257E+02  0.78944831726E+02  0.00000000000E+00 0.  1.
         22    1    3    3    0    0 -0.40512527644E+02  0.73010833955E+02  0.74063548283E+02  0.11161207800E+03  0.00000000000E+00 0.  1.
</event>
<event>
 7    1  0.6681656E-006  0.8649017E+02  0.7818608E-02  0.1363697E+00
          2   -1    0    0  502    0  0.00000000000E+00  0.00000000000E+00  0.18860534293E+04  0.18860534293E+04  0.00000000000E+00 0. -1.
          1   -1    0    0  501    0 -0.00000000000E+00 -0.00000000000E+00 -0.65236624157E+03  0.65236624157E+03  0.00000000000E+00 0. -1.
         25    2    1    2    0    0  0.11384348195E+03 -0.41978602365E+02 -0.13744233136E+03  0.22190089264E+03  0.12500828079E+03 0.  0.
          2    1    1    2  501    0 -0.61196003711E+02  0.57783704818E+02 -0.46853429585E+03  0.47603392085E+03  0.00000000000E+00 0. -1.
          1    1    1    2  502    0 -0.52647478242E+02 -0.15805102453E+02  0.18396638150E+04  0.18404848574E+04  0.00000000000E+00 0. -1.
         22    1    3    3    0    0  0.57889436319E+02  0.16973403759E+02  0.21558643802E+01  0.60364981767E+02  0.00000000000E+00 0.  1.
         22    1    3    3    0    0  0.55954045634E+02 -0.58952006124E+02 -0.13959819574E+03  0.16153591088E+03  0.00000000000E+00 0.  1.
</event>
<event>
 7    1  0.6681656E-006  0.3490649E+02  0.7818608E-02  0.1554341E+00
          2   -1    0    0  502    0  0.00000000000E+00  0.00000000000E+00  0.31386081568E+03  0.31386081568E+03  0.00000000000E+00 0. -1.
          1   -1    0    0  501    0 -0.00000000000E+00 -0.00000000000E+00 -0.10760169592E+03  0.10760169592E+03  0.00000000000E+00 0. -1.
         25    2    1    2    0    0  0.24403316097E+02 -0.66936979658E+01  0.52161372950E+01  0.12764124734E+03  0.12499901002E+03 0.  0.
          2    1    1    2  501    0 -0.84655617176E+01  0.36529625945E+02 -0.37417800002E+02  0.52973305200E+02  0.00000000000E+00 0. -1.
          1    1    1    2  502    0 -0.15937754380E+02 -0.29835927979E+02  0.23846078246E+03  0.24084795906E+03  0.00000000000E+00 0. -1.
         22    1    3    3    0    0  0.20073981196E+02 -0.48046535843E+02  0.45940935453E+02  0.69440650039E+02  0.00000000000E+00 0.  1.
         22    1    3    3    0    0  0.43293349013E+01  0.41352837877E+02 -0.40724798158E+02  0.58200597301E+02  0.00000000000E+00 0.  1.
</event>
<event>
 7    1  0.6681656E-006  0.3223817E+02  0.7818608E-02  0.1628137E+00
          2   -1    0    0  502    0  0.00000000000E+00  0.00000000000E+00  0.19796195717E+03  0.19796195717E+03  0.00000000000E+00 0. -1.
          1   -1    0    0  501    0 -0.00000000000E+00 -0.00000000000E+00 -0.61412933893E+03  0.61412933893E+03  0.00000000000E+00 0. -1.
         25    2    1    2    0    0  0.13003208060E+02  0.12434649746E+02  0.12408208997E+03  0.17704549888E+03  0.12500015876E+03 0.  0.
          2    1    1    2  501    0 -0.67558316718E+00 -0.32288942094E+02 -0.58429361587E+03  0.58518549345E+03  0.00000000000E+00 0. -1.
          1    1    1    2  502    0 -0.12327624893E+02  0.19854292348E+02  0.44044144140E+02  0.49860303781E+02  0.00000000000E+00 0. -1.
         22    1    3    3    0    0 -0.13891013440E+02 -0.32144838444E+02 -0.72584471118E+01  0.35762213962E+02  0.00000000000E+00 0. -1.
         22    1    3    3    0    0  0.26894221500E+02  0.44579488190E+02  0.13134053708E+03  0.14128328492E+03  0.00000000000E+00 0. -1.
</event>
<event>
 7    1  0.6681656E-006  0.5395959E+02  0.7818608E-02  0.1430325E+00
          2   -1    0    0  502    0  0.00000000000E+00  0.00000000000E+00  0.14204783297E+03  0.14204783297E+03  0.00000000000E+00 0. -1.
          1   -1    0    0  501    0 -0.00000000000E+00 -0.00000000000E+00 -0.13063935586E+03  0.13063935586E+03  0.00000000000E+00 0. -1.
         25    2    1    2    0    0  0.29686085701E+02 -0.26194647988E+01 -0.49853148876E+02  0.13783587690E+03  0.12500106891E+03 0.  0.
          2    1    1    2  501    0  0.41830792064E+01  0.53797205218E+02  0.47656002293E+02  0.71991193874E+02  0.00000000000E+00 0. -1.
          1    1    1    2  502    0 -0.33869164908E+02 -0.51177740419E+02  0.13605623691E+02  0.62860118056E+02  0.00000000000E+00 0. -1.
         22    1    3    3    0    0 -0.15414457578E+01 -0.60171639287E+02 -0.95400402039E+01  0.60942715698E+02  0.00000000000E+00 0.  1.
         22    1    3    3    0    0  0.31227531459E+02  0.57552174489E+02 -0.40313108672E+02  0.76893161206E+02  0.00000000000E+00 0.  1.
</event>
<event>
 7    1  0.6681656E-006  0.1657233E+03  0.7818608E-02  0.1210896E+00
          2   -1    0    0  502    0  0.00000000000E+00  0.00000000000E+00  0.25825409797E+04  0.25825409797E+04  0.00000000000E+00 0. -1.
          1   -1    0    0  501    0 -0.00000000000E+00 -0.00000000000E+00 -0.99119930413E+03  0.99119930413E+03  0.00000000000E+00 0. -1.
         25    2    1    2    0    0 -0.12559114732E+03  0.10614508782E+03 -0.10808053919E+03  0.23312201861E+03  0.12499822661E+03 0.  0.
          2    1    1    2  501    0 -0.40654322848E+02 -0.11435946871E+03 -0.81334165961E+03  0.82234756478E+03  0.00000000000E+00 0. -1.
          1    1    1    2  502    0  0.16624547016E+03  0.82143808876E+01  0.25127638744E+04  0.25182707005E+04  0.00000000000E+00 0. -1.
         22    1    3    3    0    0 -0.13112702723E+03  0.85988451380E+02 -0.12937066349E+03  0.20328570932E+03  0.00000000000E+00 0. -1.
         22    1    3    3    0    0  0.55358799172E+01  0.20156636441E+02  0.21290124302E+02  0.29836309287E+02  0.00000000000E+00 0. -1.
</event>
<event>
 7    1  0.6681656E-006  0.1508019E+03  0.7818608E-02  0.1282495E+00
          2   -1    0    0  502    0  0.00000000000E+00  0.00000000000E+00  0.52067655277E+03  0.52067655277E+03  0.00000000000E+00 0. -1.
          1   -1    0    0  501    0 -0.00000000000E+00 -0.00000000000E+00 -0.69592789044E+03  0.69592789044E+03  0.00000000000E+00 0. -1.
         25    2    1    2    0    0 -0.99022455021E+02 -0.41833587452E+01 -0.70560002452E+00  0.15952284488E+03  0.12499637227E+03 0.  0.
          2    1    1    2  501    0 -0.57912175441E+02 -0.29387836591E+02 -0.59940980398E+03  0.60291755499E+03  0.00000000000E+00 0. -1.
          1    1    1    2  502    0  0.15693463046E+03  0.33571195336E+02  0.42486406633E+03  0.45416404333E+03  0.00000000000E+00 0. -1.
         22    1    3    3    0    0  0.18996069170E+02  0.14609482699E+02 -0.28086607379E+02  0.36920795532E+02  0.00000000000E+00 0. -1.
         22    1    3    3    0    0 -0.11801852419E+03 -0.18792841444E+02  0.27381007354E+02  0.12260204935E+03  0.00000000000E+00 0. -1.
</event>
<event>
 7    1  0.6681656E-006  0.4726459E+02  0.7818608E-02  0.1542492E+00
          2   -1    0    0  502    0  0.00000000000E+00  0.00000000000E+00  0.21904180034E+03  0.21904180034E+03  0.00000000000E+00 0. -1.
          1   -1    0    0  501    0 -0.00000000000E+00 -0.00000000000E+00 -0.16423317544E+03  0.16423317544E+03  0.00000000000E+00 0. -1.
         25    2    1    2    0    0 -0.38451444960E+02 -0.60734808527E+02  0.11075595540E+02  0.14461467475E+03  0.12499401886E+03 0.  0.
          2    1    1    2  501    0  0.92449578268E+01  0.25326682869E+02 -0.91741653086E+02  0.95621341872E+02  0.00000000000E+00 0. -1.
          1    1    1    2  502    0  0.29206487133E+02  0.35408125658E+02  0.13547468244E+03  0.14303895915E+03  0.00000000000E+00 0. -1.
         22    1    3    3    0    0 -0.31278816242E+02 -0.49971260200E+02 -0.52982918706E+02  0.79263363959E+02  0.00000000000E+00 0. -1.
         22    1    3    3    0    0 -0.71726287176E+01 -0.10763548327E+02  0.64058514246E+02  0.65351310796E+02  0.00000000000E+00 0. -1.
</event>
<event>
 7    1  0.6681656E-006  0.7103542E+02  0.7818608E-02  0.1411258E+00
          2   -1    0    0  502    0  0.00000000000E+00  0.00000000000E+00  0.94059310329E+03  0.94059310329E+03  0.00000000000E+00 0. -1.
          1   -1    0    0  501    0 -0.00000000000E+00 -0.00000000000E+00 -0.69540312422E+03  0.69540312422E+03  0.00000000000E+00 0. -1.
         25    2    1    2    0    0 -0.88069465330E+01  0.73216795484E+02 -0.41136364940E+03  0.43621478151E+03  0.12500008846E+03 0.  0.
          2    1    1    2  501    0  0.50326874893E+02 -0.54363059131E+02 -0.26598885578E+03  0.27611267253E+03  0.00000000000E+00 0. -1.
          1    1    1    2  502    0 -0.41519928360E+02 -0.18853736353E+02  0.92254248425E+03  0.92366877346E+03  0.00000000000E+00 0. -1.
         22    1    3    3    0    0 -0.23299535457E+02  0.10091155180E+03 -0.23088289828E+03  0.25304727297E+03  0.00000000000E+00 0. -1.
         22    1    3    3    0    0  0.14492588925E+02 -0.27694756317E+02 -0.18048075111E+03  0.18316750854E+03  0.00000000000E+00 0. -1.
</event>
<event>
 7    1  0.6681656E-006  0.2593110E+03  0.7818608E-02  0.1220046E+00
          2   -1    0    0  502    0  0.00000000000E+00  0.00000000000E+00  0.37440916858E+03  0.37440916858E+03  0.00000000000E+00 0. -1.
          1   -1    0    0  501    0 -0.00000000000E+00 -0.00000000000E+00 -0.82708443472E+03  0.82708443472E+03  0.00000000000E+00 0. -1.
         25    2    1    2    0    0  0.16823873241E+03 -0.15967536839E+03  0.10599541836E+03  0.28401121884E+03  0.12500739721E+03 0.  0.
          2    1    1    2  501    0  0.65366447480E+02 -0.26169875699E+02 -0.61046286337E+03  0.61451000187E+03  0.00000000000E+00 0. -1.
          1    1    1    2  502    0 -0.23360517989E+03  0.18584524409E+03  0.51792178864E+02  0.30297238260E+03  0.00000000000E+00 0. -1.
         22    1    3    3    0    0  0.17854591736E+03 -0.10401962638E+03  0.88249307743E+02  0.22469238437E+03  0.00000000000E+00 0. -1.
         22    1    3    3    0    0 -0.10307184945E+02 -0.55655742008E+02  0.17746110620E+02  0.59318834464E+02  0.00000000000E+00 0. -1.
</event>
<event>
 7    1  0.6681656E-006  0.1448646E+03  0.7818608E-02  0.1281930E+00
          2   -1    0    0  502    0  0.00000000000E+00  0.00000000000E+00  0.13462465335E+04  0.13462465335E+04  0.00000000000E+00 0. -1.
          1   -1    0    0  501    0 -0.00000000000E+00 -0.00000000000E+00 -0.32582561627E+03  0.32582561627E+03  0.00000000000E+00 0. -1.
         25    2    1    2    0    0 -0.70418028426E+02  0.62364186623E+02  0.19076330772E+03  0.24670722411E+03  0.12500329739E+03 0.  0.
          2    1    1    2  501    0 -0.16815970688E+02  0.65853761029E+02 -0.28855421170E+03  0.29645071732E+03  0.00000000000E+00 0. -1.
          1    1    1    2  502    0  0.87233999113E+02 -0.12821794765E+03  0.11182118212E+04  0.11289142083E+04  0.00000000000E+00 0. -1.
         22    1    3    3    0    0  0.26625685795E+02  0.44542087603E+02  0.99907749373E+02  0.11258100682E+03  0.00000000000E+00 0.  1.
         22    1    3    3    0    0 -0.97043714221E+02  0.17822099021E+02  0.90855558342E+02  0.13412621729E+03  0.00000000000E+00 0.  1.
</event>
<event>
 7    1  0.6681656E-006  0.2033021E+03  0.7818608E-02  0.1253728E+00
          2   -1    0    0  502    0  0.00000000000E+00  0.00000000000E+00  0.20285770453E+03  0.20285770453E+03  0.00000000000E+00 0. -1.
          1   -1    0    0  501    0 -0.00000000000E+00 -0.00000000000E+00 -0.73893923385E+03  0.73893923385E+03  0.00000000000E+00 0. -1.
         25    2    1    2    0    0  0.98126074183E+02 -0.12372239852E+03 -0.23186397704E+03  0.30711910801E+03  0.12500113730E+03 0.  0.
          2    1    1    2  501    0  0.58911755079E+02 -0.24168280234E+02 -0.39539232496E+03  0.40048694273E+03  0.00000000000E+00 0. -1.
          1    1    1    2  502    0 -0.15703782926E+03  0.14789067875E+03  0.91174772688E+02  0.23419088764E+03  0.00000000000E+00 0. -1.
         22    1    3    3    0    0  0.88391826454E+02 -0.13956266815E+03 -0.23599809839E+03  0.28807283067E+03  0.00000000000E+00 0.  1.
         22    1    3    3    0    0  0.97342477287E+01  0.15840269637E+02  0.41341213525E+01  0.19046277337E+02  0.00000000000E+00 0.  1.
</event>
<event>
 7    1  0.6681656E-006  0.4679712E+02  0.7818608E-02  0.1479535E+00
          2   -1    0    0  502    0  0.00000000000E+00  0.00000000000E+00  0.13981965588E+03  0.13981965588E+03  0.00000000000E+00 0. -1.
          1   -1    0    0  501    0 -0.00000000000E+00 -0.00000000000E+00 -0.19139017235E+03  0.19139017235E+03  0.00000000000E+00 0. -1.
         25    2    1    2    0    0  0.27752989029E+02  0.26837061562E+02  0.12634871443E+02  0.13146882765E+03  0.12503582044E+03 0.  0.
          2    1    1    2  501    0 -0.47348793025E+02  0.99794351467E+01 -0.12040023198E+03  0.12976021419E+03  0.00000000000E+00 0. -1.
          1    1    1    2  502    0  0.19595803997E+02 -0.36816496709E+02  0.56194844063E+02  0.69980786388E+02  0.00000000000E+00 0. -1.
         22    1    3    3    0    0 -0.45143382385E+02  0.22975219164E+02 -0.15901314324E+02  0.53090841640E+02  0.00000000000E+00 0.  1.
         22    1    3    3    0    0  0.72896371414E+02  0.38618423982E+01  0.28536185767E+02  0.78377986005E+02  0.00000000000E+00 0.  1.
</event>
<event>
 7    1  0.6681656E-006  0.4938496E+02  0.7818608E-02  0.1477501E+00
          2   -1    0    0  502    0  0.00000000000E+00  0.00000000000E+00  0.20662037955E+04  0.20662037955E+04  0.00000000000E+00 0. -1.
          1   -1    0    0  501    0 -0.00000000000E+00 -0.00000000000E+00 -0.60844439172E+02  0.60844439172E+02  0.00000000000E+00 0. -1.
         25    2    1    2    0    0  0.85621094582E+02 -0.11111181247E+00  0.64940036047E+03  0.66684104381E+03  0.12500066139E+03 0.  0.
          2    1    1    2  501    0 -0.38884451482E+02 -0.97758607463E+01 -0.43945643424E+02  0.59487709624E+02  0.00000000000E+00 0. -1.
          1    1    1    2  502    0 -0.46736643100E+02  0.98869725588E+01  0.13999046393E+04  0.14007194813E+04  0.00000000000E+00 0. -1.
         22    1    3    3    0    0  0.93537958075E+02 -0.44947732306E+02  0.39537910917E+03  0.40877168225E+03  0.00000000000E+00 0.  1.
         22    1    3    3    0    0 -0.79168634927E+01  0.44836620494E+02  0.25402125130E+03  0.25806936157E+03  0.00000000000E+00 0.  1.
</event>
<event>
 7    1  0.6681656E-006  0.1471287E+03  0.7818608E-02  0.1235475E+00
          2   -1    0    0  502    0  0.00000000000E+00  0.00000000000E+00  0.13719906974E+04  0.13719906974E+04  0.00000000000E+00 0. -1.
          1   -1    0    0  501    0 -0.00000000000E+00 -0.00000000000E+00 -0.14118656846E+04  0.14118656846E+04  0.00000000000E+00 0. -1.
         25    2    1    2    0    0 -0.17087417649E+02 -0.23408123975E+03 -0.34979266893E+03  0.43939277892E+03  0.12500038514E+03 0.  0.
          2    1    1    2  501    0 -0.23652932857E+02  0.13648323632E+03 -0.10104333537E+04  0.10198836685E+04  0.00000000000E+00 0. -1.
          1    1    1    2  502    0  0.40740350506E+02  0.97598003431E+02  0.13203510354E+04  0.13245799346E+04  0.00000000000E+00 0. -1.
         22    1    3    3    0    0  0.46729946015E+02 -0.41875245210E+02 -0.70179818529E+02  0.94140485153E+02  0.00000000000E+00 0. -1.
         22    1    3    3    0    0 -0.63817363665E+02 -0.19220599454E+03 -0.27961285040E+03  0.34525229377E+03  0.00000000000E+00 0. -1.
</event>
<event>
 7    1  0.6681656E-006  0.2855480E+02  0.7818608E-02  0.1628351E+00
          2   -1    0    0  502    0  0.00000000000E+00  0.00000000000E+00  0.73025750115E+02  0.73025750115E+02  0.00000000000E+00 0. -1.
          1   -1    0    0  501    0 -0.00000000000E+00 -0.00000000000E+00 -0.16147614794E+03  0.16147614794E+03  0.00000000000E+00 0. -1.
         25    2    1    2    0    0  0.40218586940E+02  0.18554414913E+02 -0.38056077755E+02  0.13797644766E+03  0.12500973565E+03 0.  0.
          2    1    1    2  501    0 -0.25874166008E+02  0.49954932619E+01 -0.61415161276E+02  0.66830004145E+02  0.00000000000E+00 0. -1.
          1    1    1    2  502    0 -0.14344420932E+02 -0.23549908175E+02  0.11020841206E+02  0.29695446247E+02  0.00000000000E+00 0. -1.
         22    1    3    3    0    0  0.25144401918E+02  0.66981561751E+02  0.46159181183E+01  0.71694332150E+02  0.00000000000E+00 0.  1.
         22    1    3    3    0    0  0.15074185022E+02 -0.48427146838E+02 -0.42671995873E+02  0.66282115512E+02  0.00000000000E+00 0.  1.
</event>
<event>
 7    1  0.6681656E-006  0.1537309E+03  0.7818608E-02  0.1217283E+00
          2   -1    0    0  502    0  0.00000000000E+00  0.00000000000E+00  0.16618219112E+04  0.16618219112E+04  0.00000000000E+00 0. -1.
          1   -1    0    0  501    0 -0.00000000000E+00 -0.00000000000E+00 -0.40766664155E+03  0.40766664155E+03  0.00000000000E+00 0. -1.
         25    2    1    2    0    0 -0.16485737963E+03 -0.19236513878E+03  0.14984295676E+03  0.31978414940E+03  0.12500675294E+03 0.  0.
          2    1    1    2  501    0  0.11018339419E+03  0.53008114302E+02 -0.30701139972E+03  0.33046367439E+03  0.00000000000E+00 0. -1.
          1    1    1    2  502    0  0.54673985447E+02  0.13935702448E+03  0.14113237126E+04  0.14192407289E+04  0.00000000000E+00 0. -1.
         22    1    3    3    0    0 -0.15798434663E+02 -0.78718414708E+01 -0.21032519447E+02  0.27457663780E+02  0.00000000000E+00 0. -1.
         22    1    3    3    0    0 -0.14905894497E+03 -0.18449329731E+03  0.17087547621E+03  0.29232648562E+03  0.00000000000E+00 0. -1.
</event>
<event>
 7    1  0.6681656E-006  0.1196587E+03  0.7818608E-02  0.1316473E+00
          2   -1    0    0  502    0  0.00000000000E+00  0.00000000000E+00  0.35357936873E+03  0.35357936873E+03  0.00000000000E+00 0. -1.
          1   -1    0    0  501    0 -0.00000000000E+00 -0.00000000000E+00 -0.13352952380E+04  0.13352952380E+04  0.00000000000E+00 0. -1.
         25    2    1    2    0    0  0.80286952837E+02  0.15559994725E+03 -0.19674629104E+03  0.29153277178E+03  0.12499966242E+03 0.  0.
          2    1    1    2  501    0 -0.37641193634E+02 -0.46489854701E+02 -0.10790916340E+04  0.10807483151E+04  0.00000000000E+00 0. -1.
          1    1    1    2  502    0 -0.42645759203E+02 -0.10911009255E+03  0.29412205580E+03  0.31659351980E+03  0.00000000000E+00 0. -1.
         22    1    3    3    0    0 -0.26629872754E+02  0.78650101090E+02 -0.84449113245E+02  0.11843412199E+03  0.00000000000E+00 0.  1.
         22    1    3    3    0    0  0.10691682559E+03  0.76949846161E+02 -0.11229717779E+03  0.17309864979E+03  0.00000000000E+00 0.  1.
</event>
<event>
 7    1  0.6681656E-006  0.2542487E+02  0.7818608E-02  0.1679326E+00
          2   -1    0    0  502    0  0.00000000000E+00  0.00000000000E+00  0.10480010218E+04  0.10480010218E+04  0.00000000000E+00 0. -1.
          1   -1    0    0  501    0 -0.00000000000E+00 -0.00000000000E+00 -0.19877736101E+03  0.19877736101E+03  0.00000000000E+00 0. -1.
         25    2    1    2    0    0 -0.10108492199E+02 -0.23737096460E+02  0.11249322130E+03  0.17013254201E+03  0.12499890259E+03 0.  0.
          2    1    1    2  501    0 -0.14437841588E+02  0.16893587343E+02 -0.16905132134E+03  0.17050570022E+03  0.00000000000E+00 0. -1.
          1    1    1    2  502    0  0.24546333787E+02  0.68435091166E+01  0.90578176078E+03  0.90614014053E+03  0.00000000000E+00 0. -1.
         22    1    3    3    0    0  0.42027655288E+02 -0.10787130857E+02 -0.22377520410E+01  0.43447595277E+02  0.00000000000E+00 0.  1.
         22    1    3    3    0    0 -0.52136147487E+02 -0.12949965603E+02  0.11473097334E+03  0.12668494673E+03  0.00000000000E+00 0.  1.
</event>
<event>
 7    1  0.6681656E-006  0.2440619E+03  0.7818608E-02  0.1220178E+00
          2   -1    0    0  502    0  0.00000000000E+00  0.00000000000E+00  0.40047233265E+03  0.40047233265E+03  0.00000000000E+00 0. -1.
          1   -1    0    0  501    0 -0.00000000000E+00 -0.00000000000E+00 -0.14754650111E+04  0.14754650111E+04  0.00000000000E+00 0. -1.
         25    2    1    2    0    0 -0.67682561193E+02 -0.19971222571E+03 -0.29634025606E+03  0.38458714019E+03  0.12499527531E+03 0.  0.
          2    1    1    2  501    0  0.18687344469E+02  0.25610845679E+03 -0.11163420555E+04  0.11454956758E+04  0.00000000000E+00 0. -1.
          1    1    1    2  502    0  0.48995216724E+02 -0.56396231086E+02  0.33768963303E+03  0.34585452780E+03  0.00000000000E+00 0. -1.
         22    1    3    3    0    0  0.21057985951E+02 -0.92357740159E+02 -0.66152711090E+02  0.11554034847E+03  0.00000000000E+00 0.  1.
         22    1    3    3    0    0 -0.88740547144E+02 -0.10735448555E+03 -0.23018754497E+03  0.26904679172E+03  0.00000000000E+00 0.  1.
</event>
<event>
 7    1  0.6681656E-006  0.3750218E+02  0.7818608E-02  0.1578296E+00
          2   -1    0    0  502    0  0.00000000000E+00  0.00000000000E+00  0.10582555076E+04  0.10582555076E+04  0.00000000000E+00 0. -1.
          1   -1    0    0  501    0 -0.00000000000E+00 -0.00000000000E+00 -0.28505452421E+03  0.28505452421E+03  0.00000000000E+00 0. -1.
         25    2    1    2    0    0 -0.12965286736E+02 -0.62505732834E+02 -0.24521841902E+02  0.14247643563E+03  0.12499259451E+03 0.  0.
          2    1    1    2  501    0  0.75449212425E+01  0.35970609269E+02 -0.19969455872E+03  0.20304858372E+03  0.00000000000E+00 0. -1.
          1    1    1    2  502    0  0.54203654932E+01  0.26535123566E+02  0.99741738399E+03  0.99778501243E+03  0.00000000000E+00 0. -1.
         22    1    3    3    0    0  0.55266688511E+02 -0.15352082595E+02 -0.81419027762E+01  0.57934306588E+02  0.00000000000E+00 0. -1.
         22    1    3    3    0    0 -0.68231975247E+02 -0.47153650240E+02 -0.16379939125E+02  0.84542129041E+02  0.00000000000E+00 0. -1.
</event>
<event>
 7    1  0.6681656E-006  0.8246405E+02  0.7818608E-02  0.1322802E+00
          2   -1    0    0  502    0  0.00000000000E+00  0.00000000000E+00  0.26223767185E+03  0.26223767185E+03  0.00000000000E+00 0. -1.
          1   -1    0    0  501    0 -0.00000000000E+00 -0.00000000000E+00 -0.44340567596E+03  0.44340567596E+03  0.00000000000E+00 0. -1.
         25    2    1    2    0    0  0.28029461396E+02  0.17637032955E+02 -0.17718794779E+03  0.21935549913E+03  0.12499820206E+03 0.  0.
          2    1    1    2  501    0 -0.10027950925E+03 -0.56467669553E+02 -0.22380367847E+03  0.25165981836E+03  0.00000000000E+00 0. -1.
          1    1    1    2  502    0  0.72250047853E+02  0.38830636598E+02  0.21982362215E+03  0.23462803031E+03  0.00000000000E+00 0. -1.
         22    1    3    3    0    0  0.54905722378E+02 -0.75607564975E+01 -0.21630883021E+02  0.59495365273E+02  0.00000000000E+00 0. -1.
         22    1    3    3    0    0 -0.26876260982E+02  0.25197789453E+02 -0.15555706477E+03  0.15986013386E+03  0.00000000000E+00 0. -1.
</event>
<event>
 7    1  0.6681656E-006  0.7487715E+03  0.7818608E-02  0.1138370E+00
          2   -1    0    0  502    0  0.00000000000E+00  0.00000000000E+00  0.19764054898E+04  0.19764054898E+04  0.00000000000E+00 0. -1.
          1   -1    0    0  501    0 -0.00000000000E+00 -0.00000000000E+00 -0.13412989716E+04  0.13412989716E+04  0.00000000000E+00 0. -1.
         25    2    1    2    0    0 -0.10877494985E+03 -0.78515715292E+03 -0.27016228696E+02  0.80290628810E+03  0.12499954544E+03 0.  0.
          2    1    1    2  501    0  0.11077836472E+03  0.72397863490E+03 -0.78081918105E+03  0.10705585007E+04  0.00000000000E+00 0. -1.
          1    1    1    2  502    0 -0.20034148705E+01  0.61178518023E+02  0.14429419279E+04  0.14442396726E+04  0.00000000000E+00 0. -1.
         22    1    3    3    0    0 -0.46528467347E+02 -0.44735529860E+03  0.44786154241E+02  0.45199276662E+03  0.00000000000E+00 0. -1.
         22    1    3    3    0    0 -0.62246482506E+02 -0.33780185432E+03 -0.71802382937E+02  0.35091352148E+03  0.00000000000E+00 0. -1.
</event>
<event>
 7    1  0.6681656E-006  0.1819246E+03  0.7818608E-02  0.1383307E+00
          2   -1    0    0  502    0  0.00000000000E+00  0.00000000000E+00  0.55256486461E+03  0.55256486461E+03  0.00000000000E+00 0. -1.
          1   -1    0    0  501    0 -0.00000000000E+00 -0.00000000000E+00 -0.21916086549E+04  0.21916086549E+04  0.00000000000E+00 0. -1.
         25    2    1    2    0    0  0.14671133259E+02  0.15968035365E+03 -0.11948487205E+04  0.12120239390E+04  0.12500202476E+03 0.  0.
          2    1    1    2  501    0 -0.24084701614E+01  0.22105202946E+02 -0.97278539065E+03  0.97303949405E+03  0.00000000000E+00 0. -1.
          1    1    1    2  502    0 -0.12262663097E+02 -0.18178555660E+03  0.52859032088E+03  0.55911008649E+03  0.00000000000E+00 0. -1.
         22    1    3    3    0    0  0.25663025722E+02  0.14941476385E+02 -0.56021792051E+03  0.56100441804E+03  0.00000000000E+00 0.  1.
         22    1    3    3    0    0 -0.10991892463E+02  0.14473887727E+03 -0.63463080002E+03  0.65101952093E+03  0.00000000000E+00 0.  1.
</event>
<event>
 7    1  0.6681656E-006  0.6366795E+02  0.7818608E-02  0.1423589E+00
          2   -1    0    0  502    0  0.00000000000E+00  0.00000000000E+00  0.14557448908E+04  0.14557448908E+04  0.00000000000E+00 0. -1.
          1   -1    0    0  501    0 -0.00000000000E+00 -0.00000000000E+00 -0.11301669612E+03  0.11301669612E+03  0.00000000000E+00 0. -1.
         25    2    1    2    0    0 -0.55874356032E+02  0.51824606658E+02  0.22971796357E+03  0.27240324500E+03  0.12500180632E+03 0.  0.
          2    1    1    2  501    0  0.44932156112E+02  0.10992162639E+02 -0.84936569198E+02  0.96715805738E+02  0.00000000000E+00 0. -1.
          1    1    1    2  502    0  0.10942199920E+02 -0.62816769298E+02  0.11979468003E+04  0.11996425361E+04  0.00000000000E+00 0. -1.
         22    1    3    3    0    0 -0.37447173250E+02 -0.23149547563E+02  0.16767334398E+03  0.17335669187E+03  0.00000000000E+00 0.  1.
         22    1    3    3    0    0 -0.18427182782E+02  0.74974154222E+02  0.62044619593E+02  0.99046553130E+02  0.00000000000E+00 0.  1.
</event>
<event>
 7    1  0.6681656E-006  0.5605307E+02  0.7818608E-02  0.1460337E+00
          2   -1    0    0  502    0  0.00000000000E+00  0.00000000000E+00  0.74530858817E+01  0.74530858817E+01  0.00000000000E+00 0. -1.
          1   -1    0    0  501    0 -0.00000000000E+00 -0.00000000000E+00 -0.24460116397E+04  0.24460116397E+04  0.00000000000E+00 0. -1.
         25    2    1    2    0    0  0.57174904165E+02  0.64212098123E+02 -0.95864158617E+03  0.97057262274E+03  0.12500144822E+03 0.  0.
          2    1    1    2  501    0 -0.20314174918E+02 -0.48799337626E+02 -0.95132065022E+03  0.95278802501E+03  0.00000000000E+00 0. -1.
          1    1    1    2  502    0 -0.36860729246E+02 -0.15412760498E+02 -0.52859631742E+03  0.53010407783E+03  0.00000000000E+00 0. -1.
         22    1    3    3    0    0  0.80507812899E+02 -0.25517457838E+01 -0.54726542568E+03  0.55316133767E+03  0.00000000000E+00 0. -1.
         22    1    3    3    0    0 -0.23332908735E+02  0.66763843907E+02 -0.41137616049E+03  0.41741128507E+03  0.00000000000E+00 0. -1.
</event>
<event>
 7    1  0.6681656E-006  0.8620946E+02  0.7818608E-02  0.1315502E+00
          2   -1    0    0  502    0  0.00000000000E+00  0.00000000000E+00  0.51841887339E+03  0.51841887339E+03  0.00000000000E+00 0. -1.
          1   -1    0    0  501    0 -0.00000000000E+00 -0.00000000000E+00 -0.14503178231E+03  0.14503178231E+03  0.00000000000E+00 0. -1.
         25    2    1    2    0    0  0.34653912326E+02 -0.36689654796E+02  0.34434348167E+03  0.36978913433E+03  0.12499818436E+03 0.  0.
          2    1    1    2  501    0 -0.83624801801E+02 -0.31256769396E+02 -0.10361824215E+03  0.13677292574E+03  0.00000000000E+00 0. -1.
          1    1    1    2  502    0  0.48970889475E+02  0.67946424192E+02  0.13266185157E+03  0.15688859563E+03  0.00000000000E+00 0. -1.
         22    1    3    3    0    0 -0.87289990647E+01 -0.70868070003E+02  0.25450782767E+03  0.26433447205E+03  0.00000000000E+00 0.  1.
         22    1    3    3    0    0  0.43382911391E+02  0.34178415206E+02  0.89835653996E+02  0.10545466228E+03  0.00000000000E+00 0.  1.
</event>
<event>
 7    1  0.6681656E-006  0.4734916E+02  0.7818608E-02  0.1480352E+00
          2   -1    0    0  502    0  0.00000000000E+00  0.00000000000E+00  0.21795287586E+04  0.21795287586E+04  0.00000000000E+00 0. -1.
          1   -1    0    0  501    0 -0.00000000000E+00 -0.00000000000E+00 -0.16530056797E+02  0.16530056797E+02  0.00000000000E+00 0. -1.
         25    2    1    2    0    0  0.50502908378E+01 -0.49301958671E+02  0.56985009243E+03  0.58549910583E+03  0.12499554600E+03 0.  0.
          2    1    1    2  501    0  0.34530403839E+02  0.22074419750E+02  0.42053307209E+02  0.58720604934E+02  0.00000000000E+00 0. -1.
          1    1    1    2  502    0 -0.39580694677E+02  0.27227538921E+02  0.15510953021E+04  0.15518391046E+04  0.00000000000E+00 0. -1.
         22    1    3    3    0    0  0.60770023387E+01 -0.70846027678E+02  0.55446459503E+03  0.55900543534E+03  0.00000000000E+00 0. -1.
         22    1    3    3    0    0 -0.10267115008E+01  0.21544069007E+02  0.15385497396E+02  0.26493670489E+02  0.00000000000E+00 0. -1.
</event>
<event>
 7    1  0.6681656E-006  0.5484049E+02  0.7818608E-02  0.1427904E+00
          2   -1    0    0  502    0  0.00000000000E+00  0.00000000000E+00  0.20792818542E+04  0.20792818542E+04  0.00000000000E+00 0. -1.
          1   -1    0    0  501    0 -0.00000000000E+00 -0.00000000000E+00 -0.85915875669E+03  0.85915875669E+03  0.00000000000E+00 0. -1.
         25    2    1    2    0    0  0.82124453425E+02  0.66650691406E+02  0.33460318067E+03  0.37251991200E+03  0.12500022324E+03 0.  0.
          2    1    1    2  501    0 -0.46521337774E+02 -0.28799608660E+02 -0.83891783583E+03  0.84070017700E+03  0.00000000000E+00 0. -1.
          1    1    1    2  502    0 -0.35603115651E+02 -0.37851082746E+02  0.17244377527E+04  0.17252205219E+04  0.00000000000E+00 0. -1.
         22    1    3    3    0    0  0.21076726196E+02  0.93603186850E+02  0.17610222834E+03  0.20054371045E+03  0.00000000000E+00 0. -1.
         22    1    3    3    0    0  0.61047727229E+02 -0.26952495444E+02  0.15850095233E+03  0.17197620155E+03  0.00000000000E+00 0. -1.
</event>
<event>
 7    1  0.6681656E-006  0.7155611E+02  0.7818608E-02  0.1481401E+00
          2   -1    0    0  502    0  0.00000000000E+00  0.00000000000E+00  0.64041859179E+02  0.64041859179E+02  0.00000000000E+00 0. -1.
          1   -1    0    0  501    0 -0.00000000000E+00 -0.00000000000E+00 -0.26252767348E+03  0.26252767348E+03  0.00000000000E+00 0. -1.
         25    2    1    2    0    0 -0.75866078779E+02 -0.35751635372E+02 -0.75678054994E+02  0.16848103353E+03  0.12499939724E+03 0.  0.
          2    1    1    2  501    0  0.51313193158E+02  0.46787160829E+02 -0.10473950293E+03  0.12566799785E+03  0.00000000000E+00 0. -1.
          1    1    1    2  502    0  0.24552885621E+02 -0.11035525457E+02 -0.18068256384E+02  0.32420501279E+02  0.00000000000E+00 0. -1.
         22    1    3    3    0    0 -0.54568359653E+02 -0.58000009052E+02  0.73026808380E+01  0.79968969436E+02  0.00000000000E+00 0. -1.
         22    1    3    3    0    0 -0.21297719126E+02  0.22248373680E+02 -0.82980735832E+02  0.88512064097E+02  0.00000000000E+00 0. -1.
</event>
<event>
 7    1  0.6681656E-006  0.2069857E+03  0.7818608E-02  0.1278560E+00
          2   -1    0    0  502    0  0.00000000000E+00  0.00000000000E+00  0.70186848297E+03  0.70186848297E+03  0.00000000000E+00 0. -1.
          1   -1    0    0  501    0 -0.00000000000E+00 -0.00000000000E+00 -0.39797495942E+03  0.39797495942E+03  0.00000000000E+00 0. -1.
         25    2    1    2    0    0 -0.19928042073E+03 -0.61031133108E+02 -0.17852654171E+03  0.30156369649E+03  0.12502580395E+03 0.  0.
          2    1    1    2  501    0  0.17949447665E+03  0.10598737967E+03 -0.87627634266E+02  0.22611986663E+03  0.00000000000E+00 0. -1.
          1    1    1    2  502    0  0.19785944076E+02 -0.44956246562E+02  0.57004769954E+03  0.57215987926E+03  0.00000000000E+00 0. -1.
         22    1    3    3    0    0 -0.12949198908E+03 -0.97188198685E+02 -0.99132900510E+02  0.18984481337E+03  0.00000000000E+00 0. -1.
         22    1    3    3    0    0 -0.69788431652E+02  0.36157065577E+02 -0.79393641205E+02  0.11171888313E+03  0.00000000000E+00 0. -1.
</event>
<event>
 7    1  0.6681656E-006  0.1582564E+03  0.7818608E-02  0.1241368E+00
          2   -1    0    0  502    0  0.00000000000E+00  0.00000000000E+00  0.32961184043E+04  0.32961184043E+04  0.00000000000E+00 0. -1.
          1   -1    0    0  501    0 -0.00000000000E+00 -0.00000000000E+00 -0.15711221639E+03  0.15711221639E+03  0.00000000000E+00 0. -1.
         25    2    1    2    0    0 -0.58876816902E+02 -0.44678976813E+02  0.73755708392E+03  0.75171671400E+03  0.12499950210E+03 0.  0.
          2    1    1    2  501    0  0.14832948259E+03  0.68605448570E+02 -0.10441787231E+03  0.19393667790E+03  0.00000000000E+00 0. -1.
          1    1    1    2  502    0 -0.89452665688E+02 -0.23926471757E+02  0.25058669763E+04  0.25075772288E+04  0.00000000000E+00 0. -1.
         22    1    3    3    0    0 -0.70521118584E+02 -0.42352323964E+02  0.23432989492E+03  0.24834944567E+03  0.00000000000E+00 0. -1.
         22    1    3    3    0    0  0.11644301682E+02 -0.23266528481E+01  0.50322718900E+03  0.50336726832E+03  0.00000000000E+00 0. -1.
</event>
<event>
 7    1  0.6681656E-006  0.3493308E+02  0.7818608E-02  0.1627980E+00
          2   -1    0    0  502    0  0.00000000000E+00  0.00000000000E+00  0.21973659026E+03  0.21973659026E+03  0.00000000000E+00 0. -1.
          1   -1    0    0  501    0 -0.00000000000E+00 -0.00000000000E+00 -0.69034361424E+03  0.69034361424E+03  0.00000000000E+00 0. -1.
         25    2    1    2    0    0  0.39884720247E+02  0.32983941721E+02  0.10895833420E+00  0.13529264143E+03  0.12500142252E+03 0.  0.
          2    1    1    2  501    0 -0.78655475833E+01 -0.20103030402E+02 -0.62060302934E+03  0.62097835606E+03  0.00000000000E+00 0. -1.
          1    1    1    2  502    0 -0.32019172664E+02 -0.12880911319E+02  0.14988704703E+03  0.15380920701E+03  0.00000000000E+00 0. -1.
         22    1    3    3    0    0 -0.19577099979E+02  0.39709996158E+02  0.42960674630E+02  0.61690892384E+02  0.00000000000E+00 0.  1.
         22    1    3    3    0    0  0.59461820226E+02 -0.67260544377E+01 -0.42851716295E+02  0.73601749044E+02  0.00000000000E+00 0.  1.
</event>
<event>
 7    1  0.6681656E-006  0.7770599E+02  0.7818608E-02  0.1343375E+00
          2   -1    0    0  502    0  0.00000000000E+00  0.00000000000E+00  0.10943123168E+04  0.10943123168E+04  0.00000000000E+00 0. -1.
          1   -1    0    0  501    0 -0.00000000000E+00 -0.00000000000E+00 -0.16584779586E+03  0.16584779586E+03  0.00000000000E+00 0. -1.
         25    2    1    2    0    0 -0.12147179561E+03  0.78687238224E+02  0.27473646808E+03  0.33474448602E+03  0.12500666160E+03 0.  0.
          2    1    1    2  501    0  0.70561742769E+02 -0.26791525369E+02 -0.12353104345E+03  0.14476416708E+03  0.00000000000E+00 0. -1.
          1    1    1    2  502    0  0.50910052842E+02 -0.51895712855E+02  0.77725909630E+03  0.78065145953E+03  0.00000000000E+00 0. -1.
         22    1    3    3    0    0 -0.13343649732E+02  0.38466733670E+02  0.45625822139E+01  0.40970229970E+02  0.00000000000E+00 0. -1.
         22    1    3    3    0    0 -0.10812814588E+03  0.40220504555E+02  0.27017388586E+03  0.29377425605E+03  0.00000000000E+00 0. -1.
</event>
<event>
 7    1  0.6681656E-006  0.9284554E+02  0.7818608E-02  0.1319433E+00
          2   -1    0    0  502    0  0.00000000000E+00  0.00000000000E+00  0.58136398598E+03  0.58136398598E+03  0.00000000000E+00 0. -1.
          1   -1    0    0  501    0 -0.00000000000E+00 -0.00000000000E+00 -0.14340341286E+03  0.14340341286E+03  0.00000000000E+00 0. -1.
         25    2    1    2    0    0  0.41602716256E+02  0.54884371328E+02  0.73587637098E+02  0.16056699311E+03  0.12499415478E+03 0.  0.
          2    1    1    2  501    0 -0.62572925579E+02  0.41482712875E+02 -0.79592582404E+02  0.10941282218E+03  0.00000000000E+00 0. -1.
          1    1    1    2  502    0  0.20970209322E+02 -0.96367084203E+02  0.44396551843E+03  0.45478758355E+03  0.00000000000E+00 0. -1.
         22    1    3    3    0    0 -0.53629235619E+01 -0.11713469670E+02  0.77902219927E+02  0.78960257031E+02  0.00000000000E+00 0.  1.
         22    1    3    3    0    0  0.46965639818E+02  0.66597840998E+02 -0.43145828290E+01  0.81606736083E+02  0.00000000000E+00 0.  1.
</event>
<event>
 7    1  0.6681656E-006  0.6122944E+02  0.7818608E-02  0.1436708E+00
          2   -1    0    0  502    0  0.00000000000E+00  0.00000000000E+00  0.60859569091E+03  0.60859569091E+03  0.00000000000E+00 0. -1.
          1   -1    0    0  501    0 -0.00000000000E+00 -0.00000000000E+00 -0.86581185118E+02  0.86581185118E+02  0.00000000000E+00 0. -1.
         25    2    1    2    0    0 -0.21125834839E+02  0.56633387778E+01  0.24769777356E+03  0.27830855793E+03  0.12499236811E+03 0.  0.
          2    1    1    2  501    0  0.63218770692E+02  0.54957905206E+01 -0.55430733818E+02  0.84257836033E+02  0.00000000000E+00 0. -1.
          1    1    1    2  502    0 -0.42092935853E+02 -0.11159129298E+02  0.32974746605E+03  0.33261048207E+03  0.00000000000E+00 0. -1.
         22    1    3    3    0    0  0.65991729739E+01 -0.56239050086E+02  0.86078547329E+02  0.10303347101E+03  0.00000000000E+00 0.  1.
         22    1    3    3    0    0 -0.27725007813E+02  0.61902388863E+02  0.16161922624E+03  0.17527508692E+03  0.00000000000E+00 0.  1.
</event>
<event>
 7    1  0.6681656E-006  0.9664520E+02  0.7818608E-02  0.1333755E+00
          2   -1    0    0  502    0  0.00000000000E+00  0.00000000000E+00  0.44650912207E+03  0.44650912207E+03  0.00000000000E+00 0. -1.
          1   -1    0    0  501    0 -0.00000000000E+00 -0.00000000000E+00 -0.28919675503E+03  0.28919675503E+03  0.00000000000E+00 0. -1.
         25    2    1    2    0    0 -0.84728046889E+02  0.58338119989E+02  0.12674253671E+03  0.20560025003E+03  0.12500245608E+03 0.  0.
          2    1    1    2  501    0  0.52785436678E+02  0.35375664885E+02 -0.23670308676E+03  0.24508384540E+03  0.00000000000E+00 0. -1.
          1    1    1    2  502    0  0.31942610211E+02 -0.93713784874E+02  0.26727291709E+03  0.28502178168E+03  0.00000000000E+00 0. -1.
         22    1    3    3    0    0  0.74659051049E+00 -0.17404214706E+02 -0.15407254686E+02  0.23256130028E+02  0.00000000000E+00 0. -1.
         22    1    3    3    0    0 -0.85474637399E+02  0.75742334695E+02  0.14214979140E+03  0.18234412000E+03  0.00000000000E+00 0. -1.
</event>
<event>
 7    1  0.6681656E-006  0.6106416E+02  0.7818608E-02  0.1424422E+00
          2   -1    0    0  502    0  0.00000000000E+00  0.00000000000E+00  0.17527366270E+04  0.17527366270E+04  0.00000000000E+00 0. -1.
          1   -1    0    0  501    0 -0.00000000000E+00 -0.00000000000E+00 -0.31189633326E+03  0.31189633326E+03  0.00000000000E+00 0. -1.
         25    2    1    2    0    0 -0.44485331072E+02 -0.32505728188E+02  0.14063431710E+04  0.14129621776E+04  0.12500173462E+03 0.  0.
          2    1    1    2  501    0  0.23578131863E+02 -0.41722071530E+02 -0.30234218671E+03  0.30611673822E+03  0.00000000000E+00 0. -1.
          1    1    1    2  502    0  0.20907199209E+02  0.74227799719E+02  0.33683930948E+03  0.34555404446E+03  0.00000000000E+00 0. -1.
         22    1    3    3    0    0 -0.67220759948E+02 -0.64021859997E+02  0.79847007309E+03  0.80384817394E+03  0.00000000000E+00 0.  1.
         22    1    3    3    0    0  0.22735428876E+02  0.31516131808E+02  0.60787309788E+03  0.60911400363E+03  0.00000000000E+00 0.  1.
</event>
<event>
 7    1  0.6681656E-006  0.7851253E+02  0.7818608E-02  0.1406039E+00
          2   -1    0    0  502    0  0.00000000000E+00  0.00000000000E+00  0.50111957667E+03  0.50111957667E+03  0.00000000000E+00 0. -1.
          1   -1    0    0  501    0 -0.00000000000E+00 -0.00000000000E+00 -0.63973842125E+03  0.63973842125E+03  0.00000000000E+00 0. -1.
         25    2    1    2    0    0 -0.51948685330E+02  0.90776489483E+01  0.31060209207E+03  0.33893920929E+03  0.12500023351E+03 0.  0.
          2    1    1    2  501    0  0.59734420798E+02 -0.51342059390E+02 -0.62042412701E+03  0.62540411372E+03  0.00000000000E+00 0. -1.
          1    1    1    2  502    0 -0.77857354680E+01  0.42264410442E+02  0.17120319036E+03  0.17651467490E+03  0.00000000000E+00 0. -1.
         22    1    3    3    0    0 -0.15641257442E+02  0.39450291661E+02  0.24612591709E+02  0.49058680345E+02  0.00000000000E+00 0. -1.
         22    1    3    3    0    0 -0.36307427889E+02 -0.30372642713E+02  0.28598950036E+03  0.28988052894E+03  0.00000000000E+00 0. -1.
</event>
<event>
 7    1  0.6681656E-006  0.7802180E+02  0.7818608E-02  0.1431468E+00
          2   -1    0    0  502    0  0.00000000000E+00  0.00000000000E+00  0.23550663255E+04  0.23550663255E+04  0.00000000000E+00 0. -1.
          1   -1    0    0  501    0 -0.00000000000E+00 -0.00000000000E+00 -0.18025787250E+02  0.18025787250E+02  0.00000000000E+00 0. -1.
         25    2    1    2    0    0 -0.78623903404E+02  0.63661374756E+02  0.50002453750E+03  0.52524572670E+03  0.12499618590E+03 0.  0.
          2    1    1    2  501    0  0.45395865373E+02 -0.51021473132E+02  0.21814879727E+03  0.22858887344E+03  0.00000000000E+00 0. -1.
          1    1    1    2  502    0  0.33228038032E+02 -0.12639901624E+02  0.16188672035E+04  0.16192575126E+04  0.00000000000E+00 0. -1.
         22    1    3    3    0    0  0.27262934077E+02  0.30450678276E+02  0.69297670037E+02  0.80452958022E+02  0.00000000000E+00 0.  1.
         22    1    3    3    0    0 -0.10588683748E+03  0.33210696480E+02  0.43072686746E+03  0.44479276868E+03  0.00000000000E+00 0.  1.
</event>
<event>
 7    1  0.9070292E-006  0.6550724E+02  0.7818608E-02  0.1386247E+00
          2   -1    0    0  502    0  0.00000000000E+00  0.00000000000E+00  0.77026170966E+03  0.77026170966E+03  0.00000000000E+00 0. -1.
          1   -1    0    0  501    0 -0.00000000000E+00 -0.00000000000E+00 -0.22407783545E+04  0.22407783545E+04  0.00000000000E+00 0. -1.
         25    2    1    2    0    0 -0.64365521461E+02  0.38400116753E+02 -0.23385415929E+03  0.27555570373E+03  0.12500275485E+03 0.  0.
          2    1    1    2  501    0  0.25046621069E+01 -0.60248378308E+02 -0.19841786770E+04  0.19850947490E+04  0.00000000000E+00 0. -1.
          1    1    1    2  502    0  0.61860859354E+02  0.21848261555E+02  0.74751619143E+03  0.75038961140E+03  0.00000000000E+00 0. -1.
         22    1    3    3    0    0  0.33409201323E+01 -0.81690062705E+01  0.12814090933E+02  0.15559413138E+02  0.00000000000E+00 0. -1.
         22    1    3    3    0    0 -0.67706441593E+02  0.46569123024E+02 -0.24666825023E+03  0.25999629059E+03  0.00000000000E+00 0. -1.
</event>
<event>
 7    1  0.6681656E-006  0.5004928E+02  0.7818608E-02  0.1502381E+00
          2   -1    0    0  502    0  0.00000000000E+00  0.00000000000E+00  0.81109121351E+02  0.81109121351E+02  0.00000000000E+00 0. -1.
          1   -1    0    0  501    0 -0.00000000000E+00 -0.00000000000E+00 -0.13698333665E+04  0.13698333665E+04  0.00000000000E+00 0. -1.
         25    2    1    2    0    0  0.27015751098E+02  0.27487068426E+02 -0.14915523615E+03  0.19838778149E+03  0.12500015054E+03 0.  0.
          2    1    1    2  501    0 -0.50361644872E+02 -0.37896237926E+01 -0.11905825793E+04  0.11916532779E+04  0.00000000000E+00 0. -1.
          1    1    1    2  502    0  0.23345893775E+02 -0.23697444634E+02  0.51013570297E+02  0.60901428495E+02  0.00000000000E+00 0. -1.
         22    1    3    3    0    0 -0.32686372494E+01  0.64963803963E+02 -0.33648131413E+02  0.73233711926E+02  0.00000000000E+00 0. -1.
         22    1    3    3    0    0  0.30284388347E+02 -0.37476735537E+02 -0.11550710473E+03  0.12515406956E+03  0.00000000000E+00 0. -1.
</event>
<event>
 7    1  0.6681656E-006  0.5564780E+02  0.7818608E-02  0.1522178E+00
          2   -1    0    0  502    0  0.00000000000E+00  0.00000000000E+00  0.17907325889E+04  0.17907325889E+04  0.00000000000E+00 0. -1.
          1   -1    0    0  501    0 -0.00000000000E+00 -0.00000000000E+00 -0.12747748755E+03  0.12747748755E+03  0.00000000000E+00 0. -1.
         25    2    1    2    0    0  0.56249865583E+02 -0.57442996666E+01  0.92046065913E+02  0.16520743853E+03  0.12499590049E+03 0.  0.
          2    1    1    2  501    0 -0.52232695071E+02 -0.20118332570E+02 -0.82166480369E+02  0.99419979058E+02  0.00000000000E+00 0. -1.
          1    1    1    2  502    0 -0.40171705124E+01  0.25862632237E+02  0.16533755158E+04  0.16535826588E+04  0.00000000000E+00 0. -1.
         22    1    3    3    0    0  0.89264642086E+02  0.31533552254E+01  0.29749987470E+02  0.94144472649E+02  0.00000000000E+00 0.  1.
         22    1    3    3    0    0 -0.33014776503E+02 -0.88976548920E+01  0.62296078443E+02  0.71062965879E+02  0.00000000000E+00 0.  1.
</event>
<event>
 7    1  0.6681656E-006  0.6367880E+02  0.7818608E-02  0.1464656E+00
          2   -1    0    0  502    0  0.00000000000E+00  0.00000000000E+00  0.10560444878E+04  0.10560444878E+04  0.00000000000E+00 0. -1.
          1   -1    0    0  501    0 -0.00000000000E+00 -0.00000000000E+00 -0.72487725581E+02  0.72487725581E+02  0.00000000000E+00 0. -1.
         25    2    1    2    0    0 -0.60552637197E+02  0.16172401977E+01  0.23234384375E+03  0.27070131604E+03  0.12500521364E+03 0.  0.
          2    1    1    2  501    0  0.64774693231E+01  0.33465232213E+02 -0.46423846783E+02  0.57593861879E+02  0.00000000000E+00 0. -1.
          1    1    1    2  502    0  0.54075167874E+02 -0.35082472411E+02  0.79763676525E+03  0.80023703547E+03  0.00000000000E+00 0. -1.
         22    1    3    3    0    0 -0.49452564947E+02 -0.25481205334E+02  0.24470453136E+02  0.60775415110E+02  0.00000000000E+00 0.  1.
         22    1    3    3    0    0 -0.11100072251E+02  0.27098445532E+02  0.20787339061E+03  0.20992590093E+03  0.00000000000E+00 0.  1.
</event>
<event>
 7    1  0.6681656E-006  0.2326872E+03  0.7818608E-02  0.1217293E+00
          2   -1    0    0  502    0  0.00000000000E+00  0.00000000000E+00  0.26517058373E+03  0.26517058373E+03  0.00000000000E+00 0. -1.
          1   -1    0    0  501    0 -0.00000000000E+00 -0.00000000000E+00 -0.12189648843E+04  0.12189648843E+04  0.00000000000E+00 0. -1.
         25    2    1    2    0    0 -0.24571444801E+03 -0.68567233641E+02 -0.46410641068E+03  0.54414848367E+03  0.12500302538E+03 0.  0.
          2    1    1    2  501    0  0.14594545138E+02  0.79443659380E+02 -0.65223763351E+03  0.65722007451E+03  0.00000000000E+00 0. -1.
          1    1    1    2  502    0  0.23111990287E+03 -0.10876425739E+02  0.16254974365E+03  0.28276690984E+03  0.00000000000E+00 0. -1.
         22    1    3    3    0    0 -0.24002800626E+03 -0.76557510798E+02 -0.46959434830E+03  0.53291026281E+03  0.00000000000E+00 0.  1.
         22    1    3    3    0    0 -0.56864417501E+01  0.79902771566E+01  0.54879376204E+01  0.11238220862E+02  0.00000000000E+00 0.  1.
</event>
<event>
 7    1  0.6681656E-006  0.1183116E+03  0.7818608E-02  0.1252152E+00
          2   -1    0    0  502    0  0.00000000000E+00  0.00000000000E+00  0.37071671344E+02  0.37071671344E+02  0.00000000000E+00 0. -1.
          1   -1    0    0  501    0 -0.00000000000E+00 -0.00000000000E+00 -0.26099884072E+04  0.26099884072E+04  0.00000000000E+00 0. -1.
         25    2    1    2    0    0 -0.38149338187E+02  0.47868427117E+02 -0.18244454306E+04  0.18297460655E+04  0.12499110637E+03 0.  0.
          2    1    1    2  501    0  0.89604454561E+02  0.65762532647E+02 -0.64710819211E+03  0.65658410069E+03  0.00000000000E+00 0. -1.
          1    1    1    2  502    0 -0.51455116374E+02 -0.11363095976E+03 -0.10136311314E+03  0.16072991235E+03  0.00000000000E+00 0. -1.
         22    1    3    3    0    0 -0.27927612595E+02  0.83202700671E+02 -0.15911560976E+04  0.15935747136E+04  0.00000000000E+00 0.  1.
         22    1    3    3    0    0 -0.10221725592E+02 -0.35334273555E+02 -0.23328933305E+03  0.23617135194E+03  0.00000000000E+00 0.  1.
</event>
<event>
 7    1  0.6681656E-006  0.5761191E+02  0.7818608E-02  0.1421568E+00
          2   -1    0    0  502    0  0.00000000000E+00  0.00000000000E+00  0.23094067018E+04  0.23094067018E+04  0.00000000000E+00 0. -1.
          1   -1    0    0  501    0 -0.00000000000E+00 -0.00000000000E+00 -0.29524743899E+03  0.29524743899E+03  0.00000000000E+00 0. -1.
         25    2    1    2    0    0 -0.96981069898E+02  0.37906688896E+02  0.17337870348E+03  0.23775616796E+03  0.12500230238E+03 0.  0.
          2    1    1    2  501    0  0.40092186006E+02 -0.32985455561E+02 -0.26010537860E+03  0.26523618085E+03  0.00000000000E+00 0. -1.
          1    1    1    2  502    0  0.56888883892E+02 -0.49212333350E+01  0.21008859379E+04  0.21016617919E+04  0.00000000000E+00 0. -1.
         22    1    3    3    0    0 -0.86922173169E+02  0.55262067668E+02  0.18701252102E+03  0.21350185790E+03  0.00000000000E+00 0. -1.
         22    1    3    3    0    0 -0.10058896729E+02 -0.17355378772E+02 -0.13633817533E+02  0.24254310055E+02  0.00000000000E+00 0. -1.
</event>
<event>
 7    1  0.6681656E-006  0.5039431E+02  0.7818608E-02  0.1554662E+00
          2   -1    0    0  502    0  0.00000000000E+00  0.00000000000E+00  0.26930470633E+03  0.26930470633E+03  0.00000000000E+00 0. -1.
          1   -1    0    0  501    0 -0.00000000000E+00 -0.00000000000E+00 -0.21092609108E+03  0.21092609108E+03  0.00000000000E+00 0. -1.
         25    2    1    2    0    0 -0.44000500716E+02  0.67178692807E+01 -0.49299082201E+02  0.14154549230E+03  0.12499421208E+03 0.  0.
          2    1    1    2  501    0  0.42070784763E+02 -0.30020161521E+02 -0.10906181855E+03  0.12068819865E+03  0.00000000000E+00 0. -1.
          1    1    1    2  502    0  0.19297159530E+01  0.23302292240E+02  0.21673951600E+03  0.21799710646E+03  0.00000000000E+00 0. -1.
         22    1    3    3    0    0 -0.81685332690E+02  0.27425058197E+02 -0.17149557979E+02  0.87856330066E+02  0.00000000000E+00 0.  1.
         22    1    3    3    0    0  0.37684831974E+02 -0.20707188917E+02 -0.32149524222E+02  0.53689162234E+02  0.00000000000E+00 0.  1.
</event>
<event>
 7    1  0.6681656E-006  0.8164307E+02  0.7818608E-02  0.1327183E+00
          2   -1    0    0  502    0  0.00000000000E+00  0.00000000000E+00  0.35682974016E+03  0.35682974016E+03  0.00000000000E+00 0. -1.
          1   -1    0    0  501    0 -0.00000000000E+00 -0.00000000000E+00 -0.79216487924E+03  0.79216487924E+03  0.00000000000E+00 0. -1.
         25    2    1    2    0    0  0.19984668428E+02  0.26004128060E+02 -0.47291934853E+02  0.13761011280E+03  0.12499765755E+03 0.  0.
          2    1    1    2  501    0 -0.82398080105E+02  0.23548601470E+02 -0.69193270342E+03  0.69721936742E+03  0.00000000000E+00 0. -1.
          1    1    1    2  502    0  0.62413411677E+02 -0.49552729530E+02  0.30388949919E+03  0.31416513919E+03  0.00000000000E+00 0. -1.
         22    1    3    3    0    0  0.25100133831E+02  0.63710683490E+02 -0.66090102592E+02  0.95168112148E+02  0.00000000000E+00 0.  1.
         22    1    3    3    0    0 -0.51154654038E+01 -0.37706555430E+02  0.18798167739E+02  0.42442000649E+02  0.00000000000E+00 0.  1.
</event>
<event>
 7    1  0.6681656E-006  0.1433417E+03  0.7818608E-02  0.1365452E+00
          2   -1    0    0  502    0  0.00000000000E+00  0.00000000000E+00  0.20234665621E+04  0.20234665621E+04  0.00000000000E+00 0. -1.
          1   -1    0    0  501    0 -0.00000000000E+00 -0.00000000000E+00 -0.15520281230E+03  0.15520281230E+03  0.00000000000E+00 0. -1.
         25    2    1    2    0    0  0.17049531128E+03 -0.36985038054E+02  0.14286976833E+04  0.14447279084E+04  0.12500045970E+03 0.  0.
          2    1    1    2  501    0 -0.13781240231E+03  0.36622735593E+02 -0.11205342091E+03  0.18135449300E+03  0.00000000000E+00 0. -1.
          1    1    1    2  502    0 -0.32682908971E+02  0.36230246053E+00  0.55161948742E+03  0.55258697298E+03  0.00000000000E+00 0. -1.
         22    1    3    3    0    0  0.10478448292E+03  0.32001091162E+01  0.11731481414E+04  0.11778228178E+04  0.00000000000E+00 0. -1.
         22    1    3    3    0    0  0.65710828369E+02 -0.40185147170E+02  0.25554954193E+03  0.26690509062E+03  0.00000000000E+00 0. -1.
</event>
<event>
 7    1  0.6681656E-006  0.2059254E+03  0.7818608E-02  0.1226023E+00
          2   -1    0    0  502    0  0.00000000000E+00  0.00000000000E+00  0.14679251149E+04  0.14679251149E+04  0.00000000000E+00 0. -1.
          1   -1    0    0  501    0 -0.00000000000E+00 -0.00000000000E+00 -0.58523277257E+03  0.58523277257E+03  0.00000000000E+00 0. -1.
         25    2    1    2    0    0 -0.10158244859E+03 -0.23657311963E+03 -0.13091761537E+03  0.31472193895E+03  0.12499856821E+03 0.  0.
          2    1    1    2  501    0  0.32379286394E+02  0.19020962160E+03 -0.33535621262E+03  0.38690038469E+03  0.00000000000E+00 0. -1.
          1    1    1    2  502    0  0.69203162196E+02  0.46363498025E+02  0.13489661703E+04  0.13515355638E+04  0.00000000000E+00 0. -1.
         22    1    3    3    0    0 -0.10236205900E+03 -0.87225595113E+02 -0.41925547471E+02  0.14086890039E+03  0.00000000000E+00 0.  1.
         22    1    3    3    0    0  0.77961040849E+00 -0.14934752451E+03 -0.88992067895E+02  0.17385303857E+03  0.00000000000E+00 0.  1.
</event>
<event>
 7    1  0.6681656E-006  0.7168009E+02  0.7818608E-02  0.1393865E+00
          2   -1    0    0  502    0  0.00000000000E+00  0.00000000000E+00  0.34589146809E+04  0.34589146809E+04  0.00000000000E+00 0. -1.
          1   -1    0    0  501    0 -0.00000000000E+00 -0.00000000000E+00 -0.28596968560E+03  0.28596968560E+03  0.00000000000E+00 0. -1.
         25    2    1    2    0    0  0.20561509318E+02  0.31843581546E+01  0.43929435770E+03  0.45720615242E+03  0.12500006921E+03 0.  0.
          2    1    1    2  501    0 -0.72207084846E+02  0.12495450025E+01 -0.27207969376E+03  0.28150094888E+03  0.00000000000E+00 0. -1.
          1    1    1    2  502    0  0.51645575528E+02 -0.44339031571E+01  0.30057303313E+04  0.30061772652E+04  0.00000000000E+00 0. -1.
         22    1    3    3    0    0 -0.30664936977E+02 -0.34384803994E+02  0.30713810063E+03  0.31057441292E+03  0.00000000000E+00 0.  1.
         22    1    3    3    0    0  0.51226446296E+02  0.37569162148E+02  0.13215625708E+03  0.14663173950E+03  0.00000000000E+00 0.  1.
</event>
<event>
 7    1  0.6681656E-006  0.7670953E+02  0.7818608E-02  0.1446297E+00
          2   -1    0    0  502    0  0.00000000000E+00  0.00000000000E+00  0.42306489466E+04  0.42306489466E+04  0.00000000000E+00 0. -1.
          1   -1    0    0  501    0 -0.00000000000E+00 -0.00000000000E+00 -0.70202067468E+01  0.70202067468E+01  0.00000000000E+00 0. -1.
         25    2    1    2    0    0 -0.24089723313E+02 -0.48894090903E+02  0.77376123010E+03  0.78568575390E+03  0.12499886315E+03 0.  0.
          2    1    1    2  501    0 -0.31590534695E+02 -0.70170260789E+01  0.49172712712E+03  0.49279079545E+03  0.00000000000E+00 0. -1.
          1    1    1    2  502    0  0.55680258008E+02  0.55911116982E+02  0.29581403827E+04  0.29591926040E+04  0.00000000000E+00 0. -1.
         22    1    3    3    0    0 -0.38285393999E+02 -0.34283455058E+02  0.75848237773E+03  0.76022144406E+03  0.00000000000E+00 0. -1.
         22    1    3    3    0    0  0.14195670686E+02 -0.14610635844E+02  0.15278852366E+02  0.25464309840E+02  0.00000000000E+00 0. -1.
</event>
<event>
 7    1  0.6681656E-006  0.8225283E+02  0.7818608E-02  0.1450498E+00
          2   -1    0    0  502    0  0.00000000000E+00  0.00000000000E+00  0.92920705681E+03  0.92920705681E+03  0.00000000000E+00 0. -1.
          1   -1    0    0  501    0 -0.00000000000E+00 -0.00000000000E+00 -0.20688751975E+03  0.20688751975E+03  0.00000000000E+00 0. -1.
         25    2    1    2    0    0  0.66337554440E+02 -0.20568885073E+02 -0.69535164516E+02  0.15900825376E+03  0.12499894198E+03 0.  0.
          2    1    1    2  501    0  0.16110659238E+02  0.24422614603E+02 -0.88325191730E+02  0.93044918933E+02  0.00000000000E+00 0. -1.
          1    1    1    2  502    0 -0.82448213677E+02 -0.38537295303E+01  0.88017989331E+03  0.88404140387E+03  0.00000000000E+00 0. -1.
         22    1    3    3    0    0  0.59051790609E+02  0.26853560092E+02  0.10478979700E+02  0.65711769717E+02  0.00000000000E+00 0.  1.
         22    1    3    3    0    0  0.72857638302E+01 -0.47422445165E+02 -0.80014144216E+02  0.93296484042E+02  0.00000000000E+00 0.  1.
</event>
<event>
 7    1  0.6681656E-006  0.4996593E+02  0.7818608E-02  0.1509974E+00
          2   -1    0    0  502    0  0.00000000000E+00  0.00000000000E+00  0.27486219176E+03  0.27486219176E+03  0.00000000000E+00 0. -1.
          1   -1    0    0  501    0 -0.00000000000E+00 -0.00000000000E+00 -0.60605102011E+03  0.60605102011E+03  0.00000000000E+00 0. -1.
         25    2    1    2    0    0  0.47883568187E+02  0.63928556029E+02 -0.16617540443E+03  0.22275255376E+03  0.12499895516E+03 0.  0.
          2    1    1    2  501    0 -0.31366506172E+02 -0.36940695233E+02 -0.40913602842E+03  0.41199607089E+03  0.00000000000E+00 0. -1.
          1    1    1    2  502    0 -0.16517062015E+02 -0.26987860796E+02  0.24412260450E+03  0.24616458721E+03  0.00000000000E+00 0. -1.
         22    1    3    3    0    0 -0.40939785623E+02  0.14611152971E+02 -0.29839189408E+02  0.52725032598E+02  0.00000000000E+00 0. -1.
         22    1    3    3    0    0  0.88823353810E+02  0.49317403058E+02 -0.13633621503E+03  0.17002752117E+03  0.00000000000E+00 0. -1.
</event>
<event>
 7    1  0.6681656E-006  0.7729040E+02  0.7818608E-02  0.1437632E+00
          2   -1    0    0  502    0  0.00000000000E+00  0.00000000000E+00  0.18689309676E+04  0.18689309676E+04  0.00000000000E+00 0. -1.
          1   -1    0    0  501    0 -0.00000000000E+00 -0.00000000000E+00 -0.28805992565E+02  0.28805992565E+02  0.00000000000E+00 0. -1.
         25    2    1    2    0    0  0.81195188312E+01  0.50797925744E+02  0.78973370685E+03  0.80121862812E+03  0.12500242587E+03 0.  0.
          2    1    1    2  501    0 -0.35467542966E+02 -0.71433087152E+02  0.47060949296E+02  0.92603269341E+02  0.00000000000E+00 0. -1.
          1    1    1    2  502    0  0.27348024135E+02  0.20635161408E+02  0.10033303189E+04  0.10039150627E+04  0.00000000000E+00 0. -1.
         22    1    3    3    0    0  0.16600765440E+02  0.91706542830E+02  0.56491042213E+03  0.57254647011E+03  0.00000000000E+00 0.  1.
         22    1    3    3    0    0 -0.84812466092E+01 -0.40908617086E+02  0.22482328472E+03  0.22867215801E+03  0.00000000000E+00 0.  1.
</event>
<event>
 7    1  0.6681656E-006  0.1247206E+03  0.7818608E-02  0.1275465E+00
          2   -1    0    0  502    0  0.00000000000E+00  0.00000000000E+00  0.77891411039E+03  0.77891411039E+03  0.00000000000E+00 0. -1.
          1   -1    0    0  501    0 -0.00000000000E+00 -0.00000000000E+00 -0.27372045388E+03  0.27372045388E+03  0.00000000000E+00 0. -1.
         25    2    1    2    0    0 -0.37168838852E+02 -0.13173533077E+03  0.12252476127E+03  0.22220111803E+03  0.12500119909E+03 0.  0.
          2    1    1    2  501    0 -0.45583691225E+02  0.11752265222E+03 -0.20290410132E+03  0.23887134826E+03  0.00000000000E+00 0. -1.
          1    1    1    2  502    0  0.82752530078E+02  0.14212678547E+02  0.58557299656E+03  0.59156209798E+03  0.00000000000E+00 0. -1.
         22    1    3    3    0    0 -0.72269256385E+02 -0.32330962613E+02  0.42569711621E+02  0.89890582985E+02  0.00000000000E+00 0.  1.
         22    1    3    3    0    0  0.35100417533E+02 -0.99404368157E+02  0.79955049649E+02  0.13231053505E+03  0.00000000000E+00 0.  1.
</event>
<event>
 7    1  0.6681656E-006  0.1212293E+03  0.7818608E-02  0.1419777E+00
          2   -1    0    0  502    0  0.00000000000E+00  0.00000000000E+00  0.19035802145E+04  0.19035802145E+04  0.00000000000E+00 0. -1.
          1   -1    0    0  501    0 -0.00000000000E+00 -0.00000000000E+00 -0.28198663975E+03  0.28198663975E+03  0.00000000000E+00 0. -1.
         25    2    1    2    0    0 -0.30407013090E+02 -0.13468586937E+03  0.77820919863E+03  0.80019123412E+03  0.12502633516E+03 0.  0.
          2    1    1    2  501    0  0.97557558038E+01  0.12057011263E+03 -0.25734776741E+03  0.28435928018E+03  0.00000000000E+00 0. -1.
          1    1    1    2  502    0  0.20651257286E+02  0.14115756741E+02  0.11007321436E+04  0.11010163400E+04  0.00000000000E+00 0. -1.
         22    1    3    3    0    0 -0.11444794166E+01  0.13531311971E+02  0.26139770911E+03  0.26175020260E+03  0.00000000000E+00 0. -1.
         22    1    3    3    0    0 -0.29262533673E+02 -0.14821718135E+03  0.51681148952E+03  0.53844103152E+03  0.00000000000E+00 0. -1.
</event>
<event>
 7    1  0.6681656E-006  0.1381178E+03  0.7818608E-02  0.1288255E+00
          2   -1    0    0  502    0  0.00000000000E+00  0.00000000000E+00  0.46270483150E+03  0.46270483150E+03  0.00000000000E+00 0. -1.
          1   -1    0    0  501    0 -0.00000000000E+00 -0.00000000000E+00 -0.17622544055E+04  0.17622544055E+04  0.00000000000E+00 0. -1.
         25    2    1    2    0    0  0.70911343778E+02  0.38710333247E+02 -0.15855908249E+03  0.21747188052E+03  0.12500451032E+03 0.  0.
          2    1    1    2  501    0 -0.13784121745E+03 -0.44214894218E+02 -0.15682829895E+04  0.15749497431E+04  0.00000000000E+00 0. -1.
          1    1    1    2  502    0  0.66929873673E+02  0.55045609708E+01  0.42729249798E+03  0.43253761341E+03  0.00000000000E+00 0. -1.
         22    1    3    3    0    0  0.88428376348E+02 -0.13352317814E+02 -0.12285296815E+03  0.15195628950E+03  0.00000000000E+00 0.  1.
         22    1    3    3    0    0 -0.17517032571E+02  0.52062651061E+02 -0.35706114338E+02  0.65515591020E+02  0.00000000000E+00 0.  1.
</event>
<event>
 7    1  0.6681656E-006  0.1585537E+03  0.7818608E-02  0.1329556E+00
          2   -1    0    0  502    0  0.00000000000E+00  0.00000000000E+00  0.21146674320E+04  0.21146674320E+04  0.00000000000E+00 0. -1.
          1   -1    0    0  501    0 -0.00000000000E+00 -0.00000000000E+00 -0.93347025654E+03  0.93347025654E+03  0.00000000000E+00 0. -1.
         25    2    1    2    0    0  0.10681693368E+03 -0.76983070706E+02  0.65110081237E+03  0.67593885835E+03  0.12499928745E+03 0.  0.
          2    1    1    2  501    0  0.20957754482E+02 -0.34288360861E+02 -0.91566333851E+03  0.91654474449E+03  0.00000000000E+00 0. -1.
          1    1    1    2  502    0 -0.12777468816E+03  0.11127143157E+03  0.14457597016E+04  0.14556540857E+04  0.00000000000E+00 0. -1.
         22    1    3    3    0    0  0.91739052485E+02 -0.94010456235E+02  0.34766181125E+03  0.37164869787E+03  0.00000000000E+00 0.  1.
         22    1    3    3    0    0  0.15077881197E+02  0.17027385529E+02  0.30343900113E+03  0.30429016048E+03  0.00000000000E+00 0.  1.
</event>
<event>
 7    1  0.6681656E-006  0.1466660E+03  0.7818608E-02  0.1293286E+00
          2   -1    0    0  502    0  0.00000000000E+00  0.00000000000E+00  0.16119684040E+04  0.16119684040E+04  0.00000000000E+00 0. -1.
          1   -1    0    0  501    0 -0.00000000000E+00 -0.00000000000E+00 -0.70729169340E+03  0.70729169340E+03  0.00000000000E+00 0. -1.
         25    2    1    2    0    0  0.14020787282E+03  0.71370033372E+02  0.48204996324E+02  0.20663957156E+03  0.12499704637E+03 0.  0.
          2    1    1    2  501    0 -0.95235144714E+02 -0.11159122987E+03 -0.61888260107E+03  0.63603302531E+03  0.00000000000E+00 0. -1.
          1    1    1    2  502    0 -0.44972728102E+02  0.40221196495E+02  0.14753543153E+04  0.14765875005E+04  0.00000000000E+00 0. -1.
         22    1    3    3    0    0  0.30215645501E+02 -0.25355964988E+02 -0.20948903626E+02  0.44662811786E+02  0.00000000000E+00 0. -1.
         22    1    3    3    0    0  0.10999222731E+03  0.96725998360E+02  0.69153899950E+02  0.16197675977E+03  0.00000000000E+00 0. -1.
</event>
<event>
 7    1  0.6681656E-006  0.1005404E+03  0.7818608E-02  0.1309614E+00
          2   -1    0    0  502    0  0.00000000000E+00  0.00000000000E+00  0.86126524187E+02  0.86126524187E+02  0.00000000000E+00 0. -1.
          1   -1    0    0  501    0 -0.00000000000E+00 -0.00000000000E+00 -0.36266399516E+03  0.36266399516E+03  0.00000000000E+00 0. -1.
         25    2    1    2    0    0  0.36304741434E+02  0.77855053555E+01 -0.10024555325E+03  0.16448089146E+03  0.12500457738E+03 0.  0.
          2    1    1    2  501    0  0.34763360495E+02 -0.94339216279E+02 -0.12692200305E+03  0.16191841717E+03  0.00000000000E+00 0. -1.
          1    1    1    2  502    0 -0.71068101929E+02  0.86553710923E+02 -0.49369914682E+02  0.12239121072E+03  0.00000000000E+00 0. -1.
         22    1    3    3    0    0  0.33908532119E+02  0.40502711951E+02  0.61155392227E+01  0.53175727977E+02  0.00000000000E+00 0.  1.
         22    1    3    3    0    0  0.23962093148E+01 -0.32717206596E+02 -0.10636109247E+03  0.11130516348E+03  0.00000000000E+00 0.  1.
</event>
<event>
 7    1  0.6681656E-006  0.1061241E+03  0.7818608E-02  0.1359050E+00
          2   -1    0    0  502    0  0.00000000000E+00  0.00000000000E+00  0.11471464258E+04  0.11471464258E+04  0.00000000000E+00 0. -1.
          1   -1    0    0  501    0 -0.00000000000E+00 -0.00000000000E+00 -0.20267789407E+03  0.20267789407E+03  0.00000000000E+00 0. -1.
         25    2    1    2    0    0  0.91395289108E+02 -0.77065648565E+02  0.52075458732E+03  0.54872830257E+03  0.12500078703E+03 0.  0.
          2    1    1    2  501    0 -0.43922086477E+02 -0.15506652863E+02 -0.18130750798E+03  0.18719513459E+03  0.00000000000E+00 0. -1.
          1    1    1    2  502    0 -0.47473202630E+02  0.92572301427E+02  0.60502145233E+03  0.61390088267E+03  0.00000000000E+00 0. -1.
         22    1    3    3    0    0  0.76652464399E+02 -0.28522399843E+02  0.12273826866E+03  0.14749172921E+03  0.00000000000E+00 0. -1.
         22    1    3    3    0    0  0.14742824708E+02 -0.48543248722E+02  0.39801631866E+03  0.40123657336E+03  0.00000000000E+00 0. -1.
</event>
<event>
 7    1  0.6681656E-006  0.9876108E+02  0.7818608E-02  0.1343067E+00
          2   -1    0    0  502    0  0.00000000000E+00  0.00000000000E+00  0.51709719652E+02  0.51709719652E+02  0.00000000000E+00 0. -1.
          1   -1    0    0  501    0 -0.00000000000E+00 -0.00000000000E+00 -0.24094836742E+04  0.24094836742E+04  0.00000000000E+00 0. -1.
         25    2    1    2    0    0  0.38042890689E+02 -0.36459510341E+02 -0.34655994812E+03  0.37216294644E+03  0.12499961456E+03 0.  0.
          2    1    1    2  501    0  0.51507298999E+02 -0.25222572319E+02 -0.19729099241E+04  0.19737433340E+04  0.00000000000E+00 0. -1.
          1    1    1    2  502    0 -0.89550189689E+02  0.61682082660E+02 -0.38304082371E+02  0.11528711342E+03  0.00000000000E+00 0. -1.
         22    1    3    3    0    0  0.34688190410E+02  0.29070719137E+02 -0.25802116693E+03  0.26196049292E+03  0.00000000000E+00 0.  1.
         22    1    3    3    0    0  0.33547002790E+01 -0.65530229478E+02 -0.88538781186E+02  0.11020245353E+03  0.00000000000E+00 0.  1.
</event>
<event>
 7    1  0.6681656E-006  0.1454306E+03  0.7818608E-02  0.1214924E+00
          2   -1    0    0  502    0  0.00000000000E+00  0.00000000000E+00  0.17111936561E+04  0.17111936561E+04  0.00000000000E+00 0. -1.
          1   -1    0    0  501    0 -0.00000000000E+00 -0.00000000000E+00 -0.50849083711E+03  0.50849083711E+03  0.00000000000E+00 0. -1.
         25    2    1    2    0    0  0.14040151565E+03  0.16552776922E+03  0.70342260609E+03  0.74668722473E+03  0.12500568324E+03 0.  0.
          2    1    1    2  501    0 -0.14117253722E+03 -0.33018236947E+02 -0.47146289591E+03  0.49325161070E+03  0.00000000000E+00 0. -1.
          1    1    1    2  502    0  0.77102156557E+00 -0.13250953227E+03  0.97074310881E+03  0.97974565777E+03  0.00000000000E+00 0. -1.
         22    1    3    3    0    0  0.11437487522E+02  0.12384969919E+02  0.25550389721E+03  0.25605945616E+03  0.00000000000E+00 0. -1.
         22    1    3    3    0    0  0.12896402813E+03  0.15314279930E+03  0.44791870888E+03  0.49062776857E+03  0.00000000000E+00 0. -1.
</event>
<event>
 7    1  0.6681656E-006  0.4985865E+02  0.7818608E-02  0.1520075E+00
          2   -1    0    0  502    0  0.00000000000E+00  0.00000000000E+00  0.95254343770E+03  0.95254343770E+03  0.00000000000E+00 0. -1.
          1   -1    0    0  501    0 -0.00000000000E+00 -0.00000000000E+00 -0.41584896552E+03  0.41584896552E+03  0.00000000000E+00 0. -1.
         25    2    1    2    0    0 -0.73050067043E+02 -0.27104288274E+02 -0.22130202508E+03  0.26583985133E+03  0.12500114203E+03 0.  0.
          2    1    1    2  501    0  0.24319331402E+02  0.16917059562E+02 -0.17033255659E+03  0.17288955034E+03  0.00000000000E+00 0. -1.
          1    1    1    2  502    0  0.48730735640E+02  0.10187228711E+02  0.92832905385E+03  0.92966300155E+03  0.00000000000E+00 0. -1.
         22    1    3    3    0    0 -0.93421008245E+02 -0.13738916174E+02 -0.22222913784E+03  0.24145813779E+03  0.00000000000E+00 0.  1.
         22    1    3    3    0    0  0.20370941202E+02 -0.13365372099E+02  0.92711275839E+00  0.24381713535E+02  0.00000000000E+00 0.  1.
</event>
<event>
 7    1  0.6681656E-006  0.1536123E+03  0.7818608E-02  0.1243049E+00
          2   -1    0    0  502    0  0.00000000000E+00  0.00000000000E+00  0.10170985048E+04  0.10170985048E+04  0.00000000000E+00 0. -1.
          1   -1    0    0  501    0 -0.00000000000E+00 -0.00000000000E+00 -0.12979633390E+04  0.12979633390E+04  0.00000000000E+00 0. -1.
         25    2    1    2    0    0 -0.40566893900E+01 -0.17786217437E+03  0.21156587105E+03  0.30337052899E+03  0.12498860055E+03 0.  0.
          2    1    1    2  501    0 -0.79698362667E+02  0.49439629984E+02 -0.12425392845E+04  0.12460738259E+04  0.00000000000E+00 0. -1.
          1    1    1    2  502    0  0.83755052057E+02  0.12842254439E+03  0.75010857929E+03  0.76561748895E+03  0.00000000000E+00 0. -1.
         22    1    3    3    0    0  0.35506466603E+02 -0.15813612893E+03  0.11990569204E+03  0.20160634768E+03  0.00000000000E+00 0.  1.
         22    1    3    3    0    0 -0.39563155993E+02 -0.19726045441E+02  0.91660179013E+02  0.10176418131E+03  0.00000000000E+00 0.  1.
</event>
<event>
 7    1  0.6681656E-006  0.1720100E+03  0.7818608E-02  0.1232884E+00
          2   -1    0    0  502    0  0.00000000000E+00  0.00000000000E+00  0.63985203346E+03  0.63985203346E+03  0.00000000000E+00 0. -1.
          1   -1    0    0  501    0 -0.00000000000E+00 -0.00000000000E+00 -0.30283455435E+03  0.30283455435E+03  0.00000000000E+00 0. -1.
         25    2    1    2    0    0  0.26843605885E+02 -0.10722237205E+03  0.67499134446E+02  0.17999690582E+03  0.12500214681E+03 0.  0.
          2    1    1    2  501    0  0.71408948735E+02 -0.59418696739E+02 -0.21866217479E+03  0.23757728462E+03  0.00000000000E+00 0. -1.
          1    1    1    2  502    0 -0.98252554620E+02  0.16664106879E+03  0.48818051946E+03  0.52511239737E+03  0.00000000000E+00 0. -1.
         22    1    3    3    0    0  0.57333163806E+02 -0.11722369351E+03  0.69499219369E+02  0.14784663501E+03  0.00000000000E+00 0. -1.
         22    1    3    3    0    0 -0.30489557921E+02  0.10001321456E+02 -0.20000849226E+01  0.32150270805E+02  0.00000000000E+00 0. -1.
</event>
<event>
 7    1  0.6681656E-006  0.1877784E+03  0.7818608E-02  0.1205274E+00
          2   -1    0    0  502    0  0.00000000000E+00  0.00000000000E+00  0.42117068071E+03  0.42117068071E+03  0.00000000000E+00 0. -1.
          1   -1    0    0  501    0 -0.00000000000E+00 -0.00000000000E+00 -0.83168658451E+03  0.83168658451E+03  0.00000000000E+00 0. -1.
         25    2    1    2    0    0 -0.21390487966E+03 -0.17548109384E+03 -0.71228591820E+02  0.31184433581E+03  0.12499786258E+03 0.  0.
          2    1    1    2  501    0  0.54421845885E+02  0.99902427756E+02 -0.60853590833E+03  0.61907849591E+03  0.00000000000E+00 0. -1.
          1    1    1    2  502    0  0.15948303377E+03  0.75578666087E+02  0.26924859635E+03  0.32193443349E+03  0.00000000000E+00 0. -1.
         22    1    3    3    0    0 -0.18251396753E+03 -0.18761566811E+03 -0.37893310777E+02  0.26447474410E+03  0.00000000000E+00 0. -1.
         22    1    3    3    0    0 -0.31390912121E+02  0.12134574271E+02 -0.33335281042E+02  0.47369591709E+02  0.00000000000E+00 0. -1.
</event>
<event>
 7    1  0.6681656E-006  0.5826692E+02  0.7818608E-02  0.1406136E+00
          2   -1    0    0  502    0  0.00000000000E+00  0.00000000000E+00  0.34344988343E+04  0.34344988343E+04  0.00000000000E+00 0. -1.
          1   -1    0    0  501    0 -0.00000000000E+00 -0.00000000000E+00 -0.48428445727E+03  0.48428445727E+03  0.00000000000E+00 0. -1.
         25    2    1    2    0    0 -0.44569672355E+02  0.39362610712E+01  0.81386419486E+03  0.82462171995E+03  0.12499641393E+03 0.  0.
          2    1    1    2  501    0  0.27637931307E+02  0.51395120484E+02 -0.47680656500E+03  0.48036425146E+03  0.00000000000E+00 0. -1.
          1    1    1    2  502    0  0.16931741048E+02 -0.55331381555E+02  0.26131567472E+04  0.26137973202E+04  0.00000000000E+00 0. -1.
         22    1    3    3    0    0 -0.47449561475E+02  0.48090202075E+02  0.68598662508E+03  0.68930528665E+03  0.00000000000E+00 0. -1.
         22    1    3    3    0    0  0.28798891202E+01 -0.44153941004E+02  0.12787756979E+03  0.13531643330E+03  0.00000000000E+00 0. -1.
</event>
<event>
 7    1  0.6681656E-006  0.1498070E+03  0.7818608E-02  0.1313182E+00
          2   -1    0    0  502    0  0.00000000000E+00  0.00000000000E+00  0.34842390330E+03  0.34842390330E+03  0.00000000000E+00 0. -1.
          1   -1    0    0  501    0 -0.00000000000E+00 -0.00000000000E+00 -0.10069933604E+04  0.10069933604E+04  0.00000000000E+00 0. -1.
         25    2    1    2    0    0 -0.85983869800E+02 -0.13145777514E+03 -0.93049742074E+02  0.22126469627E+03  0.12500175520E+03 0.  0.
          2    1    1    2  501    0  0.11714238576E+03  0.93359704652E+02 -0.84103766021E+03  0.85427321091E+03  0.00000000000E+00 0. -1.
          1    1    1    2  502    0 -0.31158515956E+02  0.38098070492E+02  0.27551794518E+03  0.27987935653E+03  0.00000000000E+00 0. -1.
         22    1    3    3    0    0 -0.89250519858E+02 -0.34829805244E+02 -0.14923460035E+02  0.96961230848E+02  0.00000000000E+00 0.  1.
         22    1    3    3    0    0  0.32666500579E+01 -0.96627969901E+02 -0.78126282039E+02  0.12430346542E+03  0.00000000000E+00 0.  1.
</event>
<event>
 7    1  0.6681656E-006  0.4507026E+02  0.7818608E-02  0.1537375E+00
          2   -1    0    0  502    0  0.00000000000E+00  0.00000000000E+00  0.14210072058E+04  0.14210072058E+04  0.00000000000E+00 0. -1.
          1   -1    0    0  501    0 -0.00000000000E+00 -0.00000000000E+00 -0.20512536312E+03  0.20512536312E+03  0.00000000000E+00 0. -1.
         25    2    1    2    0    0 -0.32530476046E+02 -0.41879211230E+01  0.35514488618E+03  0.37792623410E+03  0.12499831073E+03 0.  0.
          2    1    1    2  501    0  0.37980893711E+02 -0.24531137298E+02 -0.19089077738E+03  0.19617240854E+03  0.00000000000E+00 0. -1.
          1    1    1    2  502    0 -0.54504176649E+01  0.28719058421E+02  0.10516277339E+04  0.10520339263E+04  0.00000000000E+00 0. -1.
         22    1    3    3    0    0 -0.83961479625E+01  0.48034144859E+02  0.27489218270E+03  0.27918360712E+03  0.00000000000E+00 0. -1.
         22    1    3    3    0    0 -0.24134328084E+02 -0.52222065982E+02  0.80252703476E+02  0.98742626979E+02  0.00000000000E+00 0. -1.
</event>
<event>
 7    1  0.6681656E-006  0.4256719E+02  0.7818608E-02  0.1526357E+00
          2   -1    0    0  502    0  0.00000000000E+00  0.00000000000E+00  0.29959710071E+03  0.29959710071E+03  0.00000000000E+00 0. -1.
          1   -1    0    0  501    0 -0.00000000000E+00 -0.00000000000E+00 -0.10704178522E+04  0.10704178522E+04  0.00000000000E+00 0. -1.
         25    2    1    2    0    0  0.12118690048E+02 -0.24759433018E+02 -0.58633002696E+03  0.60013974115E+03  0.12499966488E+03 0.  0.
          2    1    1    2  501    0 -0.43838394619E+02  0.14696060175E+02 -0.47511121123E+03  0.47735567669E+03  0.00000000000E+00 0. -1.
          1    1    1    2  502    0  0.31719704571E+02  0.10063372843E+02  0.29062048668E+03  0.29251953509E+03  0.00000000000E+00 0. -1.
         22    1    3    3    0    0 -0.21378626307E+02  0.32976577591E+02 -0.40520917121E+03  0.40711051665E+03  0.00000000000E+00 0.  1.
         22    1    3    3    0    0  0.33497316355E+02 -0.57736010609E+02 -0.18112085575E+03  0.19302922450E+03  0.00000000000E+00 0.  1.
</event>
<event>
 7    1  0.6681656E-006  0.8607629E+02  0.7818608E-02  0.1397473E+00
          2   -1    0    0  502    0  0.00000000000E+00  0.00000000000E+00  0.21045326715E+03  0.21045326715E+03  0.00000000000E+00 0. -1.
          1   -1    0    0  501    0 -0.00000000000E+00 -0.00000000000E+00 -0.11874509771E+04  0.11874509771E+04  0.00000000000E+00 0. -1.
         25    2    1    2    0    0  0.79694659771E+02 -0.15013898643E+02 -0.69837255323E+02  0.16454513175E+03  0.12498480789E+03 0.  0.
          2    1    1    2  501    0  0.35892601257E+01  0.41788911146E+02 -0.10580835760E+04  0.10589145621E+04  0.00000000000E+00 0. -1.
          1    1    1    2  502    0 -0.83283919897E+02 -0.26775012503E+02  0.15092312140E+03  0.17444455045E+03  0.00000000000E+00 0. -1.
         22    1    3    3    0    0  0.17622219160E+02  0.11269032198E+02 -0.91407634420E+02  0.93770407512E+02  0.00000000000E+00 0.  1.
         22    1    3    3    0    0  0.62072440611E+02 -0.26282930842E+02  0.21570379097E+02  0.70774724241E+02  0.00000000000E+00 0.  1.
</event>
<event>
 7    1  0.6681656E-006  0.7691503E+02  0.7818608E-02  0.1417934E+00
          2   -1    0    0  502    0  0.00000000000E+00  0.00000000000E+00  0.17014429573E+03  0.17014429573E+03  0.00000000000E+00 0. -1.
          1   -1    0    0  501    0 -0.00000000000E+00 -0.00000000000E+00 -0.95139759920E+03  0.95139759920E+03  0.00000000000E+00 0. -1.
         25    2    1    2    0    0  0.50115050632E+02  0.97867632204E+01 -0.71923852543E+02  0.15298774166E+03  0.12499963800E+03 0.  0.
          2    1    1    2  501    0 -0.75404981882E+02  0.21191291978E+02 -0.83397784650E+03  0.83764791565E+03  0.00000000000E+00 0. -1.
          1    1    1    2  502    0  0.25289931250E+02 -0.30978055198E+02  0.12464839557E+03  0.13090623761E+03  0.00000000000E+00 0. -1.
         22    1    3    3    0    0  0.30028780223E+02 -0.33611884934E+02 -0.90961623025E+02  0.10151602491E+03  0.00000000000E+00 0. -1.
         22    1    3    3    0    0  0.20086270409E+02  0.43398648154E+02  0.19037770482E+02  0.51471716752E+02  0.00000000000E+00 0. -1.
</event>
<event>
 7    1  0.6681656E-006  0.4246319E+02  0.7818608E-02  0.1513456E+00
          2   -1    0    0  502    0  0.00000000000E+00  0.00000000000E+00  0.16570621543E+02  0.16570621543E+02  0.00000000000E+00 0. -1.
          1   -1    0    0  501    0 -0.00000000000E+00 -0.00000000000E+00 -0.28595209823E+04  0.28595209823E+04  0.00000000000E+00 0. -1.
         25    2    1    2    0    0  0.12087522864E+02  0.18876434932E+02 -0.21895287212E+04  0.21932097991E+04  0.12502309481E+03 0.  0.
          2    1    1    2  501    0 -0.13169348959E+02 -0.55225512435E+02 -0.64237050231E+03  0.64487452362E+03  0.00000000000E+00 0. -1.
          1    1    1    2  502    0  0.10818260950E+01  0.36349077503E+02 -0.11051137337E+02  0.38007281138E+02  0.00000000000E+00 0. -1.
         22    1    3    3    0    0 -0.27448340096E+02  0.42324520504E+02 -0.18375505624E+04  0.18382428691E+04  0.00000000000E+00 0. -1.
         22    1    3    3    0    0  0.39535862960E+02 -0.23448085572E+02 -0.35197815876E+03  0.35496693004E+03  0.00000000000E+00 0. -1.
</event>
<event>
 7    1  0.6681656E-006  0.1919855E+03  0.7818608E-02  0.1272942E+00
          2   -1    0    0  502    0  0.00000000000E+00  0.00000000000E+00  0.28358439152E+04  0.28358439152E+04  0.00000000000E+00 0. -1.
          1   -1    0    0  501    0 -0.00000000000E+00 -0.00000000000E+00 -0.79556213766E+03  0.79556213766E+03  0.00000000000E+00 0. -1.
         25    2    1    2    0    0  0.15573021574E+02 -0.14726467222E+03 -0.23385896093E+02  0.19519410753E+03  0.12499774715E+03 0.  0.
          2    1    1    2  501    0 -0.45832947380E+02  0.19424729086E+03 -0.67147015111E+03  0.70050327116E+03  0.00000000000E+00 0. -1.
          1    1    1    2  502    0  0.30259925806E+02 -0.46982618634E+02  0.27351378248E+04  0.27357086742E+04  0.00000000000E+00 0. -1.
         22    1    3    3    0    0  0.12807979681E+02 -0.14941692644E+03  0.20331233596E+02  0.15133678108E+03  0.00000000000E+00 0. -1.
         22    1    3    3    0    0  0.27650418931E+01  0.21522542148E+01 -0.43717129689E+02  0.43857326447E+02  0.00000000000E+00 0. -1.
</event>
<event>
 7    1  0.6681656E-006  0.1024761E+03  0.7818608E-02  0.1308940E+00
          2   -1    0    0  502    0  0.00000000000E+00  0.00000000000E+00  0.52561525125E+03  0.52561525125E+03  0.00000000000E+00 0. -1.
          1   -1    0    0  501    0 -0.00000000000E+00 -0.00000000000E+00 -0.15658050690E+04  0.15658050690E+04  0.00000000000E+00 0. -1.
         25    2    1    2    0    0  0.30654308244E+02  0.15685299950E+03 -0.94100647589E+03  0.96263218665E+03  0.12499995622E+03 0.  0.
          2    1    1    2  501    0 -0.59791510595E+01 -0.86274330633E+02 -0.60819589798E+03  0.61431365009E+03  0.00000000000E+00 0. -1.
          1    1    1    2  502    0 -0.24675157185E+02 -0.70578668869E+02  0.50901255612E+03  0.51447448350E+03  0.00000000000E+00 0. -1.
         22    1    3    3    0    0 -0.48343278598E+02  0.49221181722E+02 -0.34965440678E+03  0.35639584944E+03  0.00000000000E+00 0.  1.
         22    1    3    3    0    0  0.78997586842E+02  0.10763181778E+03 -0.59135206911E+03  0.60623633722E+03  0.00000000000E+00 0.  1.
</event>
<event>
 7    1  0.6681656E-006  0.4928651E+02  0.7818608E-02  0.1506568E+00
          2   -1    0    0  502    0  0.00000000000E+00  0.00000000000E+00  0.61051963601E+03  0.61051963601E+03  0.00000000000E+00 0. -1.
          1   -1    0    0  501    0 -0.00000000000E+00 -0.00000000000E+00 -0.17909298819E+03  0.17909298819E+03  0.00000000000E+00 0. -1.
         25    2    1    2    0    0 -0.11146151018E+02 -0.28157476755E+02 -0.14327046539E+03  0.19254717293E+03  0.12502362726E+03 0.  0.
          2    1    1    2  501    0  0.58183192267E+02  0.13437542286E+02  0.79536908589E+02  0.99458389455E+02  0.00000000000E+00 0. -1.
          1    1    1    2  502    0 -0.47037041249E+02  0.14719934470E+02  0.49516020463E+03  0.49760706181E+03  0.00000000000E+00 0. -1.
         22    1    3    3    0    0  0.27529215035E+02  0.31534491082E+02 -0.12502285198E+02  0.43687400282E+02  0.00000000000E+00 0. -1.
         22    1    3    3    0    0 -0.38675366053E+02 -0.59691967838E+02 -0.13076818019E+03  0.14885977265E+03  0.00000000000E+00 0. -1.
</event>
<event>
 7    1  0.6681656E-006  0.7835310E+02  0.7818608E-02  0.1487728E+00
          2   -1    0    0  502    0  0.00000000000E+00  0.00000000000E+00  0.18720977521E+04  0.18720977521E+04  0.00000000000E+00 0. -1.
          1   -1    0    0  501    0 -0.00000000000E+00 -0.00000000000E+00 -0.17095688912E+03  0.17095688912E+03  0.00000000000E+00 0. -1.
         25    2    1    2    0    0  0.11588081870E+02  0.84355203421E+02  0.60759750575E+03  0.62613943521E+03  0.12500311733E+03 0.  0.
          2    1    1    2  501    0 -0.31419279925E+02 -0.71717008863E+02 -0.15208940946E+03  0.17106048340E+03  0.00000000000E+00 0. -1.
          1    1    1    2  502    0  0.19831198055E+02 -0.12638194559E+02  0.12456327667E+04  0.12458547226E+04  0.00000000000E+00 0. -1.
         22    1    3    3    0    0  0.33811985349E+02 -0.13762246364E+02  0.30680145824E+03  0.30896566890E+03  0.00000000000E+00 0. -1.
         22    1    3    3    0    0 -0.22223903480E+02  0.98117449785E+02  0.30079604751E+03  0.31717376631E+03  0.00000000000E+00 0. -1.
</event>
<event>
 7    1  0.6681656E-006  0.9606102E+02  0.7818608E-02  0.1397945E+00
          2   -1    0    0  502    0  0.00000000000E+00  0.00000000000E+00  0.55591720708E+03  0.55591720708E+03  0.00000000000E+00 0. -1.
          1   -1    0    0  501    0 -0.00000000000E+00 -0.00000000000E+00 -0.55093532436E+03  0.55093532436E+03  0.00000000000E+00 0. -1.
         25    2    1    2    0    0 -0.10225953730E+03 -0.66606346322E+02 -0.17129993237E+03  0.24466281619E+03  0.12499123352E+03 0.  0.
          2    1    1    2  501    0  0.11872739094E+02  0.35510300632E+02 -0.33751076602E+03  0.33958130185E+03  0.00000000000E+00 0. -1.
          1    1    1    2  502    0  0.90386798210E+02  0.31096045690E+02  0.51379258111E+03  0.52260841340E+03  0.00000000000E+00 0. -1.
         22    1    3    3    0    0 -0.24923615741E+02  0.18236211380E+02  0.78697990924E+01  0.31869731170E+02  0.00000000000E+00 0. -1.
         22    1    3    3    0    0 -0.77335921564E+02 -0.84842557702E+02 -0.17916973146E+03  0.21279308502E+03  0.00000000000E+00 0. -1.
</event>
<event>
 7    1  0.6681656E-006  0.3682784E+02  0.7818608E-02  0.1618067E+00
          2   -1    0    0  502    0  0.00000000000E+00  0.00000000000E+00  0.22862592334E+04  0.22862592334E+04  0.00000000000E+00 0. -1.
          1   -1    0    0  501    0 -0.00000000000E+00 -0.00000000000E+00 -0.44337991533E+02  0.44337991533E+02  0.00000000000E+00 0. -1.
         25    2    1    2    0    0  0.12285089322E+02 -0.22994440634E+02  0.16648184345E+04  0.16697081793E+04  0.12500126577E+03 0.  0.
          2    1    1    2  501    0  0.21678184452E+02  0.90630207824E+00 -0.38372418566E+02  0.44081828129E+02  0.00000000000E+00 0. -1.
          1    1    1    2  502    0 -0.33963273774E+02  0.22088138556E+02  0.61547522600E+03  0.61680721757E+03  0.00000000000E+00 0. -1.
         22    1    3    3    0    0 -0.34416834399E+01  0.72468697641E+01  0.48187280785E+01  0.93585493840E+01  0.00000000000E+00 0. -1.
         22    1    3    3    0    0  0.15726772762E+02 -0.30241310398E+02  0.16599997064E+04  0.16603496299E+04  0.00000000000E+00 0. -1.
</event>
<event>
 7    1  0.6681656E-006  0.7270479E+02  0.7818608E-02  0.1373412E+00
          2   -1    0    0  502    0  0.00000000000E+00  0.00000000000E+00  0.21501772111E+03  0.21501772111E+03  0.00000000000E+00 0. -1.
          1   -1    0    0  501    0 -0.00000000000E+00 -0.00000000000E+00 -0.11561972167E+04  0.11561972167E+04  0.00000000000E+00 0. -1.
         25    2    1    2    0    0 -0.70484750878E+01 -0.16531443947E+02 -0.47303029610E+03  0.48959726625E+03  0.12499940979E+03 0.  0.
          2    1    1    2  501    0  0.25760292016E+02 -0.54551130011E+02 -0.66694510387E+03  0.66966796997E+03  0.00000000000E+00 0. -1.
          1    1    1    2  502    0 -0.18711816929E+02  0.71082573957E+02  0.19879590437E+03  0.21194970160E+03  0.00000000000E+00 0. -1.
         22    1    3    3    0    0  0.21220504214E+02 -0.65391861880E+02 -0.22745632878E+03  0.23761899524E+03  0.00000000000E+00 0. -1.
         22    1    3    3    0    0 -0.28268979302E+02  0.48860417933E+02 -0.24557396733E+03  0.25197827101E+03  0.00000000000E+00 0. -1.
</event>
<event>
 7    1  0.6681656E-006  0.7164879E+02  0.7818608E-02  0.1471496E+00
          2   -1    0    0  502    0  0.00000000000E+00  0.00000000000E+00  0.11204795614E+03  0.11204795614E+03  0.00000000000E+00 0. -1.
          1   -1    0    0  501    0 -0.00000000000E+00 -0.00000000000E+00 -0.43234357299E+03  0.43234357299E+03  0.00000000000E+00 0. -1.
         25    2    1    2    0    0  0.73424728446E+02  0.65377248824E+02 -0.39801304744E+02  0.16393188155E+03  0.12499657003E+03 0.  0.
          2    1    1    2  501    0 -0.55403522147E+02 -0.42857924286E+02 -0.32221457780E+03  0.32974017967E+03  0.00000000000E+00 0. -1.
          1    1    1    2  502    0 -0.18021206299E+02 -0.22519324538E+02  0.41720265698E+02  0.50719467900E+02  0.00000000000E+00 0. -1.
         22    1    3    3    0    0 -0.33383577958E+02  0.94399787308E+01  0.55136554020E+01  0.35128006941E+02  0.00000000000E+00 0. -1.
         22    1    3    3    0    0  0.10680830640E+03  0.55937270093E+02 -0.45314960146E+02  0.12880387461E+03  0.00000000000E+00 0. -1.
</event>
<event>
 7    1  0.6681656E-006  0.1661075E+03  0.7818608E-02  0.1262625E+00
          2   -1    0    0  502    0  0.00000000000E+00  0.00000000000E+00  0.44941690214E+03  0.44941690214E+03  0.00000000000E+00 0. -1.
          1   -1    0    0  501    0 -0.00000000000E+00 -0.00000000000E+00 -0.11280294335E+04  0.11280294335E+04  0.00000000000E+00 0. -1.
         25    2    1    2    0    0  0.23029390751E+03  0.63041689293E+01 -0.88145904557E+02  0.27653336754E+03  0.12500390590E+03 0.  0.
          2    1    1    2  501    0 -0.16107180290E+03  0.11163521204E+02 -0.93511326784E+03  0.94894972131E+03  0.00000000000E+00 0. -1.
          1    1    1    2  502    0 -0.69222104618E+02 -0.17467690134E+02  0.34464664100E+03  0.35196324683E+03  0.00000000000E+00 0. -1.
         22    1    3    3    0    0  0.64490562740E+01 -0.23883524118E+02 -0.37708486583E+02  0.45099257328E+02  0.00000000000E+00 0.  1.
         22    1    3    3    0    0  0.22384485124E+03  0.30187693047E+02 -0.50437417974E+02  0.23143411021E+03  0.00000000000E+00 0.  1.
</event>
<event>
 7    1  0.6681656E-006  0.1218070E+03  0.7818608E-02  0.1365778E+00
          2   -1    0    0  502    0  0.00000000000E+00  0.00000000000E+00  0.32817544598E+03  0.32817544598E+03  0.00000000000E+00 0. -1.
          1   -1    0    0  501    0 -0.00000000000E+00 -0.00000000000E+00 -0.14904364177E+04  0.14904364177E+04  0.00000000000E+00 0. -1.
         25    2    1    2    0    0  0.12957986356E+03  0.38273973780E+02  0.16751816464E+03  0.24888293002E+03  0.12499815704E+03 0.  0.
          2    1    1    2  501    0 -0.12170561769E+03 -0.73171673353E+00 -0.14440611825E+04  0.14491809727E+04  0.00000000000E+00 0. -1.
          1    1    1    2  502    0 -0.78742458691E+01 -0.37542257046E+02  0.11428204616E+03  0.12054796094E+03  0.00000000000E+00 0. -1.
         22    1    3    3    0    0  0.11198967873E+02 -0.40387324611E+02  0.36526417823E+02  0.55594352858E+02  0.00000000000E+00 0.  1.
         22    1    3    3    0    0  0.11838089569E+03  0.78661298391E+02  0.13099174682E+03  0.19328857717E+03  0.00000000000E+00 0.  1.
</event>
<event>
 7    1  0.6681656E-006  0.7778335E+02  0.7818608E-02  0.1367402E+00
          2   -1    0    0  502    0  0.00000000000E+00  0.00000000000E+00  0.13922851961E+04  0.13922851961E+04  0.00000000000E+00 0. -1.
          1   -1    0    0  501    0 -0.00000000000E+00 -0.00000000000E+00 -0.17306457749E+03  0.17306457749E+03  0.00000000000E+00 0. -1.
         25    2    1    2    0    0 -0.50010213221E+02  0.20382990062E+01  0.63200967261E+03  0.64619375295E+03  0.12499985593E+03 0.  0.
          2    1    1    2  501    0 -0.26650638696E+02 -0.52932578473E+02 -0.15775987407E+03  0.16852386262E+03  0.00000000000E+00 0. -1.
          1    1    1    2  502    0  0.76660851917E+02  0.50894279467E+02  0.74497082008E+03  0.75063215803E+03  0.00000000000E+00 0. -1.
         22    1    3    3    0    0 -0.15804163155E+02 -0.46552505549E+02  0.48708244249E+03  0.48955716022E+03  0.00000000000E+00 0. -1.
         22    1    3    3    0    0 -0.34206050066E+02  0.48590804556E+02  0.14492723013E+03  0.15663659272E+03  0.00000000000E+00 0. -1.
</event>
<event>
 7    1  0.6681656E-006  0.5077698E+02  0.7818608E-02  0.1516763E+00
          2   -1    0    0  502    0  0.00000000000E+00  0.00000000000E+00  0.14624586044E+04  0.14624586044E+04  0.00000000000E+00 0. -1.
          1   -1    0    0  501    0 -0.00000000000E+00 -0.00000000000E+00 -0.87884691890E+02  0.87884691890E+02  0.00000000000E+00 0. -1.
         25    2    1    2    0    0 -0.24324165363E+00  0.70535158677E+02  0.84077318939E+03  0.85293615540E+03  0.12500104565E+03 0.  0.
          2    1    1    2  501    0  0.16096853247E+02 -0.25009161326E+02 -0.78120194498E+02  0.83590260336E+02  0.00000000000E+00 0. -1.
          1    1    1    2  502    0 -0.15853611593E+02 -0.45525997351E+02  0.61192091766E+03  0.61381688059E+03  0.00000000000E+00 0. -1.
         22    1    3    3    0    0 -0.46661620417E+02 -0.10621727857E+02  0.21854575713E+03  0.22372388312E+03  0.00000000000E+00 0. -1.
         22    1    3    3    0    0  0.46418378764E+02  0.81156886534E+02  0.62222743227E+03  0.62921227228E+03  0.00000000000E+00 0. -1.
</event>
<event>
 7    1  0.6681656E-006  0.6587706E+02  0.7818608E-02  0.1407613E+00
          2   -1    0    0  502    0  0.00000000000E+00  0.00000000000E+00  0.21090268503E+04  0.21090268503E+04  0.00000000000E+00 0. -1.
          1   -1    0    0  501    0 -0.00000000000E+00 -0.00000000000E+00 -0.11079170245E+03  0.11079170245E+03  0.00000000000E+00 0. -1.
         25    2    1    2    0    0 -0.18273101906E+02  0.75215307114E+02  0.11723950142E+03  0.18804440069E+03  0.12499738901E+03 0.  0.
          2    1    1    2  501    0 -0.29758376725E+02 -0.59328989151E+02 -0.60386442425E+02  0.89733006011E+02  0.00000000000E+00 0. -1.
          1    1    1    2  502    0  0.48031478631E+02 -0.15886317962E+02  0.19413820889E+04  0.19420411461E+04  0.00000000000E+00 0. -1.
         22    1    3    3    0    0 -0.94398725265E+01 -0.17161828716E+02  0.88875084365E+02  0.91007802847E+02  0.00000000000E+00 0.  1.
         22    1    3    3    0    0 -0.88332293798E+01  0.92377135829E+02  0.28364417059E+02  0.97036597840E+02  0.00000000000E+00 0.  1.
</event>
<event>
 7    1  0.6681656E-006  0.1058802E+03  0.7818608E-02  0.1278955E+00
          2   -1    0    0  502    0  0.00000000000E+00  0.00000000000E+00  0.35544588501E+04  0.35544588501E+04  0.00000000000E+00 0. -1.
          1   -1    0    0  501    0 -0.00000000000E+00 -0.00000000000E+00 -0.35150849000E+03  0.35150849000E+03  0.00000000000E+00 0. -1.
         25    2    1    2    0    0 -0.29588654120E+02  0.45433590335E+02 -0.72396874088E+02  0.15433141736E+03  0.12504870820E+03 0.  0.
          2    1    1    2  501    0  0.12523474067E+03 -0.47041627543E+02 -0.21865031857E+03  0.25632911814E+03  0.00000000000E+00 0. -1.
          1    1    1    2  502    0 -0.95646086550E+02  0.16080372073E+01  0.34939975528E+04  0.34953068046E+04  0.00000000000E+00 0. -1.
         22    1    3    3    0    0 -0.61590352427E+02 -0.26888483188E+01 -0.74253384609E+02  0.96509929765E+02  0.00000000000E+00 0. -1.
         22    1    3    3    0    0  0.32001698307E+02  0.48122438654E+02  0.18565105211E+01  0.57821487596E+02  0.00000000000E+00 0. -1.
</event>
<event>
 7    1  0.6681656E-006  0.4944570E+02  0.7818608E-02  0.1494376E+00
          2   -1    0    0  502    0  0.00000000000E+00  0.00000000000E+00  0.88835255554E+03  0.88835255554E+03  0.00000000000E+00 0. -1.
          1   -1    0    0  501    0 -0.00000000000E+00 -0.00000000000E+00 -0.53023565020E+03  0.53023565020E+03  0.00000000000E+00 0. -1.
         25    2    1    2    0    0 -0.84137571548E+02  0.10383045544E+02 -0.93040606411E+02  0.17739286301E+03  0.12499893930E+03 0.  0.
          2    1    1    2  501    0  0.35079090628E+02 -0.59489928003E+01 -0.39349872132E+03  0.39510400757E+03  0.00000000000E+00 0. -1.
          1    1    1    2  502    0  0.49058480920E+02 -0.44340527438E+01  0.84465623307E+03  0.84609133516E+03  0.00000000000E+00 0. -1.
         22    1    3    3    0    0 -0.51148809423E+02  0.42586784516E+02  0.73119793148E+01  0.66957448893E+02  0.00000000000E+00 0. -1.
         22    1    3    3    0    0 -0.32988762125E+02 -0.32203738972E+02 -0.10035258573E+03  0.11043541412E+03  0.00000000000E+00 0. -1.
</event>
<event>
 7    1  0.6681656E-006  0.1072838E+03  0.7818608E-02  0.1421549E+00
          2   -1    0    0  502    0  0.00000000000E+00  0.00000000000E+00  0.64908424372E+03  0.64908424372E+03  0.00000000000E+00 0. -1.
          1   -1    0    0  501    0 -0.00000000000E+00 -0.00000000000E+00 -0.63000747315E+02  0.63000747315E+02  0.00000000000E+00 0. -1.
         25    2    1    2    0    0 -0.26292191409E+02 -0.94103165641E+02  0.14878720630E+03  0.21747421576E+03  0.12494285354E+03 0.  0.
          2    1    1    2  501    0  0.23216268610E+02 -0.15444040641E+02 -0.13289783693E+02  0.30889025075E+02  0.00000000000E+00 0. -1.
          1    1    1    2  502    0  0.30759227991E+01  0.10954720628E+03  0.45058607380E+03  0.46372175020E+03  0.00000000000E+00 0. -1.
         22    1    3    3    0    0 -0.25764825078E+02 -0.17373336726E+02  0.13622088167E+03  0.13972039093E+03  0.00000000000E+00 0. -1.
         22    1    3    3    0    0 -0.52736633057E+00 -0.76729828915E+02  0.12566324628E+02  0.77753824827E+02  0.00000000000E+00 0. -1.
</event>
<event>
 7    1  0.6681656E-006  0.1530380E+03  0.7818608E-02  0.1289650E+00
          2   -1    0    0  502    0  0.00000000000E+00  0.00000000000E+00  0.43873487721E+04  0.43873487721E+04  0.00000000000E+00 0. -1.
          1   -1    0    0  501    0 -0.00000000000E+00 -0.00000000000E+00 -0.34928855109E+02  0.34928855109E+02  0.00000000000E+00 0. -1.
         25    2    1    2    0    0 -0.41680009216E+02 -0.12417499625E+03  0.68466272164E+03  0.70819819945E+03  0.12499997780E+03 0.  0.
          2    1    1    2  501    0  0.10121173490E+03  0.13004685732E+03  0.27359693767E+03  0.31939205482E+03  0.00000000000E+00 0. -1.
          1    1    1    2  502    0 -0.59531725684E+02 -0.58718610664E+01  0.33941602577E+04  0.33946873729E+04  0.00000000000E+00 0. -1.
         22    1    3    3    0    0 -0.66075933291E+02 -0.10367075581E+03  0.33083628909E+03  0.35293951996E+03  0.00000000000E+00 0.  1.
         22    1    3    3    0    0  0.24395924075E+02 -0.20504240442E+02  0.35382643254E+03  0.35525867949E+03  0.00000000000E+00 0.  1.
</event>
<event>
 7    1  0.6681656E-006  0.1650666E+03  0.7818608E-02  0.1386646E+00
          2   -1    0    0  502    0  0.00000000000E+00  0.00000000000E+00  0.10219660893E+04  0.10219660893E+04  0.00000000000E+00 0. -1.
          1   -1    0    0  501    0 -0.00000000000E+00 -0.00000000000E+00 -0.91239431620E+02  0.91239431620E+02  0.00000000000E+00 0. -1.
         25    2    1    2    0    0 -0.14263697980E+03  0.25226349517E+02  0.40147571136E+02  0.19549590329E+03  0.12500057608E+03 0.  0.
          2    1    1    2  501    0 -0.20140035340E+02  0.12781154189E+02  0.19707844074E+02  0.30941526206E+02  0.00000000000E+00 0. -1.
          1    1    1    2  502    0  0.16277701514E+03 -0.38007503706E+02  0.87087124245E+03  0.88676809140E+03  0.00000000000E+00 0. -1.
         22    1    3    3    0    0 -0.15398755851E+03 -0.85693217975E+01  0.41854362385E+02  0.15980422117E+03  0.00000000000E+00 0. -1.
         22    1    3    3    0    0  0.11350578708E+02  0.33795671315E+02 -0.17067912492E+01  0.35691682126E+02  0.00000000000E+00 0. -1.
</event>
<event>
 7    1  0.6681656E-006  0.6874038E+02  0.7818608E-02  0.1418995E+00
          2   -1    0    0  502    0  0.00000000000E+00  0.00000000000E+00  0.15426326246E+04  0.15426326246E+04  0.00000000000E+00 0. -1.
          1   -1    0    0  501    0 -0.00000000000E+00 -0.00000000000E+00 -0.42533785162E+03  0.42533785162E+03  0.00000000000E+00 0. -1.
         25    2    1    2    0    0 -0.31985077886E+01  0.97299219276E+02  0.23176534733E+02  0.16012407520E+03  0.12500079669E+03 0.  0.
          2    1    1    2  501    0 -0.25174745708E+02 -0.63171562420E+02 -0.35328123168E+03  0.35976665045E+03  0.00000000000E+00 0. -1.
          1    1    1    2  502    0  0.28373253497E+02 -0.34127656856E+02  0.14473994699E+04  0.14480797506E+04  0.00000000000E+00 0. -1.
         22    1    3    3    0    0  0.47881276781E+02  0.70170457164E+02 -0.20808999591E+02  0.87461558349E+02  0.00000000000E+00 0. -1.
         22    1    3    3    0    0 -0.51079784570E+02  0.27128762112E+02  0.43985534323E+02  0.72662516851E+02  0.00000000000E+00 0. -1.
</event>
<event>
 7    1  0.6681656E-006  0.8930203E+02  0.7818608E-02  0.1395025E+00
          2   -1    0    0  502    0  0.00000000000E+00  0.00000000000E+00  0.10592520476E+03  0.10592520476E+03  0.00000000000E+00 0. -1.
          1   -1    0    0  501    0 -0.00000000000E+00 -0.00000000000E+00 -0.10053614647E+04  0.10053614647E+04  0.00000000000E+00 0. -1.
         25    2    1    2    0    0  0.38696527707E+02 -0.58394703080E+02 -0.20239612822E+03  0.24798256988E+03  0.12499519847E+03 0.  0.
          2    1    1    2  501    0 -0.25001384108E+02 -0.32776259890E+02 -0.75387380690E+03  0.75500004580E+03  0.00000000000E+00 0. -1.
          1    1    1    2  502    0 -0.13695143599E+02  0.91170962971E+02  0.56833675137E+02  0.10830405383E+03  0.00000000000E+00 0. -1.
         22    1    3    3    0    0  0.68777875809E+02 -0.72105949590E+02 -0.10334949731E+03  0.14356455956E+03  0.00000000000E+00 0. -1.
         22    1    3    3    0    0 -0.30081348101E+02  0.13711246510E+02 -0.99046630908E+02  0.10441801032E+03  0.00000000000E+00 0. -1.
</event>
<event>
 7    1  0.6681656E-006  0.9389685E+02  0.7818608E-02  0.1380831E+00
          2   -1    0    0  502    0  0.00000000000E+00  0.00000000000E+00  0.64797418857E+03  0.64797418857E+03  0.00000000000E+00 0. -1.
          1   -1    0    0  501    0 -0.00000000000E+00 -0.00000000000E+00 -0.13384328150E+03  0.13384328150E+03  0.00000000000E+00 0. -1.
         25    2    1    2    0    0  0.38618814345E+02  0.45162027200E+02  0.14726738504E+03  0.20210092308E+03  0.12500431548E+03 0.  0.
          2    1    1    2  501    0 -0.42846004366E+02 -0.88916560470E+02 -0.82236133894E+02  0.12847068356E+03  0.00000000000E+00 0. -1.
          1    1    1    2  502    0  0.42271900204E+01  0.43754533270E+02  0.44909965592E+03  0.45124586344E+03  0.00000000000E+00 0. -1.
         22    1    3    3    0    0  0.24179843664E+02  0.34068950758E+02  0.16880500363E+03  0.17389792263E+03  0.00000000000E+00 0. -1.
         22    1    3    3    0    0  0.14438970681E+02  0.11093076441E+02 -0.21537618592E+02  0.28203000441E+02  0.00000000000E+00 0. -1.
</event>
<event>
 7    1  0.6681656E-006  0.1218206E+03  0.7818608E-02  0.1248575E+00
          2   -1    0    0  502    0  0.00000000000E+00  0.00000000000E+00  0.26082770098E+03  0.26082770098E+03  0.00000000000E+00 0. -1.
          1   -1    0    0  501    0 -0.00000000000E+00 -0.00000000000E+00 -0.46727466560E+03  0.46727466560E+03  0.00000000000E+00 0. -1.
         25    2    1    2    0    0 -0.68717856341E+02  0.40515591994E+02  0.26914435768E+02  0.15070907494E+03  0.12500072577E+03 0.  0.
          2    1    1    2  501    0  0.21748770989E+02  0.10973585634E+03 -0.35897155224E+03  0.37599939165E+03  0.00000000000E+00 0. -1.
          1    1    1    2  502    0  0.46969085352E+02 -0.15025144834E+03  0.12561015185E+03  0.20139389999E+03  0.00000000000E+00 0. -1.
         22    1    3    3    0    0 -0.44541658548E+02  0.78659388629E+02  0.46301727696E+02  0.10156332386E+03  0.00000000000E+00 0.  1.
         22    1    3    3    0    0 -0.24176197793E+02 -0.38143796635E+02 -0.19387291927E+02  0.49145751086E+02  0.00000000000E+00 0.  1.
</event>
<event>
 7    1  0.6681656E-006  0.1406039E+03  0.7818608E-02  0.1234250E+00
          2   -1    0    0  502    0  0.00000000000E+00  0.00000000000E+00  0.22339966585E+04  0.22339966585E+04  0.00000000000E+00 0. -1.
          1   -1    0    0  501    0 -0.00000000000E+00 -0.00000000000E+00 -0.27268928117E+03  0.27268928117E+03  0.00000000000E+00 0. -1.
         25    2    1    2    0    0 -0.21428169753E+03 -0.10708107230E+03  0.37470659709E+03  0.46196622270E+03  0.12499902026E+03 0.  0.
          2    1    1    2  501    0  0.82853788794E+02  0.75457139873E+02 -0.21266399466E+03  0.24038407788E+03  0.00000000000E+00 0. -1.
          1    1    1    2  502    0  0.13142790874E+03  0.31623932429E+02  0.17992647749E+04  0.18043356391E+04  0.00000000000E+00 0. -1.
         22    1    3    3    0    0 -0.54368603476E+02 -0.88444630086E+02  0.19334407180E+03  0.21945461430E+03  0.00000000000E+00 0. -1.
         22    1    3    3    0    0 -0.15991309406E+03 -0.18636442216E+02  0.18136252529E+03  0.24251160840E+03  0.00000000000E+00 0. -1.
</event>
<event>
 7    1  0.6681656E-006  0.1490421E+03  0.7818608E-02  0.1335652E+00
          2   -1    0    0  502    0  0.00000000000E+00  0.00000000000E+00  0.28654072510E+04  0.28654072510E+04  0.00000000000E+00 0. -1.
          1   -1    0    0  501    0 -0.00000000000E+00 -0.00000000000E+00 -0.18730018298E+03  0.18730018298E+03  0.00000000000E+00 0. -1.
         25    2    1    2    0    0 -0.11767244144E+03 -0.37987320668E+02  0.19078076865E+03  0.25944697205E+03  0.12500235844E+03 0.  0.
          2    1    1    2  501    0  0.15274633483E+03  0.17682936886E+02 -0.11412682753E+03  0.19149167560E+03  0.00000000000E+00 0. -1.
          1    1    1    2  502    0 -0.35073893384E+02  0.20304383782E+02  0.26014531269E+04  0.26017687863E+04  0.00000000000E+00 0. -1.
         22    1    3    3    0    0 -0.10458072258E+02 -0.60353025472E+02  0.99645440679E+02  0.11696611820E+03  0.00000000000E+00 0. -1.
         22    1    3    3    0    0 -0.10721436918E+03  0.22365704804E+02  0.91135327968E+02  0.14248085385E+03  0.00000000000E+00 0. -1.
</event>
<event>
 7    1  0.6681656E-006  0.5260391E+02  0.7818608E-02  0.1465145E+00
          2   -1    0    0  502    0  0.00000000000E+00  0.00000000000E+00  0.16883539216E+03  0.16883539216E+03  0.00000000000E+00 0. -1.
          1   -1    0    0  501    0 -0.00000000000E+00 -0.00000000000E+00 -0.11042845002E+04  0.11042845002E+04  0.00000000000E+00 0. -1.
         25    2    1    2    0    0 -0.17311847996E+02  0.97789601111E+01 -0.15837844375E+02  0.12755864453E+03  0.12500016935E+03 0.  0.
          2    1    1    2  501    0 -0.79029329827E+01  0.40350671641E+02 -0.10251807976E+04  0.10260050199E+04  0.00000000000E+00 0. -1.
          1    1    1    2  502    0  0.25214780979E+02 -0.50129631752E+02  0.10556953390E+03  0.11955622798E+03  0.00000000000E+00 0. -1.
         22    1    3    3    0    0 -0.43048652028E+02 -0.44373403512E+02 -0.25410347930E+02  0.66842136132E+02  0.00000000000E+00 0.  1.
         22    1    3    3    0    0  0.25736804032E+02  0.54152363623E+02  0.95725035547E+01  0.60716508398E+02  0.00000000000E+00 0.  1.
</event>
<event>
 7    1  0.6681656E-006  0.1014179E+03  0.7818608E-02  0.1410155E+00
          2   -1    0    0  502    0  0.00000000000E+00  0.00000000000E+00  0.32038410669E+02  0.32038410669E+02  0.00000000000E+00 0. -1.
          1   -1    0    0  501    0 -0.00000000000E+00 -0.00000000000E+00 -0.46428409726E+04  0.46428409726E+04  0.00000000000E+00 0. -1.
         25    2    1    2    0    0 -0.92043608023E+02  0.23576117428E+02 -0.30406981090E+04  0.30447493984E+04  0.12500420084E+03 0.  0.
          2    1    1    2  501    0 -0.94353471973E+01 -0.30802310433E+02 -0.15132355382E+04  0.15135784096E+04  0.00000000000E+00 0. -1.
          1    1    1    2  502    0  0.10147895522E+03  0.72261930045E+01 -0.56868914803E+02  0.11655157523E+03  0.00000000000E+00 0. -1.
         22    1    3    3    0    0  0.15452485157E+02  0.12908651948E+02 -0.96892510975E+02  0.98962474078E+02  0.00000000000E+00 0.  1.
         22    1    3    3    0    0 -0.10749609318E+03  0.10667465480E+02 -0.29438055980E+04  0.29457869243E+04  0.00000000000E+00 0.  1.
</event>
<event>
 7    1  0.6681656E-006  0.1011574E+03  0.7818608E-02  0.1316075E+00
          2   -1    0    0  502    0  0.00000000000E+00  0.00000000000E+00  0.24185404863E+04  0.24185404863E+04  0.00000000000E+00 0. -1.
          1   -1    0    0  501    0 -0.00000000000E+00 -0.00000000000E+00 -0.34517997023E+02  0.34517997023E+02  0.00000000000E+00 0. -1.
         25    2    1    2    0    0 -0.44547036951E+02 -0.12714774059E+02  0.13288557374E+04  0.13355253943E+04  0.12499761605E+03 0.  0.
          2    1    1    2  501    0  0.10102718992E+03 -0.30327991634E+02  0.63071248732E+02  0.12289940031E+03  0.00000000000E+00 0. -1.
          1    1    1    2  502    0 -0.56480152972E+02  0.43042765693E+02  0.99209550320E+03  0.99463368877E+03  0.00000000000E+00 0. -1.
         22    1    3    3    0    0 -0.71748283949E+01 -0.35528071958E+02  0.11750466927E+04  0.11756055683E+04  0.00000000000E+00 0.  1.
         22    1    3    3    0    0 -0.37372208556E+02  0.22813297900E+02  0.15380904461E+03  0.15991982596E+03  0.00000000000E+00 0.  1.
</event>
<event>
 7    1  0.9976964E-006  0.6369036E+02  0.7818608E-02  0.1394784E+00
          2   -1    0    0  502    0  0.00000000000E+00  0.00000000000E+00  0.58709550848E+03  0.58709550848E+03  0.00000000000E+00 0. -1.
          1   -1    0    0  501    0 -0.00000000000E+00 -0.00000000000E+00 -0.12990935198E+04  0.12990935198E+04  0.00000000000E+00 0. -1.
         25    2    1    2    0    0 -0.56398647907E+02 -0.69668955361E+02 -0.38152849064E+03  0.41136783630E+03  0.12499974698E+03 0.  0.
          2    1    1    2  501    0 -0.61126127846E+01  0.57588226653E+02 -0.89994063500E+03  0.90180203726E+03  0.00000000000E+00 0. -1.
          1    1    1    2  502    0  0.62511260692E+02  0.12080728708E+02  0.56947111429E+03  0.57301915476E+03  0.00000000000E+00 0. -1.
         22    1    3    3    0    0 -0.19385818365E+01 -0.45436575107E+02 -0.29228219754E+02  0.54060422556E+02  0.00000000000E+00 0.  1.
         22    1    3    3    0    0 -0.54460066071E+02 -0.24232380254E+02 -0.35230027089E+03  0.35730741374E+03  0.00000000000E+00 0.  1.
</event>
<event>
 7    1  0.6681656E-006  0.8585510E+02  0.7818608E-02  0.1369074E+00
          2   -1    0    0  502    0  0.00000000000E+00  0.00000000000E+00  0.86960430085E+02  0.86960430085E+02  0.00000000000E+00 0. -1.
          1   -1    0    0  501    0 -0.00000000000E+00 -0.00000000000E+00 -0.39382984800E+03  0.39382984800E+03  0.00000000000E+00 0. -1.
         25    2    1    2    0    0  0.52998881385E+02 -0.16940249318E+02 -0.13850328581E+03  0.19469775551E+03  0.12501280873E+03 0.  0.
          2    1    1    2  501    0 -0.99599895192E+02 -0.82038078762E+01 -0.20058995943E+03  0.22410661170E+03  0.00000000000E+00 0. -1.
          1    1    1    2  502    0  0.46601013807E+02  0.25144057194E+02  0.32223827317E+02  0.61985910875E+02  0.00000000000E+00 0. -1.
         22    1    3    3    0    0  0.24507721567E+02 -0.19027881624E+02 -0.15741105013E+03  0.16043979369E+03  0.00000000000E+00 0.  1.
         22    1    3    3    0    0  0.28491159818E+02  0.20876323061E+01  0.18907764324E+02  0.34257961821E+02  0.00000000000E+00 0.  1.
</event>
<event>
 7    1  0.6681656E-006  0.1490143E+03  0.7818608E-02  0.1251170E+00
          2   -1    0    0  502    0  0.00000000000E+00  0.00000000000E+00  0.23016880553E+04  0.23016880553E+04  0.00000000000E+00 0. -1.
          1   -1    0    0  501    0 -0.00000000000E+00 -0.00000000000E+00 -0.64243572873E+03  0.64243572873E+03  0.00000000000E+00 0. -1.
         25    2    1    2    0    0  0.76195390673E+02  0.15861210855E+02  0.35669255851E+03  0.38589129957E+03  0.12500079285E+03 0.  0.
          2    1    1    2  501    0  0.88837134090E+02  0.70224409971E+01 -0.62105495532E+03  0.62741581794E+03  0.00000000000E+00 0. -1.
          1    1    1    2  502    0 -0.16503252476E+03 -0.22883651852E+02  0.19236147234E+04  0.19308166665E+04  0.00000000000E+00 0. -1.
         22    1    3    3    0    0  0.72433820181E+00  0.57641721015E+02  0.18455077511E+03  0.19334446271E+03  0.00000000000E+00 0. -1.
         22    1    3    3    0    0  0.75471052472E+02 -0.41780510161E+02  0.17214178340E+03  0.19254683686E+03  0.00000000000E+00 0. -1.
</event>
<event>
 7    1  0.6681656E-006  0.3480346E+03  0.7818608E-02  0.1155856E+00
          2   -1    0    0  502    0  0.00000000000E+00  0.00000000000E+00  0.35407228566E+03  0.35407228566E+03  0.00000000000E+00 0. -1.
          1   -1    0    0  501    0 -0.00000000000E+00 -0.00000000000E+00 -0.97218820656E+03  0.97218820656E+03  0.00000000000E+00 0. -1.
         25    2    1    2    0    0  0.23306571152E+03 -0.14353817900E+03  0.72117222316E+02  0.30944521585E+03  0.12503044884E+03 0.  0.
          2    1    1    2  501    0 -0.27114010377E+03  0.24346542563E+03 -0.79035919487E+03  0.87032179466E+03  0.00000000000E+00 0. -1.
          1    1    1    2  502    0  0.38074392244E+02 -0.99927246628E+02  0.10012605165E+03  0.14649348171E+03  0.00000000000E+00 0. -1.
         22    1    3    3    0    0  0.34862875355E+02 -0.53237724953E+02 -0.28253250657E+02  0.69627017809E+02  0.00000000000E+00 0.  1.
         22    1    3    3    0    0  0.19820283617E+03 -0.90300454046E+02  0.10037047297E+03  0.23981819804E+03  0.00000000000E+00 0.  1.
</event>
<event>
 7    1  0.6681656E-006  0.9939687E+02  0.7818608E-02  0.1286753E+00
          2   -1    0    0  502    0  0.00000000000E+00  0.00000000000E+00  0.71387744648E+03  0.71387744648E+03  0.00000000000E+00 0. -1.
          1   -1    0    0  501    0 -0.00000000000E+00 -0.00000000000E+00 -0.92201962894E+03  0.92201962894E+03  0.00000000000E+00 0. -1.
         25    2    1    2    0    0  0.21513878813E+02  0.12518740960E+02 -0.43743125588E+03  0.45562024895E+03  0.12499656704E+03 0.  0.
          2    1    1    2  501    0  0.55165325875E+02 -0.76904573513E+02 -0.46716830659E+03  0.47665894861E+03  0.00000000000E+00 0. -1.
          1    1    1    2  502    0 -0.76679204688E+02  0.64385832552E+02  0.69645738001E+03  0.70361787786E+03  0.00000000000E+00 0. -1.
         22    1    3    3    0    0  0.16598229093E+02  0.66528760578E+02 -0.30300187143E+03  0.31066334075E+03  0.00000000000E+00 0.  1.
         22    1    3    3    0    0  0.49156497197E+01 -0.54010019618E+02 -0.13442938444E+03  0.14495690819E+03  0.00000000000E+00 0.  1.
</event>
<event>
 7    1  0.6681656E-006  0.8061216E+02  0.7818608E-02  0.1389260E+00
          2   -1    0    0  502    0  0.00000000000E+00  0.00000000000E+00  0.27071689348E+03  0.27071689348E+03  0.00000000000E+00 0. -1.
          1   -1    0    0  501    0 -0.00000000000E+00 -0.00000000000E+00 -0.24642408472E+03  0.24642408472E+03  0.00000000000E+00 0. -1.
         25    2    1    2    0    0  0.52417239491E+02 -0.10962589613E+03 -0.40855913236E+02  0.17905058978E+03  0.12499801580E+03 0.  0.
          2    1    1    2  501    0 -0.38274184511E+02  0.63939540170E+02 -0.12307971872E+03  0.14388118417E+03  0.00000000000E+00 0. -1.
          1    1    1    2  502    0 -0.14143054980E+02  0.45686355965E+02  0.18822844072E+03  0.19420920426E+03  0.00000000000E+00 0. -1.
         22    1    3    3    0    0  0.69595379186E+02 -0.59876171231E+02 -0.73075202388E+02  0.11733992453E+03  0.00000000000E+00 0. -1.
         22    1    3    3    0    0 -0.17178139695E+02 -0.49749724904E+02  0.32219289152E+02  0.61710665244E+02  0.00000000000E+00 0. -1.
</event>
<event>
 7    1  0.6681656E-006  0.4407557E+02  0.7818608E-02  0.1565084E+00
          2   -1    0    0  502    0  0.00000000000E+00  0.00000000000E+00  0.29555600977E+03  0.29555600977E+03  0.00000000000E+00 0. -1.
          1   -1    0    0  501    0 -0.00000000000E+00 -0.00000000000E+00 -0.22840372726E+03  0.22840372726E+03  0.00000000000E+00 0. -1.
         25    2    1    2    0    0 -0.65852291214E+02 -0.36223719347E+01  0.31655855313E+02  0.14483380432E+03  0.12500036745E+03 0.  0.
          2    1    1    2  501    0  0.23973969674E+02 -0.71758582068E+01 -0.16862572376E+03  0.17047251649E+03  0.00000000000E+00 0. -1.
          1    1    1    2  502    0  0.41878321540E+02  0.10798230142E+02  0.20412215096E+03  0.20865341622E+03  0.00000000000E+00 0. -1.
         22    1    3    3    0    0 -0.47829896079E+02  0.11599758806E+02  0.78346104971E+02  0.92522243420E+02  0.00000000000E+00 0. -1.
         22    1    3    3    0    0 -0.18022395134E+02 -0.15222130741E+02 -0.46690249658E+02  0.52311560900E+02  0.00000000000E+00 0. -1.
</event>
<event>
 7    1  0.6681656E-006  0.1691906E+03  0.7818608E-02  0.1385286E+00
          2   -1    0    0  502    0  0.00000000000E+00  0.00000000000E+00  0.51981776576E+03  0.51981776576E+03  0.00000000000E+00 0. -1.
          1   -1    0    0  501    0 -0.00000000000E+00 -0.00000000000E+00 -0.41577893821E+03  0.41577893821E+03  0.00000000000E+00 0. -1.
         25    2    1    2    0    0  0.14096011498E+03 -0.12299987368E+03  0.27240390962E+02  0.22663968622E+03  0.12499914212E+03 0.  0.
          2    1    1    2  501    0 -0.94636252827E+01  0.21542095873E+02 -0.29804171270E+03  0.29896903620E+03  0.00000000000E+00 0. -1.
          1    1    1    2  502    0 -0.13149648970E+03  0.10145777781E+03  0.37484014929E+03  0.40998798153E+03  0.00000000000E+00 0. -1.
         22    1    3    3    0    0  0.65559585417E+02 -0.63448995694E+02  0.76138716530E+02  0.11883155494E+03  0.00000000000E+00 0.  1.
         22    1    3    3    0    0  0.75400529563E+02 -0.59550877989E+02 -0.48898325569E+02  0.10780813128E+03  0.00000000000E+00 0.  1.
</event>
<event>
 7    1  0.6681656E-006  0.8693770E+02  0.7818608E-02  0.1379547E+00
          2   -1    0    0  502    0  0.00000000000E+00  0.00000000000E+00  0.15202934114E+04  0.15202934114E+04  0.00000000000E+00 0. -1.
          1   -1    0    0  501    0 -0.00000000000E+00 -0.00000000000E+00 -0.13770213013E+04  0.13770213013E+04  0.00000000000E+00 0. -1.
         25    2    1    2    0    0  0.12836686974E+03 -0.24238294292E+02 -0.53793313845E+02  0.18863662164E+03  0.12499802500E+03 0.  0.
          2    1    1    2  501    0 -0.86003754548E+02  0.17195454228E+01 -0.12539363231E+04  0.12568834094E+04  0.00000000000E+00 0. -1.
          1    1    1    2  502    0 -0.42363115190E+02  0.22518748869E+02  0.14510017471E+04  0.14517946816E+04  0.00000000000E+00 0. -1.
         22    1    3    3    0    0  0.70443709632E+01 -0.54114780209E+02 -0.26843893646E+02  0.60816340119E+02  0.00000000000E+00 0.  1.
         22    1    3    3    0    0  0.12132249877E+03  0.29876485918E+02 -0.26949420199E+02  0.12782028152E+03  0.00000000000E+00 0.  1.
</event>
<event>
 7    1  0.8582850E-006  0.1373342E+03  0.7818608E-02  0.1317673E+00
          2   -1    0    0  502    0  0.00000000000E+00  0.00000000000E+00  0.93340295532E+03  0.93340295532E+03  0.00000000000E+00 0. -1.
          1   -1    0    0  501    0 -0.00000000000E+00 -0.00000000000E+00 -0.19472787264E+04  0.19472787264E+04  0.00000000000E+00 0. -1.
         25    2    1    2    0    0 -0.15286532450E+03  0.24144258753E+02 -0.11911321014E+04  0.12076304972E+04  0.12499992831E+03 0.  0.
          2    1    1    2  501    0  0.17731315611E+02 -0.48415833439E+02 -0.74190390892E+03  0.74369341974E+03  0.00000000000E+00 0. -1.
          1    1    1    2  502    0  0.13513400889E+03  0.24271574686E+02  0.91916023921E+03  0.92935776483E+03  0.00000000000E+00 0. -1.
         22    1    3    3    0    0 -0.16981264875E+03  0.81891756960E+01 -0.92588868422E+03  0.94136775696E+03  0.00000000000E+00 0.  1.
         22    1    3    3    0    0  0.16947324254E+02  0.15955083057E+02 -0.26524341719E+03  0.26626274023E+03  0.00000000000E+00 0.  1.
</event>
<event>
 7    1  0.6681656E-006  0.1203683E+03  0.7818608E-02  0.1302608E+00
          2   -1    0    0  502    0  0.00000000000E+00  0.00000000000E+00  0.24811118331E+04  0.24811118331E+04  0.00000000000E+00 0. -1.
          1   -1    0    0  501    0 -0.00000000000E+00 -0.00000000000E+00 -0.14413686321E+03  0.14413686321E+03  0.00000000000E+00 0. -1.
         25    2    1    2    0    0  0.10745698379E+03  0.93671678951E+02  0.48260258345E+03  0.51850964450E+03  0.12500244434E+03 0.  0.
          2    1    1    2  501    0 -0.11695008273E+03 -0.26899268942E+02 -0.96936705314E+02  0.15426476382E+03  0.00000000000E+00 0. -1.
          1    1    1    2  502    0  0.94930989471E+01 -0.66772410009E+02  0.19513090918E+04  0.19524742880E+04  0.00000000000E+00 0. -1.
         22    1    3    3    0    0  0.65881010287E+02  0.51897182080E+01  0.33507336224E+03  0.34152803512E+03  0.00000000000E+00 0. -1.
         22    1    3    3    0    0  0.41575973499E+02  0.88481960743E+02  0.14752922121E+03  0.17698160938E+03  0.00000000000E+00 0. -1.
</event>
<event>
 7    1  0.6681656E-006  0.5555106E+02  0.7818608E-02  0.1439878E+00
          2   -1    0    0  502    0  0.00000000000E+00  0.00000000000E+00  0.30219280333E+04  0.30219280333E+04  0.00000000000E+00 0. -1.
          1   -1    0    0  501    0 -0.00000000000E+00 -0.00000000000E+00 -0.22826465293E+03  0.22826465293E+03  0.00000000000E+00 0. -1.
         25    2    1    2    0    0 -0.48484138955E+02  0.44363637502E+02  0.16725193910E+03  0.21890043885E+03  0.12500138773E+03 0.  0.
          2    1    1    2  501    0 -0.71219982245E+01 -0.46327649530E+02 -0.19944975233E+03  0.20488332698E+03  0.00000000000E+00 0. -1.
          1    1    1    2  502    0  0.55606137179E+02  0.19640120287E+01  0.28258611936E+04  0.28264089204E+04  0.00000000000E+00 0. -1.
         22    1    3    3    0    0  0.12672421912E+01 -0.29885733511E+02  0.10702218294E+03  0.11112385258E+03  0.00000000000E+00 0.  1.
         22    1    3    3    0    0 -0.49751381146E+02  0.74249371013E+02  0.60229756160E+02  0.10777658627E+03  0.00000000000E+00 0.  1.
</event>
<event>
 7    1  0.6681656E-006  0.5520344E+02  0.7818608E-02  0.1439915E+00
          2   -1    0    0  502    0  0.00000000000E+00  0.00000000000E+00  0.40147970196E+03  0.40147970196E+03  0.00000000000E+00 0. -1.
          1   -1    0    0  501    0 -0.00000000000E+00 -0.00000000000E+00 -0.37152881966E+03  0.37152881966E+03  0.00000000000E+00 0. -1.
         25    2    1    2    0    0 -0.70153817804E+01  0.71786825285E+02  0.79307039631E+02  0.16467436390E+03  0.12500190289E+03 0.  0.
          2    1    1    2  501    0  0.38845426092E+02 -0.26730736018E+02 -0.32440175886E+03  0.32781092192E+03  0.00000000000E+00 0. -1.
          1    1    1    2  502    0 -0.31830044312E+02 -0.45056089267E+02  0.27504560153E+03  0.28052323579E+03  0.00000000000E+00 0. -1.
         22    1    3    3    0    0  0.40746059038E+02  0.57415883179E+02  0.89392159483E+02  0.11378832605E+03  0.00000000000E+00 0. -1.
         22    1    3    3    0    0 -0.47761440818E+02  0.14370942106E+02 -0.10085119852E+02  0.50886037854E+02  0.00000000000E+00 0. -1.
</event>
<event>
 7    1  0.6681656E-006  0.4004486E+02  0.7818608E-02  0.1602242E+00
          2   -1    0    0  502    0  0.00000000000E+00  0.00000000000E+00  0.11454985374E+04  0.11454985374E+04  0.00000000000E+00 0. -1.
          1   -1    0    0  501    0 -0.00000000000E+00 -0.00000000000E+00 -0.57629160698E+02  0.57629160698E+02  0.00000000000E+00 0. -1.
         25    2    1    2    0    0  0.28363806839E+02 -0.15267962336E+02  0.47243558332E+03  0.48975261666E+03  0.12499851570E+03 0.  0.
          2    1    1    2  501    0 -0.19415259454E+02  0.35278479304E+02 -0.40478450537E+02  0.57096658042E+02  0.00000000000E+00 0. -1.
          1    1    1    2  502    0 -0.89485473855E+01 -0.20010516968E+02  0.65591224393E+03  0.65627842340E+03  0.00000000000E+00 0. -1.
         22    1    3    3    0    0 -0.29035328931E+02 -0.35276725411E+02  0.75943333157E+02  0.88627803385E+02  0.00000000000E+00 0. -1.
         22    1    3    3    0    0  0.57399135770E+02  0.20008763075E+02  0.39649225016E+03  0.40112481327E+03  0.00000000000E+00 0. -1.
</event>
<event>
 7    1  0.6681656E-006  0.6881803E+02  0.7818608E-02  0.1411675E+00
          2   -1    0    0  502    0  0.00000000000E+00  0.00000000000E+00  0.47868141996E+03  0.47868141996E+03  0.00000000000E+00 0. -1.
          1   -1    0    0  501    0 -0.00000000000E+00 -0.00000000000E+00 -0.17229469730E+04  0.17229469730E+04  0.00000000000E+00 0. -1.
         25    2    1    2    0    0 -0.46592862008E+02 -0.10152255601E+03 -0.19007724734E+03  0.25343957432E+03  0.12499813481E+03 0.  0.
          2    1    1    2  501    0  0.39489239348E+02  0.55146727484E+02 -0.14991885800E+04  0.15007221461E+04  0.00000000000E+00 0. -1.
          1    1    1    2  502    0  0.71036226603E+01  0.46375828524E+02  0.44500027425E+03  0.44746667251E+03  0.00000000000E+00 0. -1.
         22    1    3    3    0    0 -0.47027178316E+02  0.15936854738E+02 -0.65863429518E+02  0.82483514639E+02  0.00000000000E+00 0.  1.
         22    1    3    3    0    0  0.43431630737E+00 -0.11745941075E+03 -0.12421381782E+03  0.17095605968E+03  0.00000000000E+00 0.  1.
</event>
<event>
 7    1  0.6681656E-006  0.8818590E+02  0.7818608E-02  0.1384800E+00
          2   -1    0    0  502    0  0.00000000000E+00  0.00000000000E+00  0.33470595438E+04  0.33470595438E+04  0.00000000000E+00 0. -1.
          1   -1    0    0  501    0 -0.00000000000E+00 -0.00000000000E+00 -0.25518606005E+04  0.25518606005E+04  0.00000000000E+00 0. -1.
         25    2    1    2    0    0 -0.36374017353E+02 -0.60202902345E+02 -0.21771326994E+03  0.26071249412E+03  0.12499791235E+03 0.  0.
          2    1    1    2  501    0  0.15915285344E+01  0.89256558928E+02 -0.23116317283E+04  0.23133548179E+04  0.00000000000E+00 0. -1.
          1    1    1    2  502    0  0.34782488819E+02 -0.29053656583E+02  0.33245439416E+04  0.33248528323E+04  0.00000000000E+00 0. -1.
         22    1    3    3    0    0 -0.36372196420E+02  0.28008235783E+02 -0.12298173074E+03  0.13127034715E+03  0.00000000000E+00 0. -1.
         22    1    3    3    0    0 -0.18209331051E-02 -0.88211138127E+02 -0.94731539198E+02  0.12944214697E+03  0.00000000000E+00 0. -1.
</event>
<event>
 7    1  0.6681656E-006  0.1045025E+03  0.7818608E-02  0.1356229E+00
          2   -1    0    0  502    0  0.00000000000E+00  0.00000000000E+00  0.39211616427E+03  0.39211616427E+03  0.00000000000E+00 0. -1.
          1   -1    0    0  501    0 -0.00000000000E+00 -0.00000000000E+00 -0.14989687810E+04  0.14989687810E+04  0.00000000000E+00 0. -1.
         25    2    1    2    0    0 -0.38236646411E+02  0.47364466046E+02 -0.58045890737E+02  0.15066199113E+03  0.12499710543E+03 0.  0.
          2    1    1    2  501    0 -0.17810974617E+02  0.45047291149E+02 -0.13857363864E+04  0.13865827858E+04  0.00000000000E+00 0. -1.
          1    1    1    2  502    0  0.56047621028E+02 -0.92411757195E+02  0.33692966040E+03  0.35384016837E+03  0.00000000000E+00 0. -1.
         22    1    3    3    0    0 -0.24036202952E+02  0.28251051170E+02  0.37171381399E+02  0.52512594106E+02  0.00000000000E+00 0.  1.
         22    1    3    3    0    0 -0.14200443458E+02  0.19113414876E+02 -0.95217272136E+02  0.98149397021E+02  0.00000000000E+00 0.  1.
</event>
<event>
 7    1  0.6681656E-006  0.2770178E+02  0.7818608E-02  0.1659964E+00
          2   -1    0    0  502    0  0.00000000000E+00  0.00000000000E+00  0.92689029813E+03  0.92689029813E+03  0.00000000000E+00 0. -1.
          1   -1    0    0  501    0 -0.00000000000E+00 -0.00000000000E+00 -0.63558637651E+03  0.63558637651E+03  0.00000000000E+00 0. -1.
         25    2    1    2    0    0  0.15988162587E+02 -0.34024274460E+02  0.90260488255E+02  0.15868696480E+03  0.12498529698E+03 0.  0.
          2    1    1    2  501    0 -0.21612821519E+02  0.69168429836E+01 -0.60092011985E+03  0.60134844076E+03  0.00000000000E+00 0. -1.
          1    1    1    2  502    0  0.56246589315E+01  0.27107431476E+02  0.80196355321E+03  0.80244126907E+03  0.00000000000E+00 0. -1.
         22    1    3    3    0    0 -0.17395939729E+02 -0.37201147695E+02  0.11161478142E+03  0.11893024653E+03  0.00000000000E+00 0. -1.
         22    1    3    3    0    0  0.33384102316E+02  0.31768732358E+01 -0.21354293162E+02  0.39756718268E+02  0.00000000000E+00 0. -1.
</event>
<event>
 7    1  0.8216891E-006  0.8805382E+02  0.7818608E-02  0.1443454E+00
          2   -1    0    0  502    0  0.00000000000E+00  0.00000000000E+00  0.54578364938E+03  0.54578364938E+03  0.00000000000E+00 0. -1.
          1   -1    0    0  501    0 -0.00000000000E+00 -0.00000000000E+00 -0.20127866226E+04  0.20127866226E+04  0.00000000000E+00 0. -1.
         25    2    1    2    0    0  0.84349403453E+02  0.38721878606E+02 -0.50969122473E+03  0.53293915463E+03  0.12499916890E+03 0.  0.
          2    1    1    2  501    0  0.31218660226E+01 -0.28622777290E+02 -0.14877024920E+04  0.14879810866E+04  0.00000000000E+00 0. -1.
          1    1    1    2  502    0 -0.87471269476E+02 -0.10099101316E+02  0.53039074347E+03  0.53765003077E+03  0.00000000000E+00 0. -1.
         22    1    3    3    0    0  0.89312864283E+00  0.67420925670E+02 -0.21792065386E+03  0.22811354689E+03  0.00000000000E+00 0.  1.
         22    1    3    3    0    0  0.83456274810E+02 -0.28699047064E+02 -0.29177057087E+03  0.30482560774E+03  0.00000000000E+00 0.  1.
</event>
<event>
 7    1  0.6681656E-006  0.7570424E+02  0.7818608E-02  0.1346587E+00
          2   -1    0    0  502    0  0.00000000000E+00  0.00000000000E+00  0.30597335937E+03  0.30597335937E+03  0.00000000000E+00 0. -1.
          1   -1    0    0  501    0 -0.00000000000E+00 -0.00000000000E+00 -0.12431829302E+04  0.12431829302E+04  0.00000000000E+00 0. -1.
         25    2    1    2    0    0  0.15177596971E+02 -0.28867798501E+01 -0.31474167968E+03  0.33900773407E+03  0.12500090354E+03 0.  0.
          2    1    1    2  501    0 -0.10177851408E+01 -0.72580823504E+02 -0.90982169666E+03  0.91271273221E+03  0.00000000000E+00 0. -1.
          1    1    1    2  502    0 -0.14159811830E+02  0.75467603355E+02  0.28735380552E+03  0.29743582328E+03  0.00000000000E+00 0. -1.
         22    1    3    3    0    0 -0.20870983417E+02 -0.30845350131E+02 -0.27785761120E+03  0.28034244359E+03  0.00000000000E+00 0. -1.
         22    1    3    3    0    0  0.36048580388E+02  0.27958570281E+02 -0.36884068476E+02  0.58665290483E+02  0.00000000000E+00 0. -1.
</event>
<event>
 7    1  0.6681656E-006  0.3896952E+02  0.7818608E-02  0.1517243E+00
          2   -1    0    0  502    0  0.00000000000E+00  0.00000000000E+00  0.92052772931E+03  0.92052772931E+03  0.00000000000E+00 0. -1.
          1   -1    0    0  501    0 -0.00000000000E+00 -0.00000000000E+00 -0.21223521172E+02  0.21223521172E+02  0.00000000000E+00 0. -1.
         25    2    1    2    0    0  0.17412629583E+02 -0.25888983121E+02  0.25214826188E+03  0.28315440833E+03  0.12499693545E+03 0.  0.
          2    1    1    2  501    0 -0.38135613028E+02 -0.80186177105E+01  0.70339172881E+02  0.80412825175E+02  0.00000000000E+00 0. -1.
          1    1    1    2  502    0  0.20722983445E+02  0.33907600832E+02  0.57681677338E+03  0.57818401698E+03  0.00000000000E+00 0. -1.
         22    1    3    3    0    0 -0.27914417343E+01  0.48785594078E+02  0.12638993356E+03  0.13550734904E+03  0.00000000000E+00 0.  1.
         22    1    3    3    0    0  0.20204071317E+02 -0.74674577199E+02  0.12575832832E+03  0.14764705930E+03  0.00000000000E+00 0.  1.
</event>
<event>
 7    1  0.6681656E-006  0.9142370E+02  0.7818608E-02  0.1355050E+00
          2   -1    0    0  502    0  0.00000000000E+00  0.00000000000E+00  0.39847192675E+03  0.39847192675E+03  0.00000000000E+00 0. -1.
          1   -1    0    0  501    0 -0.00000000000E+00 -0.00000000000E+00 -0.10970620863E+04  0.10970620863E+04  0.00000000000E+00 0. -1.
         25    2    1    2    0    0  0.88848462161E+02  0.19225041584E+02  0.94873120077E+01  0.15485228936E+03  0.12500228389E+03 0.  0.
          2    1    1    2  501    0 -0.34253653054E+01 -0.55820268219E+02 -0.10167685389E+04  0.10183054046E+04  0.00000000000E+00 0. -1.
          1    1    1    2  502    0 -0.85423096856E+02  0.36595226635E+02  0.30869106729E+03  0.32237631909E+03  0.00000000000E+00 0. -1.
         22    1    3    3    0    0  0.50914937131E+02  0.68494926914E+02  0.28254238022E+02  0.89900988883E+02  0.00000000000E+00 0. -1.
         22    1    3    3    0    0  0.37933525030E+02 -0.49269885329E+02 -0.18766926014E+02  0.64951300477E+02  0.00000000000E+00 0. -1.
</event>
<event>
 7    1  0.6681656E-006  0.5346326E+02  0.7818608E-02  0.1457729E+00
          2   -1    0    0  502    0  0.00000000000E+00  0.00000000000E+00  0.33018890298E+03  0.33018890298E+03  0.00000000000E+00 0. -1.
          1   -1    0    0  501    0 -0.00000000000E+00 -0.00000000000E+00 -0.17254689284E+04  0.17254689284E+04  0.00000000000E+00 0. -1.
         25    2    1    2    0    0 -0.79017762138E+02 -0.53809662932E+02 -0.15222015859E+03  0.21894370081E+03  0.12500432346E+03 0.  0.
          2    1    1    2  501    0  0.34749169313E+02  0.24799633312E+02 -0.15372289383E+04  0.15378216201E+04  0.00000000000E+00 0. -1.
          1    1    1    2  502    0  0.44268592825E+02  0.29010029620E+02  0.29416907152E+03  0.29889251040E+03  0.00000000000E+00 0. -1.
         22    1    3    3    0    0 -0.74106518121E+02 -0.91545939449E+02 -0.10114533941E+03  0.15525081237E+03  0.00000000000E+00 0. -1.
         22    1    3    3    0    0 -0.49112440177E+01  0.37736276517E+02 -0.51074819179E+02  0.63692888436E+02  0.00000000000E+00 0. -1.
</event>
<event>
 7    1  0.6681656E-006  0.2150672E+03  0.7818608E-02  0.1237691E+00
          2   -1    0    0  502    0  0.00000000000E+00  0.00000000000E+00  0.49577798450E+03  0.49577798450E+03  0.00000000000E+00 0. -1.
          1   -1    0    0  501    0 -0.00000000000E+00 -0.00000000000E+00 -0.11739081175E+04  0.11739081175E+04  0.00000000000E+00 0. -1.
         25    2    1    2    0    0  0.14132258943E+03 -0.10330068941E+03 -0.37868358163E+03  0.43550929772E+03  0.12499594670E+03 0.  0.
          2    1    1    2  501    0 -0.18029470990E+03  0.16232723851E+03 -0.74476176209E+03  0.78327925866E+03  0.00000000000E+00 0. -1.
          1    1    1    2  502    0  0.38972120466E+02 -0.59026549108E+02  0.44531521076E+03  0.45089754558E+03  0.00000000000E+00 0. -1.
         22    1    3    3    0    0  0.11658465966E+03 -0.99124131730E+02 -0.18446331531E+03  0.23967538684E+03  0.00000000000E+00 0. -1.
         22    1    3    3    0    0  0.24737929765E+02 -0.41765576771E+01 -0.19422026632E+03  0.19583391089E+03  0.00000000000E+00 0. -1.
</event>
<event>
 7    1  0.6681656E-006  0.1017388E+03  0.7818608E-02  0.1319975E+00
          2   -1    0    0  502    0  0.00000000000E+00  0.00000000000E+00  0.33939659072E+04  0.33939659072E+04  0.00000000000E+00 0. -1.
          1   -1    0    0  501    0 -0.00000000000E+00 -0.00000000000E+00 -0.53464651519E+03  0.53464651519E+03  0.00000000000E+00 0. -1.
         25    2    1    2    0    0 -0.71796511126E+02  0.26566973987E+02  0.78580317418E+03  0.79935710795E+03  0.12499845744E+03 0.  0.
          2    1    1    2  501    0 -0.31186286703E+02 -0.60630941048E+02 -0.52453150221E+03  0.52894422419E+03  0.00000000000E+00 0. -1.
          1    1    1    2  502    0  0.10298279783E+03  0.34063967061E+02  0.25980477200E+04  0.26003110903E+04  0.00000000000E+00 0. -1.
         22    1    3    3    0    0  0.33442887825E+02 -0.92881264808E+01  0.15584637876E+03  0.15966461665E+03  0.00000000000E+00 0.  1.
         22    1    3    3    0    0 -0.10523939895E+03  0.35855100468E+02  0.62995679542E+03  0.63969249129E+03  0.00000000000E+00 0.  1.
</event>
<event>
 7    1  0.6681656E-006  0.1113950E+03  0.7818608E-02  0.1263781E+00
          2   -1    0    0  502    0  0.00000000000E+00  0.00000000000E+00  0.16000870133E+04  0.16000870133E+04  0.00000000000E+00 0. -1.
          1   -1    0    0  501    0 -0.00000000000E+00 -0.00000000000E+00 -0.58504992609E+03  0.58504992609E+03  0.00000000000E+00 0. -1.
         25    2    1    2    0    0 -0.81758409312E+02 -0.59630387438E+02  0.32209203847E+03  0.36001259843E+03  0.12500227671E+03 0.  0.
          2    1    1    2  501    0 -0.18907709311E+02  0.10977863550E+03 -0.55806246492E+03  0.56907166951E+03  0.00000000000E+00 0. -1.
          1    1    1    2  502    0  0.10066611862E+03 -0.50148248059E+02  0.12510075136E+04  0.12560526714E+04  0.00000000000E+00 0. -1.
         22    1    3    3    0    0 -0.48882780298E+01 -0.62363525424E+02  0.59300792515E+02  0.86195641179E+02  0.00000000000E+00 0. -1.
         22    1    3    3    0    0 -0.76870131282E+02  0.27331379858E+01  0.26279124596E+03  0.27381695725E+03  0.00000000000E+00 0. -1.
</event>
<event>
 7    1  0.6681656E-006  0.2736286E+02  0.7818608E-02  0.1657487E+00
          2   -1    0    0  502    0  0.00000000000E+00  0.00000000000E+00  0.17506674413E+04  0.17506674413E+04  0.00000000000E+00 0. -1.
          1   -1    0    0  501    0 -0.00000000000E+00 -0.00000000000E+00 -0.13523829862E+03  0.13523829862E+03  0.00000000000E+00 0. -1.
         25    2    1    2    0    0 -0.38989849814E+02 -0.21942067095E+02  0.48729781526E+03  0.50505994845E+03  0.12499891229E+03 0.  0.
          2    1    1    2  501    0  0.27263725016E+02  0.18150099630E+01 -0.12477053494E+03  0.12772741034E+03  0.00000000000E+00 0. -1.
          1    1    1    2  502    0  0.11726124798E+02  0.20127057132E+02  0.12529018624E+04  0.12531183811E+04  0.00000000000E+00 0. -1.
         22    1    3    3    0    0 -0.66542991511E+02 -0.57149972147E+02  0.33948324112E+03  0.35063222904E+03  0.00000000000E+00 0.  1.
         22    1    3    3    0    0  0.27553141697E+02  0.35207905052E+02  0.14781457414E+03  0.15442771941E+03  0.00000000000E+00 0.  1.
</event>
<event>
 7    1  0.6681656E-006  0.1996909E+03  0.7818608E-02  0.1232693E+00
          2   -1    0    0  502    0  0.00000000000E+00  0.00000000000E+00  0.35674210320E+04  0.35674210320E+04  0.00000000000E+00 0. -1.
          1   -1    0    0  501    0 -0.00000000000E+00 -0.00000000000E+00 -0.13590448675E+04  0.13590448675E+04  0.00000000000E+00 0. -1.
         25    2    1    2    0    0  0.21360501215E+03 -0.17853771411E+03 -0.50228224602E+02  0.30927414444E+03  0.12499922119E+03 0.  0.
          2    1    1    2  501    0 -0.58172357198E+02  0.55175123527E+02 -0.11750629823E+04  0.11777951137E+04  0.00000000000E+00 0. -1.
          1    1    1    2  502    0 -0.15543265495E+03  0.12336259059E+03  0.34336673714E+04  0.34393966414E+04  0.00000000000E+00 0. -1.
         22    1    3    3    0    0 -0.47416738284E+01 -0.35532870030E+02  0.17105572733E+02  0.39719880939E+02  0.00000000000E+00 0. -1.
         22    1    3    3    0    0  0.21834668598E+03 -0.14300484408E+03 -0.67333797336E+02  0.26955426350E+03  0.00000000000E+00 0. -1.
</event>
<event>
 7    1  0.6681656E-006  0.2901956E+02  0.7818608E-02  0.1650443E+00
          2   -1    0    0  502    0  0.00000000000E+00  0.00000000000E+00  0.13965288936E+04  0.13965288936E+04  0.00000000000E+00 0. -1.
          1   -1    0    0  501    0 -0.00000000000E+00 -0.00000000000E+00 -0.28105293117E+03  0.28105293117E+03  0.00000000000E+00 0. -1.
         25    2    1    2    0    0  0.58022802024E+01  0.93033450861E+01  0.19725338045E+03  0.23377289786E+03  0.12498261075E+03 0.  0.
          2    1    1    2  501    0 -0.12450427793E+02  0.19160911544E+02 -0.26211515586E+03  0.26310930925E+03  0.00000000000E+00 0. -1.
          1    1    1    2  502    0  0.66481475909E+01 -0.28464256630E+02  0.11803377378E+04  0.11806996177E+04  0.00000000000E+00 0. -1.
         22    1    3    3    0    0  0.52990960448E+02  0.29363613023E+02  0.52358906731E+02  0.80073208835E+02  0.00000000000E+00 0.  1.
         22    1    3    3    0    0 -0.47188680246E+02 -0.20060267937E+02  0.14489447372E+03  0.15369968903E+03  0.00000000000E+00 0.  1.
</event>
<event>
 7    1  0.6681656E-006  0.1109648E+03  0.7818608E-02  0.1394018E+00
          2   -1    0    0  502    0  0.00000000000E+00  0.00000000000E+00  0.18563042003E+04  0.18563042003E+04  0.00000000000E+00 0. -1.
          1   -1    0    0  501    0 -0.00000000000E+00 -0.00000000000E+00 -0.78591050461E+02  0.78591050461E+02  0.00000000000E+00 0. -1.
         25    2    1    2    0    0  0.60580562023E+02 -0.86108579290E+02  0.37679630669E+03  0.41071334031E+03  0.12500119700E+03 0.  0.
          2    1    1    2  501    0  0.28383270703E+02  0.17687313457E+02 -0.54770946728E+02  0.64174042405E+02  0.00000000000E+00 0. -1.
          1    1    1    2  502    0 -0.88963832726E+02  0.68421265833E+02  0.14556877899E+04  0.14600078681E+04  0.00000000000E+00 0. -1.
         22    1    3    3    0    0 -0.14323683879E+02  0.18907119369E+02  0.19052103533E+02  0.30424163616E+02  0.00000000000E+00 0. -1.
         22    1    3    3    0    0  0.74904245902E+02 -0.10501569866E+03  0.35774420315E+03  0.38028917669E+03  0.00000000000E+00 0. -1.
</event>
<event>
 7    1  0.6681656E-006  0.1542572E+03  0.7818608E-02  0.1270169E+00
          2   -1    0    0  502    0  0.00000000000E+00  0.00000000000E+00  0.93175353800E+03  0.93175353800E+03  0.00000000000E+00 0. -1.
          1   -1    0    0  501    0 -0.00000000000E+00 -0.00000000000E+00 -0.13215171549E+04  0.13215171549E+04  0.00000000000E+00 0. -1.
         25    2    1    2    0    0  0.15629104637E+03 -0.12130728847E+03  0.12597403739E+03  0.26575847752E+03  0.12496303800E+03 0.  0.
          2    1    1    2  501    0 -0.14479412486E+03  0.50801002883E+02 -0.12451703708E+04  0.12545897069E+04  0.00000000000E+00 0. -1.
          1    1    1    2  502    0 -0.11496921511E+02  0.70506285591E+02  0.72943271649E+03  0.73292250845E+03  0.00000000000E+00 0. -1.
         22    1    3    3    0    0  0.34945082675E+02 -0.10224153994E+03  0.80647894525E+02  0.13482794289E+03  0.00000000000E+00 0.  1.
         22    1    3    3    0    0  0.12134596369E+03 -0.19065748535E+02  0.45326142868E+02  0.13093053463E+03  0.00000000000E+00 0.  1.
</event>
<event>
 7    1  0.6681656E-006  0.3580548E+03  0.7818608E-02  0.1150778E+00
          2   -1    0    0  502    0  0.00000000000E+00  0.00000000000E+00  0.22053183756E+04  0.22053183756E+04  0.00000000000E+00 0. -1.
          1   -1    0    0  501    0 -0.00000000000E+00 -0.00000000000E+00 -0.39008983910E+03  0.39008983910E+03  0.00000000000E+00 0. -1.
         25    2    1    2    0    0 -0.20969450654E+02 -0.27630326796E+03  0.12431736167E+04  0.12798003767E+04  0.12500059731E+03 0.  0.
          2    1    1    2  501    0 -0.49984376911E+02  0.36081659007E+03 -0.27812162591E+03  0.45829978006E+03  0.00000000000E+00 0. -1.
          1    1    1    2  502    0  0.70953827565E+02 -0.84513322111E+02  0.85017654570E+03  0.85730805789E+03  0.00000000000E+00 0. -1.
         22    1    3    3    0    0  0.14419105781E+02 -0.12287854023E+03  0.79949807177E+03  0.80901434662E+03  0.00000000000E+00 0. -1.
         22    1    3    3    0    0 -0.35388556434E+02 -0.15342472772E+03  0.44367554492E+03  0.47078603013E+03  0.00000000000E+00 0. -1.
</event>
<event>
 7    1  0.6681656E-006  0.1020873E+03  0.7818608E-02  0.1337068E+00
          2   -1    0    0  502    0  0.00000000000E+00  0.00000000000E+00  0.59616302921E+03  0.59616302921E+03  0.00000000000E+00 0. -1.
          1   -1    0    0  501    0 -0.00000000000E+00 -0.00000000000E+00 -0.80443421086E+03  0.80443421086E+03  0.00000000000E+00 0. -1.
         25    2    1    2    0    0 -0.96845386456E+02 -0.79138631089E+02 -0.38058071761E+02  0.18088072857E+03  0.12500987694E+03 0.  0.
          2    1    1    2  501    0  0.56679609228E+02 -0.14245220675E+02 -0.68879252423E+03  0.69126741992E+03  0.00000000000E+00 0. -1.
          1    1    1    2  502    0  0.40165777228E+02  0.93383851763E+02  0.51857941433E+03  0.52844909159E+03  0.00000000000E+00 0. -1.
         22    1    3    3    0    0  0.23422935557E+02 -0.32571302807E+02 -0.32773242526E+02  0.51803562641E+02  0.00000000000E+00 0. -1.
         22    1    3    3    0    0 -0.12026832201E+03 -0.46567328282E+02 -0.52848292348E+01  0.12907716592E+03  0.00000000000E+00 0. -1.
</event>
<event>
 7    1  0.6681656E-006  0.1330437E+03  0.7818608E-02  0.1369564E+00
          2   -1    0    0  502    0  0.00000000000E+00  0.00000000000E+00  0.25413841968E+04  0.25413841968E+04  0.00000000000E+00 0. -1.
          1   -1    0    0  501    0 -0.00000000000E+00 -0.00000000000E+00 -0.94617719808E+02  0.94617719808E+02  0.00000000000E+00 0. -1.
         25    2    1    2    0    0 -0.93352094981E+02  0.45070646961E+02  0.14026413645E+03  0.21458022715E+03  0.12499867622E+03 0.  0.
          2    1    1    2  501    0 -0.33999052945E+02 -0.14975959675E+01 -0.50326180187E+02  0.60752800817E+02  0.00000000000E+00 0. -1.
          1    1    1    2  502    0  0.12735114793E+03 -0.43573050994E+02  0.23568285207E+04  0.23606688886E+04  0.00000000000E+00 0. -1.
         22    1    3    3    0    0 -0.35955885321E+02 -0.16100841918E+02  0.12271210690E+03  0.12888104585E+03  0.00000000000E+00 0. -1.
         22    1    3    3    0    0 -0.57396209659E+02  0.61171488879E+02  0.17552029548E+02  0.85699181304E+02  0.00000000000E+00 0. -1.
</event>
<event>
 7    1  0.6681656E-006  0.9345515E+02  0.7818608E-02  0.1397573E+00
          2   -1    0    0  502    0  0.00000000000E+00  0.00000000000E+00  0.92821255991E+03  0.92821255991E+03  0.00000000000E+00 0. -1.
          1   -1    0    0  501    0 -0.00000000000E+00 -0.00000000000E+00 -0.16485555377E+03  0.16485555377E+03  0.00000000000E+00 0. -1.
         25    2    1    2    0    0 -0.12646608527E+02 -0.60926132972E+02  0.12504199913E+03  0.18743208110E+03  0.12499341220E+03 0.  0.
          2    1    1    2  501    0  0.39315425134E+02  0.88832583666E+02 -0.11545025983E+03  0.15088304434E+03  0.00000000000E+00 0. -1.
          1    1    1    2  502    0 -0.26668816607E+02 -0.27906450695E+02  0.75376526684E+03  0.75475298824E+03  0.00000000000E+00 0. -1.
         22    1    3    3    0    0 -0.11205386655E+02  0.34452164382E+02  0.92151414733E+01  0.37382230445E+02  0.00000000000E+00 0.  1.
         22    1    3    3    0    0 -0.14412218721E+01 -0.95378297353E+02  0.11582685765E+03  0.15004985065E+03  0.00000000000E+00 0.  1.
</event>
<event>
 7    1  0.6681656E-006  0.1228699E+03  0.7818608E-02  0.1349544E+00
          2   -1    0    0  502    0  0.00000000000E+00  0.00000000000E+00  0.16337124068E+04  0.16337124068E+04  0.00000000000E+00 0. -1.
          1   -1    0    0  501    0 -0.00000000000E+00 -0.00000000000E+00 -0.21218778624E+03  0.21218778624E+03  0.00000000000E+00 0. -1.
         25    2    1    2    0    0 -0.77377794823E+01 -0.15820643788E+03  0.12318171229E+03  0.23640656393E+03  0.12500071605E+03 0.  0.
          2    1    1    2  501    0 -0.18179347823E+02  0.39636269321E+02 -0.14993071500E+03  0.15614333746E+03  0.00000000000E+00 0. -1.
          1    1    1    2  502    0  0.25917127306E+02  0.11857016856E+03  0.14482736232E+04  0.14533502916E+04  0.00000000000E+00 0. -1.
         22    1    3    3    0    0 -0.50578922549E+02 -0.28208770536E+02  0.66705567415E+02  0.88337958237E+02  0.00000000000E+00 0.  1.
         22    1    3    3    0    0  0.42841143067E+02 -0.12999766734E+03  0.56476144870E+02  0.14806860570E+03  0.00000000000E+00 0.  1.
</event>
<event>
 7    1  0.6681656E-006  0.1386797E+03  0.7818608E-02  0.1354084E+00
          2   -1    0    0  502    0  0.00000000000E+00  0.00000000000E+00  0.40666212254E+03  0.40666212254E+03  0.00000000000E+00 0. -1.
          1   -1    0    0  501    0 -0.00000000000E+00 -0.00000000000E+00 -0.10808865119E+04  0.10808865119E+04  0.00000000000E+00 0. -1.
         25    2    1    2    0    0  0.16182730034E+02 -0.14119463946E+03 -0.84565409486E+02  0.20730948105E+03  0.12501242134E+03 0.  0.
          2    1    1    2  501    0 -0.36958054217E+02  0.39769263907E+01 -0.92061381573E+03  0.92136394082E+03  0.00000000000E+00 0. -1.
          1    1    1    2  502    0  0.20775324182E+02  0.13721771307E+03  0.33095483582E+03  0.35887521261E+03  0.00000000000E+00 0. -1.
         22    1    3    3    0    0  0.29252436408E+02 -0.24107961337E+02  0.25818433492E+02  0.45863823910E+02  0.00000000000E+00 0.  1.
         22    1    3    3    0    0 -0.13069706374E+02 -0.11708667812E+03 -0.11038384298E+03  0.16144565714E+03  0.00000000000E+00 0.  1.
</event>
<event>
 7    1  0.6681656E-006  0.6273646E+02  0.7818608E-02  0.1445427E+00
          2   -1    0    0  502    0  0.00000000000E+00  0.00000000000E+00  0.69649380626E+02  0.69649380626E+02  0.00000000000E+00 0. -1.
          1   -1    0    0  501    0 -0.00000000000E+00 -0.00000000000E+00 -0.73335643719E+03  0.73335643719E+03  0.00000000000E+00 0. -1.
         25    2    1    2    0    0 -0.38057807914E+01  0.42930020313E+02 -0.45922764158E+02  0.13996946835E+03  0.12500032476E+03 0.  0.
          2    1    1    2  501    0  0.20781786111E+02  0.33971724495E+02 -0.56901165423E+03  0.57040356183E+03  0.00000000000E+00 0. -1.
          1    1    1    2  502    0 -0.16976005319E+02 -0.76901744808E+02 -0.48772638173E+02  0.92632787638E+02  0.00000000000E+00 0. -1.
         22    1    3    3    0    0 -0.40362559964E+02  0.91045798302E+01 -0.72530264350E+02  0.83502508150E+02  0.00000000000E+00 0.  1.
         22    1    3    3    0    0  0.36556779173E+02  0.33825440483E+02  0.26607500192E+02  0.56466960196E+02  0.00000000000E+00 0.  1.
</event>
<event>
 7    1  0.6681656E-006  0.2063556E+03  0.7818608E-02  0.1287919E+00
          2   -1    0    0  502    0  0.00000000000E+00  0.00000000000E+00  0.12470314719E+04  0.12470314719E+04  0.00000000000E+00 0. -1.
          1   -1    0    0  501    0 -0.00000000000E+00 -0.00000000000E+00 -0.57313077014E+03  0.57313077014E+03  0.00000000000E+00 0. -1.
         25    2    1    2    0    0  0.19665072853E+03  0.13090967153E+02 -0.62207717678E+02  0.24153201278E+03  0.12500012244E+03 0.  0.
          2    1    1    2  501    0 -0.20784788702E+03  0.30587568779E+02 -0.39459057274E+03  0.44703250844E+03  0.00000000000E+00 0. -1.
          1    1    1    2  502    0  0.11197158493E+02 -0.43678535932E+02  0.11306989922E+04  0.11315977209E+04  0.00000000000E+00 0. -1.
         22    1    3    3    0    0  0.70724528964E+02 -0.29560069271E+02 -0.75903508818E+02  0.10787538803E+03  0.00000000000E+00 0.  1.
         22    1    3    3    0    0  0.12592619956E+03  0.42651036424E+02  0.13695791140E+02  0.13365662475E+03  0.00000000000E+00 0.  1.
</event>
<event>
 7    1  0.6681656E-006  0.5961438E+02  0.7818608E-02  0.1402827E+00
          2   -1    0    0  502    0  0.00000000000E+00  0.00000000000E+00  0.16415528180E+04  0.16415528180E+04  0.00000000000E+00 0. -1.
          1   -1    0    0  501    0 -0.00000000000E+00 -0.00000000000E+00 -0.37017046364E+03  0.37017046364E+03  0.00000000000E+00 0. -1.
         25    2    1    2    0    0 -0.59192438810E+01 -0.32840706838E+00 -0.84083863038E+02  0.15077777453E+03  0.12501478300E+03 0.  0.
          2    1    1    2  501    0  0.57179233414E+02 -0.30106561099E+02 -0.24804608330E+03  0.25632543610E+03  0.00000000000E+00 0. -1.
          1    1    1    2  502    0 -0.51259989533E+02  0.30434968167E+02  0.16035123007E+04  0.16046200710E+04  0.00000000000E+00 0. -1.
         22    1    3    3    0    0  0.58213104448E+01 -0.23473252086E+02 -0.11087255699E+03  0.11347953609E+03  0.00000000000E+00 0.  1.
         22    1    3    3    0    0 -0.11740554326E+02  0.23144845018E+02  0.26788693949E+02  0.37298238434E+02  0.00000000000E+00 0.  1.
</event>
<event>
 7    1  0.6681656E-006  0.3057586E+02  0.7818608E-02  0.1600502E+00
          2   -1    0    0  502    0  0.00000000000E+00  0.00000000000E+00  0.13154385744E+04  0.13154385744E+04  0.00000000000E+00 0. -1.
          1   -1    0    0  501    0 -0.00000000000E+00 -0.00000000000E+00 -0.21327660771E+02  0.21327660771E+02  0.00000000000E+00 0. -1.
         25    2    1    2    0    0 -0.40200248274E+02  0.36731007294E+02  0.53812621999E+03  0.55512988005E+03  0.12499651283E+03 0.  0.
          2    1    1    2  501    0  0.27311630745E+02 -0.97811410302E+01  0.42635876994E+01  0.29321904335E+02  0.00000000000E+00 0. -1.
          1    1    1    2  502    0  0.12888617530E+02 -0.26949866264E+02  0.75172110593E+03  0.75231445078E+03  0.00000000000E+00 0. -1.
         22    1    3    3    0    0 -0.33213724662E+02 -0.40163244885E+02  0.13571062771E+03  0.14537404246E+03  0.00000000000E+00 0.  1.
         22    1    3    3    0    0 -0.69865236127E+01  0.76894252179E+02  0.40241559228E+03  0.40975583759E+03  0.00000000000E+00 0.  1.
</event>
<event>
 7    1  0.6681656E-006  0.1002638E+03  0.7818608E-02  0.1371590E+00
          2   -1    0    0  502    0  0.00000000000E+00  0.00000000000E+00  0.79138038297E+03  0.79138038297E+03  0.00000000000E+00 0. -1.
          1   -1    0    0  501    0 -0.00000000000E+00 -0.00000000000E+00 -0.75663155872E+03  0.75663155872E+03  0.00000000000E+00 0. -1.
         25    2    1    2    0    0 -0.18356016030E+02 -0.14291421261E+03 -0.21317962786E+03  0.28606420665E+03  0.12500304438E+03 0.  0.
          2    1    1    2  501    0  0.50994012035E+01  0.44114301253E+02 -0.50273588311E+03  0.50469341548E+03  0.00000000000E+00 0. -1.
          1    1    1    2  502    0  0.13256614826E+02  0.98799911358E+02  0.75066433521E+03  0.75725431955E+03  0.00000000000E+00 0. -1.
         22    1    3    3    0    0 -0.24533295702E+02 -0.66607037407E+02 -0.19480393993E+03  0.20733295696E+03  0.00000000000E+00 0.  1.
         22    1    3    3    0    0  0.61772796727E+01 -0.76307175204E+02 -0.18375687929E+02  0.78731249696E+02  0.00000000000E+00 0.  1.
</event>
<event>
 7    1  0.6681656E-006  0.1561181E+03  0.7818608E-02  0.1337793E+00
          2   -1    0    0  502    0  0.00000000000E+00  0.00000000000E+00  0.92459950647E+03  0.92459950647E+03  0.00000000000E+00 0. -1.
          1   -1    0    0  501    0 -0.00000000000E+00 -0.00000000000E+00 -0.26535047070E+03  0.26535047070E+03  0.00000000000E+00 0. -1.
         25    2    1    2    0    0  0.14031836370E+03  0.10582869536E+03  0.41607630756E+03  0.46865095820E+03  0.12500108385E+03 0.  0.
          2    1    1    2  501    0 -0.13954774059E+03 -0.67860609534E+02 -0.21301058403E+03  0.26353774519E+03  0.00000000000E+00 0. -1.
          1    1    1    2  502    0 -0.77062310179E+00 -0.37968085825E+02  0.45618331225E+03  0.45776127378E+03  0.00000000000E+00 0. -1.
         22    1    3    3    0    0  0.29991056812E+02  0.98107597121E+02  0.16495751635E+03  0.19425639321E+03  0.00000000000E+00 0.  1.
         22    1    3    3    0    0  0.11032730688E+03  0.77210982392E+01  0.25111879120E+03  0.27439456499E+03  0.00000000000E+00 0.  1.
</event>
<event>
 7    1  0.6681656E-006  0.5804515E+02  0.7818608E-02  0.1463371E+00
          2   -1    0    0  502    0  0.00000000000E+00  0.00000000000E+00  0.14070609001E+04  0.14070609001E+04  0.00000000000E+00 0. -1.
          1   -1    0    0  501    0 -0.00000000000E+00 -0.00000000000E+00 -0.41471191968E+03  0.41471191968E+03  0.00000000000E+00 0. -1.
         25    2    1    2    0    0  0.67797461083E+01  0.93204353936E+02  0.72449949397E+02  0.17206932954E+03  0.12500336976E+03 0.  0.
          2    1    1    2  501    0  0.46209319958E+01 -0.57224095266E+02 -0.36236472304E+03  0.36688437225E+03  0.00000000000E+00 0. -1.
          1    1    1    2  502    0 -0.11400678104E+02 -0.35980258670E+02  0.12822637541E+04  0.12828191180E+04  0.00000000000E+00 0. -1.
         22    1    3    3    0    0 -0.46195759599E+02  0.68511910481E+02  0.77650211221E+02  0.11339085230E+03  0.00000000000E+00 0. -1.
         22    1    3    3    0    0  0.52975505707E+02  0.24692443455E+02 -0.52002618243E+01  0.58678477244E+02  0.00000000000E+00 0. -1.
</event>
<event>
 7    1  0.6681656E-006  0.1384903E+03  0.7818608E-02  0.1265387E+00
          2   -1    0    0  502    0  0.00000000000E+00  0.00000000000E+00  0.12708939531E+04  0.12708939531E+04  0.00000000000E+00 0. -1.
          1   -1    0    0  501    0 -0.00000000000E+00 -0.00000000000E+00 -0.37170586573E+03  0.37170586573E+03  0.00000000000E+00 0. -1.
         25    2    1    2    0    0  0.19951717352E+01 -0.55842105023E+01  0.44042741352E+03  0.45786110967E+03  0.12500130018E+03 0.  0.
          2    1    1    2  501    0  0.13803888230E+03  0.11172590254E+02 -0.34348013436E+03  0.37034870392E+03  0.00000000000E+00 0. -1.
          1    1    1    2  502    0 -0.14003405404E+03 -0.55883797514E+01  0.80224080820E+03  0.81439000523E+03  0.00000000000E+00 0. -1.
         22    1    3    3    0    0 -0.30925936834E+02 -0.33337212100E+02  0.38498964622E+03  0.38766584964E+03  0.00000000000E+00 0. -1.
         22    1    3    3    0    0  0.32921108569E+02  0.27753001598E+02  0.55437767304E+02  0.70195260031E+02  0.00000000000E+00 0. -1.
</event>
<event>
 7    1  0.6681656E-006  0.1311991E+03  0.7818608E-02  0.1309709E+00
          2   -1    0    0  502    0  0.00000000000E+00  0.00000000000E+00  0.93481931758E+03  0.93481931758E+03  0.00000000000E+00 0. -1.
          1   -1    0    0  501    0 -0.00000000000E+00 -0.00000000000E+00 -0.52658890897E+03  0.52658890897E+03  0.00000000000E+00 0. -1.
         25    2    1    2    0    0 -0.86807573875E+02 -0.16093704060E+03  0.12372786862E+03  0.25371237351E+03  0.12500038831E+03 0.  0.
          2    1    1    2  501    0  0.38176159829E+02  0.43654480592E+02 -0.45433869406E+03  0.45802487026E+03  0.00000000000E+00 0. -1.
          1    1    1    2  502    0  0.48631414046E+02  0.11728256000E+03  0.73884123404E+03  0.74967098279E+03  0.00000000000E+00 0. -1.
         22    1    3    3    0    0 -0.60835114405E+02 -0.89544928198E+01  0.10413668785E+02  0.62366165378E+02  0.00000000000E+00 0. -1.
         22    1    3    3    0    0 -0.25972459470E+02 -0.15198254778E+03  0.11331419984E+03  0.19134620813E+03  0.00000000000E+00 0. -1.
</event>
<event>
 7    1  0.6681656E-006  0.9752411E+02  0.7818608E-02  0.1379932E+00
          2   -1    0    0  502    0  0.00000000000E+00  0.00000000000E+00  0.49786002399E+03  0.49786002399E+03  0.00000000000E+00 0. -1.
          1   -1    0    0  501    0 -0.00000000000E+00 -0.00000000000E+00 -0.59117663251E+02  0.59117663251E+02  0.00000000000E+00 0. -1.
         25    2    1    2    0    0 -0.17291407303E+02  0.11184903330E+03  0.12769469454E+03  0.21151922163E+03  0.12500098835E+03 0.  0.
          2    1    1    2  501    0  0.38412460766E+02 -0.18497897421E+02  0.41806907962E+02  0.59711865692E+02  0.00000000000E+00 0. -1.
          1    1    1    2  502    0 -0.21121053464E+02 -0.93351135875E+02  0.26924075824E+03  0.28574659992E+03  0.00000000000E+00 0. -1.
         22    1    3    3    0    0 -0.87536192588E+01  0.13943093273E+03  0.10767520502E+03  0.17638469500E+03  0.00000000000E+00 0.  1.
         22    1    3    3    0    0 -0.85377880441E+01 -0.27581899436E+02  0.20019489514E+02  0.35134526631E+02  0.00000000000E+00 0.  1.
</event>
<event>
 7    1  0.6681656E-006  0.6205742E+02  0.7818608E-02  0.1399598E+00
          2   -1    0    0  502    0  0.00000000000E+00  0.00000000000E+00  0.20841859060E+04  0.20841859060E+04  0.00000000000E+00 0. -1.
          1   -1    0    0  501    0 -0.00000000000E+00 -0.00000000000E+00 -0.10861909832E+03  0.10861909832E+03  0.00000000000E+00 0. -1.
         25    2    1    2    0    0 -0.54151462279E+02  0.55934227031E+01  0.17421699621E+03  0.22122433173E+03  0.12499990376E+03 0.  0.
          2    1    1    2  501    0  0.15488454167E+02 -0.55067060780E+02 -0.74919319726E+02  0.94261221420E+02  0.00000000000E+00 0. -1.
          1    1    1    2  502    0  0.38663008112E+02  0.49473638077E+02  0.18762691312E+04  0.18773194511E+04  0.00000000000E+00 0. -1.
         22    1    3    3    0    0 -0.55343463724E+02 -0.92772108085E+01  0.19082205546E+03  0.19890204239E+03  0.00000000000E+00 0.  1.
         22    1    3    3    0    0  0.11920014444E+01  0.14870633512E+02 -0.16605059256E+02  0.22322289340E+02  0.00000000000E+00 0.  1.
</event>
<event>
 7    1  0.6681656E-006  0.1341120E+03  0.7818608E-02  0.1290659E+00
          2   -1    0    0  502    0  0.00000000000E+00  0.00000000000E+00  0.18656785966E+03  0.18656785966E+03  0.00000000000E+00 0. -1.
          1   -1    0    0  501    0 -0.00000000000E+00 -0.00000000000E+00 -0.49924626463E+03  0.49924626463E+03  0.00000000000E+00 0. -1.
         25    2    1    2    0    0  0.28883518131E+02  0.71893442128E+02  0.21074290367E+02  0.14856335790E+03  0.12499608376E+03 0.  0.
          2    1    1    2  501    0 -0.76347248483E+02 -0.12005735131E+03 -0.41079855651E+03  0.43473914476E+03  0.00000000000E+00 0. -1.
          1    1    1    2  502    0  0.47463730352E+02  0.48163909182E+02  0.77045861168E+02  0.10251162163E+03  0.00000000000E+00 0. -1.
         22    1    3    3    0    0  0.73359796663E+02  0.15154799159E+02  0.12844945444E+02  0.76002107388E+02  0.00000000000E+00 0. -1.
         22    1    3    3    0    0 -0.44476278532E+02  0.56738642970E+02  0.82293449233E+01  0.72561250513E+02  0.00000000000E+00 0. -1.
</event>
<event>
 7    1  0.6681656E-006  0.5420193E+02  0.7818608E-02  0.1488344E+00
          2   -1    0    0  502    0  0.00000000000E+00  0.00000000000E+00  0.42098194857E+03  0.42098194857E+03  0.00000000000E+00 0. -1.
          1   -1    0    0  501    0 -0.00000000000E+00 -0.00000000000E+00 -0.53530886858E+03  0.53530886858E+03  0.00000000000E+00 0. -1.
         25    2    1    2    0    0 -0.87094272593E+02 -0.93066983519E+01  0.83666461425E+02  0.17406127822E+03  0.12500089942E+03 0.  0.
          2    1    1    2  501    0  0.53674748247E+02  0.39364949965E+01 -0.48764551758E+03  0.49060638542E+03  0.00000000000E+00 0. -1.
          1    1    1    2  502    0  0.33419524346E+02  0.53702033554E+01  0.28965213615E+03  0.29162315352E+03  0.00000000000E+00 0. -1.
         22    1    3    3    0    0  0.18694243612E+02  0.30350475340E+02  0.41070210461E+01  0.35881662718E+02  0.00000000000E+00 0.  1.
         22    1    3    3    0    0 -0.10578851621E+03 -0.39657173692E+02  0.79559440378E+02  0.13817961550E+03  0.00000000000E+00 0.  1.
</event>
<event>
 7    1  0.6681656E-006  0.5827829E+02  0.7818608E-02  0.1409549E+00
          2   -1    0    0  502    0  0.00000000000E+00  0.00000000000E+00  0.33262738394E+02  0.33262738394E+02  0.00000000000E+00 0. -1.
          1   -1    0    0  501    0 -0.00000000000E+00 -0.00000000000E+00 -0.73286392827E+03  0.73286392827E+03  0.00000000000E+00 0. -1.
         25    2    1    2    0    0  0.13882323120E+02 -0.54243343774E+02 -0.16605156071E+03  0.21524842311E+03  0.12499481428E+03 0.  0.
          2    1    1    2  501    0  0.51286129152E+02  0.27678362856E+02 -0.33940729947E+03  0.34437432214E+03  0.00000000000E+00 0. -1.
          1    1    1    2  502    0 -0.65168452272E+02  0.26564980917E+02 -0.19414232969E+03  0.20650392142E+03  0.00000000000E+00 0. -1.
         22    1    3    3    0    0  0.23445689030E+02 -0.85142124831E+02 -0.66428777140E+02  0.11050639885E+03  0.00000000000E+00 0. -1.
         22    1    3    3    0    0 -0.95633659101E+01  0.30898781057E+02 -0.99622783571E+02  0.10474202425E+03  0.00000000000E+00 0. -1.
</event>
<event>
 7    1  0.6681656E-006  0.1065451E+03  0.7818608E-02  0.1338016E+00
          2   -1    0    0  502    0  0.00000000000E+00  0.00000000000E+00  0.35858004187E+04  0.35858004187E+04  0.00000000000E+00 0. -1.
          1   -1    0    0  501    0 -0.00000000000E+00 -0.00000000000E+00 -0.13219661781E+03  0.13219661781E+03  0.00000000000E+00 0. -1.
         25    2    1    2    0    0  0.10185341662E+03 -0.31728441734E+02  0.86720237810E+03  0.88263532980E+03  0.12499739335E+03 0.  0.
          2    1    1    2  501    0 -0.10423869706E+03 -0.23757633570E+02 -0.10118450270E+03  0.14720202005E+03  0.00000000000E+00 0. -1.
          1    1    1    2  502    0  0.23852804425E+01  0.55486075304E+02  0.26875859255E+04  0.26881596867E+04  0.00000000000E+00 0. -1.
         22    1    3    3    0    0  0.12111717671E+03 -0.37315065974E+02  0.53413111025E+03  0.54896067945E+03  0.00000000000E+00 0.  1.
         22    1    3    3    0    0 -0.19263760090E+02  0.55866242407E+01  0.33307126785E+03  0.33367465035E+03  0.00000000000E+00 0.  1.
</event>
<event>
 7    1  0.6681656E-006  0.1820209E+03  0.7818608E-02  0.1275584E+00
          2   -1    0    0  502    0  0.00000000000E+00  0.00000000000E+00  0.44308918719E+04  0.44308918719E+04  0.00000000000E+00 0. -1.
          1   -1    0    0  501    0 -0.00000000000E+00 -0.00000000000E+00 -0.11929817888E+03  0.11929817888E+03  0.00000000000E+00 0. -1.
         25    2    1    2    0    0 -0.35968101281E+02  0.12370234141E+03  0.25082079509E+03  0.30843433995E+03  0.12499878893E+03 0.  0.
          2    1    1    2  501    0 -0.23790839148E+02  0.52310515161E+02 -0.79067199923E+02  0.97744647564E+02  0.00000000000E+00 0. -1.
          1    1    1    2  502    0  0.59758940430E+02 -0.17601285657E+03  0.41398400979E+04  0.41440110633E+04  0.00000000000E+00 0. -1.
         22    1    3    3    0    0 -0.77541157526E+02  0.62285426131E+02  0.18125471947E+03  0.20674955562E+03  0.00000000000E+00 0. -1.
         22    1    3    3    0    0  0.41573056245E+02  0.61416915283E+02  0.69566075618E+02  0.10168478434E+03  0.00000000000E+00 0. -1.
</event>
<event>
 7    1  0.6681656E-006  0.3719233E+02  0.7818608E-02  0.1538557E+00
          2   -1    0    0  502    0  0.00000000000E+00  0.00000000000E+00  0.14627288638E+04  0.14627288638E+04  0.00000000000E+00 0. -1.
          1   -1    0    0  501    0 -0.00000000000E+00 -0.00000000000E+00 -0.43351873028E+03  0.43351873028E+03  0.00000000000E+00 0. -1.
         25    2    1    2    0    0  0.28883477002E+02  0.30399456886E+02  0.51436156857E+03  0.53099059063E+03  0.12499920757E+03 0.  0.
          2    1    1    2  501    0 -0.37015981403E+02  0.37979906594E+01 -0.42406062079E+03  0.42569004888E+03  0.00000000000E+00 0. -1.
          1    1    1    2  502    0  0.81325044008E+01 -0.34197447545E+02  0.93890918574E+03  0.93956695457E+03  0.00000000000E+00 0. -1.
         22    1    3    3    0    0  0.66671993151E+02 -0.71149501534E+01  0.17368817262E+03  0.18618098317E+03  0.00000000000E+00 0. -1.
         22    1    3    3    0    0 -0.37788516149E+02  0.37514407039E+02  0.34067339595E+03  0.34480960746E+03  0.00000000000E+00 0. -1.
</event>
<event>
 7    1  0.6681656E-006  0.1112372E+03  0.7818608E-02  0.1295909E+00
          2   -1    0    0  502    0  0.00000000000E+00  0.00000000000E+00  0.13102323028E+04  0.13102323028E+04  0.00000000000E+00 0. -1.
          1   -1    0    0  501    0 -0.00000000000E+00 -0.00000000000E+00 -0.35434152834E+04  0.35434152834E+04  0.00000000000E+00 0. -1.
         25    2    1    2    0    0 -0.39468289201E+02 -0.94308815398E+02 -0.87171341459E+02  0.18350973952E+03  0.12500033285E+03 0.  0.
          2    1    1    2  501    0  0.76830220513E+02 -0.11149645634E+02 -0.34051518737E+04  0.34060367703E+04  0.00000000000E+00 0. -1.
          1    1    1    2  502    0 -0.37361931311E+02  0.10545846103E+03  0.12591402346E+04  0.12641010764E+04  0.00000000000E+00 0. -1.
         22    1    3    3    0    0 -0.14626179658E+02 -0.81791569975E+02 -0.11649525562E+03  0.14309063783E+03  0.00000000000E+00 0.  1.
         22    1    3    3    0    0 -0.24842109544E+02 -0.12517245423E+02  0.29323914165E+02  0.40419101691E+02  0.00000000000E+00 0.  1.
</event>
<event>
 7    1  0.6681656E-006  0.6170700E+02  0.7818608E-02  0.1476482E+00
          2   -1    0    0  502    0  0.00000000000E+00  0.00000000000E+00  0.14939939341E+04  0.14939939341E+04  0.00000000000E+00 0. -1.
          1   -1    0    0  501    0 -0.00000000000E+00 -0.00000000000E+00 -0.92702700950E+02  0.92702700950E+02  0.00000000000E+00 0. -1.
         25    2    1    2    0    0 -0.78402966464E+02 -0.30514796442E+02  0.30031814694E+03  0.33600050635E+03  0.12500869144E+03 0.  0.
          2    1    1    2  501    0  0.60892143072E+02  0.33483815378E+01 -0.62179867102E+02  0.87094205431E+02  0.00000000000E+00 0. -1.
          1    1    1    2  502    0  0.17510823392E+02  0.27166414904E+02  0.11631529533E+04  0.11636019232E+04  0.00000000000E+00 0. -1.
         22    1    3    3    0    0  0.15506712113E+02  0.11754633411E+02  0.16402122204E+03  0.16517139828E+03  0.00000000000E+00 0. -1.
         22    1    3    3    0    0 -0.93909678576E+02 -0.42269429853E+02  0.13629692489E+03  0.17082910807E+03  0.00000000000E+00 0. -1.
</event>
<event>
 7    1  0.6681656E-006  0.4704215E+02  0.7818608E-02  0.1574693E+00
          2   -1    0    0  502    0  0.00000000000E+00  0.00000000000E+00  0.21441868895E+04  0.21441868895E+04  0.00000000000E+00 0. -1.
          1   -1    0    0  501    0 -0.00000000000E+00 -0.00000000000E+00 -0.19497553835E+02  0.19497553835E+02  0.00000000000E+00 0. -1.
         25    2    1    2    0    0 -0.41754721122E+02 -0.13527675263E+02  0.73678033163E+03  0.74859682258E+03  0.12500196387E+03 0.  0.
          2    1    1    2  501    0  0.84085784319E+01 -0.20414869402E+02 -0.39382830649E+01  0.22427241414E+02  0.00000000000E+00 0. -1.
          1    1    1    2  502    0  0.33346142691E+02  0.33942544665E+02  0.13918472871E+04  0.13926603793E+04  0.00000000000E+00 0. -1.
         22    1    3    3    0    0  0.17825608557E+02 -0.20016438530E+02  0.34137057332E+02  0.43402175235E+02  0.00000000000E+00 0. -1.
         22    1    3    3    0    0 -0.59580329680E+02  0.64887632664E+01  0.70264327430E+03  0.70519464735E+03  0.00000000000E+00 0. -1.
</event>
<event>
 7    1  0.6681656E-006  0.1055988E+03  0.7818608E-02  0.1378119E+00
          2   -1    0    0  502    0  0.00000000000E+00  0.00000000000E+00  0.36141552387E+03  0.36141552387E+03  0.00000000000E+00 0. -1.
          1   -1    0    0  501    0 -0.00000000000E+00 -0.00000000000E+00 -0.15739849313E+03  0.15739849313E+03  0.00000000000E+00 0. -1.
         25    2    1    2    0    0 -0.10736548878E+03  0.16695877052E+02  0.92828988381E+02  0.18986254478E+03  0.12499785733E+03 0.  0.
          2    1    1    2  501    0  0.91758318917E+02 -0.53483742123E+02 -0.80420600576E+02  0.13322001636E+03  0.00000000000E+00 0. -1.
          1    1    1    2  502    0  0.15607169858E+02  0.36787865070E+02  0.19160864293E+03  0.19573145586E+03  0.00000000000E+00 0. -1.
         22    1    3    3    0    0 -0.68159669327E+02 -0.38724991517E+01  0.11989623299E+03  0.13797044414E+03  0.00000000000E+00 0.  1.
         22    1    3    3    0    0 -0.39205819448E+02  0.20568376204E+02 -0.27067244605E+02  0.51892100640E+02  0.00000000000E+00 0.  1.
</event>
<event>
 7    1  0.6681656E-006  0.1476973E+03  0.7818608E-02  0.1224723E+00
          2   -1    0    0  502    0  0.00000000000E+00  0.00000000000E+00  0.14404405476E+04  0.14404405476E+04  0.00000000000E+00 0. -1.
          1   -1    0    0  501    0 -0.00000000000E+00 -0.00000000000E+00 -0.17393966491E+03  0.17393966491E+03  0.00000000000E+00 0. -1.
         25    2    1    2    0    0  0.71104923979E+02 -0.11738589412E+03  0.17695974137E+03  0.25646639157E+03  0.12499960634E+03 0.  0.
          2    1    1    2  501    0 -0.11366247520E+03 -0.30635789103E+02 -0.10242373717E+03  0.15603951992E+03  0.00000000000E+00 0. -1.
          1    1    1    2  502    0  0.42557551220E+02  0.14802168323E+03  0.11919648785E+04  0.12018743010E+04  0.00000000000E+00 0. -1.
         22    1    3    3    0    0 -0.19623380676E+02 -0.83925545349E+02  0.61612279887E+02  0.10594643583E+03  0.00000000000E+00 0. -1.
         22    1    3    3    0    0  0.90728304654E+02 -0.33460348775E+02  0.11534746148E+03  0.15051995574E+03  0.00000000000E+00 0. -1.
</event>
<event>
 7    1  0.6681656E-006  0.6603749E+02  0.7818608E-02  0.1418750E+00
          2   -1    0    0  502    0  0.00000000000E+00  0.00000000000E+00  0.13656680189E+03  0.13656680189E+03  0.00000000000E+00 0. -1.
          1   -1    0    0  501    0 -0.00000000000E+00 -0.00000000000E+00 -0.10077111350E+04  0.10077111350E+04  0.00000000000E+00 0. -1.
         25    2    1    2    0    0 -0.73050920512E+02  0.42696860174E+02 -0.73168959737E+02  0.16774447245E+03  0.12500021004E+03 0.  0.
          2    1    1    2  501    0  0.77276081266E+01 -0.45635879935E+02 -0.87458676400E+03  0.87581068573E+03  0.00000000000E+00 0. -1.
          1    1    1    2  502    0  0.65323312386E+02  0.29390197607E+01  0.76611390629E+02  0.10072277872E+03  0.00000000000E+00 0. -1.
         22    1    3    3    0    0 -0.12310945506E+02  0.35463396034E+01  0.35218127586E+02  0.37476024529E+02  0.00000000000E+00 0.  1.
         22    1    3    3    0    0 -0.60739975006E+02  0.39150520571E+02 -0.10838708732E+03  0.13026844792E+03  0.00000000000E+00 0.  1.
</event>
<event>
 7    1  0.6681656E-006  0.9228857E+02  0.7818608E-02  0.1423974E+00
          2   -1    0    0  502    0  0.00000000000E+00  0.00000000000E+00  0.21103873712E+04  0.21103873712E+04  0.00000000000E+00 0. -1.
          1   -1    0    0  501    0 -0.00000000000E+00 -0.00000000000E+00 -0.78962020828E+03  0.78962020828E+03  0.00000000000E+00 0. -1.
         25    2    1    2    0    0 -0.57589852279E+02 -0.85037453113E+02 -0.47160459157E+03  0.49858250831E+03  0.12500266912E+03 0.  0.
          2    1    1    2  501    0  0.69269310120E+02  0.55440465487E+02 -0.29794062167E+03  0.31087054633E+03  0.00000000000E+00 0. -1.
          1    1    1    2  502    0 -0.11679457842E+02  0.29596987627E+02  0.20903123762E+04  0.20905545249E+04  0.00000000000E+00 0. -1.
         22    1    3    3    0    0  0.27889644998E+02 -0.60718627244E+02 -0.13772734070E+03  0.15307973206E+03  0.00000000000E+00 0.  1.
         22    1    3    3    0    0 -0.85479497276E+02 -0.24318825869E+02 -0.33387725087E+03  0.34550277625E+03  0.00000000000E+00 0.  1.
</event>
<event>
 7    1  0.6681656E-006  0.4430851E+03  0.7818608E-02  0.1094190E+00
          2   -1    0    0  502    0  0.00000000000E+00  0.00000000000E+00  0.24724972565E+04  0.24724972565E+04  0.00000000000E+00 0. -1.
          1   -1    0    0  501    0 -0.00000000000E+00 -0.00000000000E+00 -0.10663976479E+04  0.10663976479E+04  0.00000000000E+00 0. -1.
         25    2    1    2    0    0  0.20782397838E+03 -0.22870661021E+03  0.15382016213E+03  0.36713251877E+03  0.12501249745E+03 0.  0.
          2    1    1    2  501    0  0.16928076963E+03 -0.62498466321E+02 -0.92526785693E+03  0.94269965754E+03  0.00000000000E+00 0. -1.
          1    1    1    2  502    0 -0.37710474801E+03  0.29120507653E+03  0.21775473033E+04  0.22290627281E+04  0.00000000000E+00 0. -1.
         22    1    3    3    0    0  0.18875853943E+03 -0.12657721614E+03  0.12470991047E+03  0.25923761229E+03  0.00000000000E+00 0. -1.
         22    1    3    3    0    0  0.19065438955E+02 -0.10212939406E+03  0.29110251660E+02  0.10789490649E+03  0.00000000000E+00 0. -1.
</event>
<event>
 7    1  0.6681656E-006  0.1369170E+03  0.7818608E-02  0.1244274E+00
          2   -1    0    0  502    0  0.00000000000E+00  0.00000000000E+00  0.20845378678E+03  0.20845378678E+03  0.00000000000E+00 0. -1.
          1   -1    0    0  501    0 -0.00000000000E+00 -0.00000000000E+00 -0.18027217017E+04  0.18027217017E+04  0.00000000000E+00 0. -1.
         25    2    1    2    0    0  0.19465885505E+03  0.80720016787E+02 -0.21740555037E+03  0.32755859418E+03  0.12498667261E+03 0.  0.
          2    1    1    2  501    0 -0.10315145735E+03  0.12711405130E+02 -0.15002337184E+04  0.15038294493E+04  0.00000000000E+00 0. -1.
          1    1    1    2  502    0 -0.91507397696E+02 -0.93431421917E+02  0.12337135380E+03  0.17978744498E+03  0.00000000000E+00 0. -1.
         22    1    3    3    0    0  0.84376723690E+02 -0.26565932804E+02 -0.56679056693E+02  0.10506043858E+03  0.00000000000E+00 0. -1.
         22    1    3    3    0    0  0.11028213136E+03  0.10728594959E+03 -0.16072649368E+03  0.22249815560E+03  0.00000000000E+00 0. -1.
</event>
<event>
 7    1  0.6681656E-006  0.5146816E+02  0.7818608E-02  0.1447088E+00
          2   -1    0    0  502    0  0.00000000000E+00  0.00000000000E+00  0.33878279493E+02  0.33878279493E+02  0.00000000000E+00 0. -1.
          1   -1    0    0  501    0 -0.00000000000E+00 -0.00000000000E+00 -0.49345778028E+03  0.49345778028E+03  0.00000000000E+00 0. -1.
         25    2    1    2    0    0 -0.31905907164E+02  0.47042030528E+01 -0.16769077705E+03  0.21162578016E+03  0.12500063072E+03 0.  0.
          2    1    1    2  501    0 -0.20009506866E+02  0.43574933765E+02 -0.14254325869E+03  0.15039194066E+03  0.00000000000E+00 0. -1.
          1    1    1    2  502    0  0.51915414030E+02 -0.48279136818E+02 -0.14934546504E+03  0.16531833895E+03  0.00000000000E+00 0. -1.
         22    1    3    3    0    0 -0.80131452576E+01  0.72253454691E+01 -0.18288235779E+03  0.18320036273E+03  0.00000000000E+00 0. -1.
         22    1    3    3    0    0 -0.23892761906E+02 -0.25211424163E+01  0.15191580735E+02  0.28425417426E+02  0.00000000000E+00 0. -1.
</event>
<event>
 7    1  0.6681656E-006  0.1192588E+03  0.7818608E-02  0.1364152E+00
          2   -1    0    0  502    0  0.00000000000E+00  0.00000000000E+00  0.86670469939E+03  0.86670469939E+03  0.00000000000E+00 0. -1.
          1   -1    0    0  501    0 -0.00000000000E+00 -0.00000000000E+00 -0.19927090246E+03  0.19927090246E+03  0.00000000000E+00 0. -1.
         25    2    1    2    0    0  0.12426107856E+03 -0.56734813153E+02 -0.70938518610E+02  0.19828353094E+03  0.12499772218E+03 0.  0.
          2    1    1    2  501    0 -0.85659407394E+02  0.66067155543E+02 -0.18526067881E+02  0.10975253212E+03  0.00000000000E+00 0. -1.
          1    1    1    2  502    0 -0.38601671171E+02 -0.93323423906E+01  0.75689838341E+03  0.75793953878E+03  0.00000000000E+00 0. -1.
         22    1    3    3    0    0 -0.50659850135E+01 -0.80464035152E+01 -0.58799052856E+02  0.59562886351E+02  0.00000000000E+00 0. -1.
         22    1    3    3    0    0  0.12932706358E+03 -0.48688409637E+02 -0.12139465754E+02  0.13872064459E+03  0.00000000000E+00 0. -1.
</event>
<event>
 7    1  0.6681656E-006  0.1695907E+03  0.7818608E-02  0.1317417E+00
          2   -1    0    0  502    0  0.00000000000E+00  0.00000000000E+00  0.53137763245E+03  0.53137763245E+03  0.00000000000E+00 0. -1.
          1   -1    0    0  501    0 -0.00000000000E+00 -0.00000000000E+00 -0.19057130318E+04  0.19057130318E+04  0.00000000000E+00 0. -1.
         25    2    1    2    0    0 -0.10245032474E+03  0.12237840109E+03  0.26416162513E+03  0.33298639708E+03  0.12500413736E+03 0.  0.
          2    1    1    2  501    0  0.73813685562E+02 -0.15289650872E+03 -0.18655332169E+04  0.18732431732E+04  0.00000000000E+00 0. -1.
          1    1    1    2  502    0  0.28636639181E+02  0.30518107631E+02  0.22703619247E+03  0.23086109393E+03  0.00000000000E+00 0. -1.
         22    1    3    3    0    0 -0.20476967610E+01  0.41825372879E+02  0.16574058255E+03  0.17094880983E+03  0.00000000000E+00 0.  1.
         22    1    3    3    0    0 -0.10040262798E+03  0.80553028213E+02  0.98421042574E+02  0.16203758725E+03  0.00000000000E+00 0.  1.
</event>
<event>
 7    1  0.6681656E-006  0.1704954E+03  0.7818608E-02  0.1237782E+00
          2   -1    0    0  502    0  0.00000000000E+00  0.00000000000E+00  0.25579795432E+04  0.25579795432E+04  0.00000000000E+00 0. -1.
          1   -1    0    0  501    0 -0.00000000000E+00 -0.00000000000E+00 -0.98426832559E+03  0.98426832559E+03  0.00000000000E+00 0. -1.
         25    2    1    2    0    0 -0.25188274803E+03 -0.50899189142E+01  0.50398309034E+03  0.57714366881E+03  0.12500013226E+03 0.  0.
          2    1    1    2  501    0  0.89016506725E+02 -0.46833219296E+01 -0.94228225421E+03  0.94648915397E+03  0.00000000000E+00 0. -1.
          1    1    1    2  502    0  0.16286624130E+03  0.97732408438E+01  0.20120103815E+04  0.20186150460E+04  0.00000000000E+00 0. -1.
         22    1    3    3    0    0 -0.20728666054E+03 -0.10361354774E+01  0.48694852014E+03  0.52923311922E+03  0.00000000000E+00 0. -1.
         22    1    3    3    0    0 -0.44596087491E+02 -0.40537834368E+01  0.17034570201E+02  0.47910549586E+02  0.00000000000E+00 0. -1.
</event>
<event>
 7    1  0.6681656E-006  0.1328032E+03  0.7818608E-02  0.1429118E+00
          2   -1    0    0  502    0  0.00000000000E+00  0.00000000000E+00  0.40522962299E+03  0.40522962299E+03  0.00000000000E+00 0. -1.
          1   -1    0    0  501    0 -0.00000000000E+00 -0.00000000000E+00 -0.12405784982E+03  0.12405784982E+03  0.00000000000E+00 0. -1.
         25    2    1    2    0    0  0.96014887722E+02  0.80477329552E+02  0.11071863706E+03  0.20875721221E+03  0.12500199127E+03 0.  0.
          2    1    1    2  501    0  0.19478075459E+02 -0.85239056741E+01 -0.54009250794E+02  0.58043531619E+02  0.00000000000E+00 0. -1.
          1    1    1    2  502    0 -0.11549296318E+03 -0.71953423878E+02  0.22446238691E+03  0.26248672898E+03  0.00000000000E+00 0. -1.
         22    1    3    3    0    0  0.99217320485E+02  0.10737053365E+03  0.76133576280E+02  0.16482969883E+03  0.00000000000E+00 0.  1.
         22    1    3    3    0    0 -0.32024327630E+01 -0.26893204098E+02  0.34585060781E+02  0.43927513377E+02  0.00000000000E+00 0.  1.
</event>
<event>
 7    1  0.6681656E-006  0.1266332E+03  0.7818608E-02  0.1243717E+00
          2   -1    0    0  502    0  0.00000000000E+00  0.00000000000E+00  0.89323550702E+03  0.89323550702E+03  0.00000000000E+00 0. -1.
          1   -1    0    0  501    0 -0.00000000000E+00 -0.00000000000E+00 -0.57450659728E+03  0.57450659728E+03  0.00000000000E+00 0. -1.
         25    2    1    2    0    0 -0.21779562222E+01  0.17268039820E+03  0.26667039829E+02  0.21485760461E+03  0.12501758209E+03 0.  0.
          2    1    1    2  501    0 -0.81580725987E+02 -0.78196695534E+02 -0.46848821748E+03  0.48192462892E+03  0.00000000000E+00 0. -1.
          1    1    1    2  502    0  0.83758682209E+02 -0.94483702666E+02  0.76055008739E+03  0.77095987077E+03  0.00000000000E+00 0. -1.
         22    1    3    3    0    0 -0.58859100239E+02  0.58689344666E+02 -0.62843824370E+01  0.83356621338E+02  0.00000000000E+00 0.  1.
         22    1    3    3    0    0  0.56681144017E+02  0.11399105353E+03  0.32951422266E+02  0.13150098327E+03  0.00000000000E+00 0.  1.
</event>
<event>
 7    1  0.6681656E-006  0.4636421E+02  0.7818608E-02  0.1490023E+00
          2   -1    0    0  502    0  0.00000000000E+00  0.00000000000E+00  0.20044806251E+03  0.20044806251E+03  0.00000000000E+00 0. -1.
          1   -1    0    0  501    0 -0.00000000000E+00 -0.00000000000E+00 -0.44271148113E+03  0.44271148113E+03  0.00000000000E+00 0. -1.
         25    2    1    2    0    0  0.17201659766E+02  0.55709845325E+00  0.52823761592E+02  0.13679041327E+03  0.12500023966E+03 0.  0.
          2    1    1    2  501    0  0.22194146122E+02  0.32202128678E+02 -0.39348867115E+03  0.39542747949E+03  0.00000000000E+00 0. -1.
          1    1    1    2  502    0 -0.39395805888E+02 -0.32759227131E+02  0.98401490931E+02  0.11094165089E+03  0.00000000000E+00 0. -1.
         22    1    3    3    0    0  0.63906394673E+02  0.18929553296E+02  0.55206510105E+02  0.86545444860E+02  0.00000000000E+00 0. -1.
         22    1    3    3    0    0 -0.46704734907E+02 -0.18372454843E+02 -0.23827485132E+01  0.50244968406E+02  0.00000000000E+00 0. -1.
</event>
<event>
 7    1  0.6681656E-006  0.1009517E+03  0.7818608E-02  0.1305273E+00
          2   -1    0    0  502    0  0.00000000000E+00  0.00000000000E+00  0.25679940501E+03  0.25679940501E+03  0.00000000000E+00 0. -1.
          1   -1    0    0  501    0 -0.00000000000E+00 -0.00000000000E+00 -0.51306256597E+03  0.51306256597E+03  0.00000000000E+00 0. -1.
         25    2    1    2    0    0  0.90258953504E+02 -0.21757518847E+02 -0.90910143121E+02  0.18031513971E+03  0.12501530775E+03 0.  0.
          2    1    1    2  501    0 -0.38106309028E+02 -0.68603861170E+02 -0.36013316828E+03  0.36858442649E+03  0.00000000000E+00 0. -1.
          1    1    1    2  502    0 -0.52152644476E+02  0.90361380018E+02  0.19478015044E+03  0.22096240479E+03  0.00000000000E+00 0. -1.
         22    1    3    3    0    0  0.45347625082E+02  0.79556426334E+01 -0.11306932239E+03  0.12208345923E+03  0.00000000000E+00 0. -1.
         22    1    3    3    0    0  0.44911328422E+02 -0.29713161481E+02  0.22159179270E+02  0.58231680482E+02  0.00000000000E+00 0. -1.
</event>
<event>
 7    1  0.6681656E-006  0.1202735E+03  0.7818608E-02  0.1377667E+00
          2   -1    0    0  502    0  0.00000000000E+00  0.00000000000E+00  0.13252069011E+04  0.13252069011E+04  0.00000000000E+00 0. -1.
          1   -1    0    0  501    0 -0.00000000000E+00 -0.00000000000E+00 -0.48557670761E+03  0.48557670761E+03  0.00000000000E+00 0. -1.
         25    2    1    2    0    0 -0.30331074518E+02  0.13852482124E+03  0.21784540218E+03  0.28842904803E+03  0.12500238525E+03 0.  0.
          2    1    1    2  501    0  0.28976752700E+02 -0.20012674762E+02 -0.44631350899E+03  0.44770068981E+03  0.00000000000E+00 0. -1.
          1    1    1    2  502    0  0.13543218188E+01 -0.11851214648E+03  0.10680983003E+04  0.10746538709E+04  0.00000000000E+00 0. -1.
         22    1    3    3    0    0  0.47454583575E+02  0.61444716107E+02  0.70679782091E+02  0.10499058165E+03  0.00000000000E+00 0.  1.
         22    1    3    3    0    0 -0.77785658093E+02  0.77080105132E+02  0.14716562009E+03  0.18343846638E+03  0.00000000000E+00 0.  1.
</event>
<event>
 7    1  0.6681656E-006  0.8860276E+02  0.7818608E-02  0.1386285E+00
          2   -1    0    0  502    0  0.00000000000E+00  0.00000000000E+00  0.61686029852E+03  0.61686029852E+03  0.00000000000E+00 0. -1.
          1   -1    0    0  501    0 -0.00000000000E+00 -0.00000000000E+00 -0.66884872114E+03  0.66884872114E+03  0.00000000000E+00 0. -1.
         25    2    1    2    0    0  0.75946318369E+02  0.25817104623E+02 -0.17025426330E+03  0.22593662826E+03  0.12500591846E+03 0.  0.
          2    1    1    2  501    0 -0.61183545692E+02 -0.67869695750E+02 -0.46546153841E+03  0.47434603994E+03  0.00000000000E+00 0. -1.
          1    1    1    2  502    0 -0.14762772677E+02  0.42052591127E+02  0.58372737910E+03  0.58542635146E+03  0.00000000000E+00 0. -1.
         22    1    3    3    0    0  0.39973077276E+02 -0.45766935075E+02 -0.11008830511E+03  0.12574535449E+03  0.00000000000E+00 0. -1.
         22    1    3    3    0    0  0.35973241093E+02  0.71584039698E+02 -0.60165958191E+02  0.10019127377E+03  0.00000000000E+00 0. -1.
</event>
<event>
 7    1  0.6681656E-006  0.1815819E+03  0.7818608E-02  0.1347203E+00
          2   -1    0    0  502    0  0.00000000000E+00  0.00000000000E+00  0.13339216483E+04  0.13339216483E+04  0.00000000000E+00 0. -1.
          1   -1    0    0  501    0 -0.00000000000E+00 -0.00000000000E+00 -0.36830482919E+03  0.36830482919E+03  0.00000000000E+00 0. -1.
         25    2    1    2    0    0  0.79928716017E+02  0.16337915049E+03  0.23043010241E+03  0.31906976194E+03  0.12500453765E+03 0.  0.
          2    1    1    2  501    0  0.25863882752E+02 -0.15404516598E+02 -0.31545312530E+03  0.31688627901E+03  0.00000000000E+00 0. -1.
          1    1    1    2  502    0 -0.10579259877E+03 -0.14797463389E+03  0.10506398420E+04  0.10662704365E+04  0.00000000000E+00 0. -1.
         22    1    3    3    0    0  0.33106242779E+02  0.36199606223E+02 -0.30033305452E+01  0.49147276588E+02  0.00000000000E+00 0. -1.
         22    1    3    3    0    0  0.46822473238E+02  0.12717954426E+03  0.23343343295E+03  0.26992248536E+03  0.00000000000E+00 0. -1.
</event>
<event>
 7    1  0.6681656E-006  0.7148749E+02  0.7818608E-02  0.1410101E+00
          2   -1    0    0  502    0  0.00000000000E+00  0.00000000000E+00  0.88284830656E+03  0.88284830656E+03  0.00000000000E+00 0. -1.
          1   -1    0    0  501    0 -0.00000000000E+00 -0.00000000000E+00 -0.27623280662E+03  0.27623280662E+03  0.00000000000E+00 0. -1.
         25    2    1    2    0    0 -0.23737394926E+02 -0.11678982735E+02  0.32512416718E+03  0.34932601815E+03  0.12499232104E+03 0.  0.
          2    1    1    2  501    0  0.65880004899E+02  0.29413828879E+02 -0.25822031736E+03  0.26811020248E+03  0.00000000000E+00 0. -1.
          1    1    1    2  502    0 -0.42142609974E+02 -0.17734846145E+02  0.53971165012E+03  0.54164489254E+03  0.00000000000E+00 0. -1.
         22    1    3    3    0    0 -0.46245866444E+02  0.46374941247E+02  0.16800481218E+03  0.18031897364E+03  0.00000000000E+00 0.  1.
         22    1    3    3    0    0  0.22508471518E+02 -0.58053923982E+02  0.15711935500E+03  0.16900704451E+03  0.00000000000E+00 0.  1.
</event>
<event>
 7    1  0.6681656E-006  0.6508593E+02  0.7818608E-02  0.1475237E+00
          2   -1    0    0  502    0  0.00000000000E+00  0.00000000000E+00  0.53029121545E+03  0.53029121545E+03  0.00000000000E+00 0. -1.
          1   -1    0    0  501    0 -0.00000000000E+00 -0.00000000000E+00 -0.18947189394E+03  0.18947189394E+03  0.00000000000E+00 0. -1.
         25    2    1    2    0    0  0.50920564895E+02  0.23163603330E+02  0.36199045561E+03  0.38702921802E+03  0.12500027681E+03 0.  0.
          2    1    1    2  501    0  0.22556200305E+02 -0.21141601268E+02 -0.16678149852E+03  0.16962257434E+03  0.00000000000E+00 0. -1.
          1    1    1    2  502    0 -0.73476765200E+02 -0.20220020619E+01  0.14561036443E+03  0.16311131703E+03  0.00000000000E+00 0. -1.
         22    1    3    3    0    0 -0.17165544827E+02  0.50318398417E+02  0.82982613527E+02  0.98553088720E+02  0.00000000000E+00 0.  1.
         22    1    3    3    0    0  0.68086109722E+02 -0.27154795087E+02  0.27900784208E+03  0.28847612930E+03  0.00000000000E+00 0.  1.
</event>
<event>
 7    1  0.6681656E-006  0.2826645E+03  0.7818608E-02  0.1288994E+00
          2   -1    0    0  502    0  0.00000000000E+00  0.00000000000E+00  0.71411422990E+02  0.71411422990E+02  0.00000000000E+00 0. -1.
          1   -1    0    0  501    0 -0.00000000000E+00 -0.00000000000E+00 -0.31821703200E+04  0.31821703200E+04  0.00000000000E+00 0. -1.
         25    2    1    2    0    0 -0.13024762249E+03  0.22428872838E+03 -0.40063987653E+03  0.49336314894E+03  0.12500003689E+03 0.  0.
          2    1    1    2  501    0  0.12723872952E+03 -0.25673696517E+03 -0.27124549738E+04  0.27275475336E+04  0.00000000000E+00 0. -1.
          1    1    1    2  502    0  0.30088929673E+01  0.32448236797E+02  0.23359533219E+01  0.32671060375E+02  0.00000000000E+00 0. -1.
         22    1    3    3    0    0 -0.13755325611E+03  0.21022568417E+03 -0.29917392420E+03  0.39066708777E+03  0.00000000000E+00 0. -1.
         22    1    3    3    0    0  0.73056336205E+01  0.14063044204E+02 -0.10146595234E+03  0.10269606116E+03  0.00000000000E+00 0. -1.
</event>
<event>
 7    1  0.6681656E-006  0.8211149E+02  0.7818608E-02  0.1429144E+00
          2   -1    0    0  502    0  0.00000000000E+00  0.00000000000E+00  0.17274609025E+04  0.17274609025E+04  0.00000000000E+00 0. -1.
          1   -1    0    0  501    0 -0.00000000000E+00 -0.00000000000E+00 -0.24634497382E+03  0.24634497382E+03  0.00000000000E+00 0. -1.
         25    2    1    2    0    0 -0.44953645367E+02 -0.61980011904E+02  0.70910553106E+03  0.72409865072E+03  0.12500339870E+03 0.  0.
          2    1    1    2  501    0  0.16082148416E+02  0.80647000288E+02 -0.23146697246E+03  0.24564106639E+03  0.00000000000E+00 0. -1.
          1    1    1    2  502    0  0.28871496952E+02 -0.18666988384E+02  0.10034773701E+04  0.10040661592E+04  0.00000000000E+00 0. -1.
         22    1    3    3    0    0  0.31604215830E+02 -0.61286591984E+02  0.37993776885E+03  0.38614450794E+03  0.00000000000E+00 0.  1.
         22    1    3    3    0    0 -0.76557861197E+02 -0.69341992029E+00  0.32916776221E+03  0.33795414278E+03  0.00000000000E+00 0.  1.
</event>
<event>
 7    1  0.6681656E-006  0.7601302E+02  0.7818608E-02  0.1446748E+00
          2   -1    0    0  502    0  0.00000000000E+00  0.00000000000E+00  0.36919917610E+03  0.36919917610E+03  0.00000000000E+00 0. -1.
          1   -1    0    0  501    0 -0.00000000000E+00 -0.00000000000E+00 -0.36879905074E+03  0.36879905074E+03  0.00000000000E+00 0. -1.
         25    2    1    2    0    0  0.80452596015E+02 -0.59329048011E+02  0.22304095286E+02  0.16161078048E+03  0.12501206165E+03 0.  0.
          2    1    1    2  501    0 -0.11872557529E+02  0.30305462268E+02 -0.29322829465E+03  0.29502917051E+03  0.00000000000E+00 0. -1.
          1    1    1    2  502    0 -0.68580038486E+02  0.29023585743E+02  0.27132432472E+03  0.28135827585E+03  0.00000000000E+00 0. -1.
         22    1    3    3    0    0 -0.32740716369E+02 -0.22146263163E+02 -0.35747713527E+01  0.39688669298E+02  0.00000000000E+00 0. -1.
         22    1    3    3    0    0  0.11319331238E+03 -0.37182784848E+02  0.25878866638E+02  0.12192211118E+03  0.00000000000E+00 0. -1.
</event>
<event>
 7    1  0.6681656E-006  0.5903490E+02  0.7818608E-02  0.1533560E+00
          2   -1    0    0  502    0  0.00000000000E+00  0.00000000000E+00  0.19062300491E+03  0.19062300491E+03  0.00000000000E+00 0. -1.
          1   -1    0    0  501    0 -0.00000000000E+00 -0.00000000000E+00 -0.17498479416E+03  0.17498479416E+03  0.00000000000E+00 0. -1.
         25    2    1    2    0    0  0.23224628564E+02 -0.30378697477E+02  0.11664097288E+03  0.17519242856E+03  0.12500008735E+03 0.  0.
          2    1    1    2  501    0 -0.43156855508E+02  0.41615701786E+02 -0.13598488415E+03  0.14861449973E+03  0.00000000000E+00 0. -1.
          1    1    1    2  502    0  0.19932226945E+02 -0.11237004310E+02  0.34982122023E+02  0.41800870781E+02  0.00000000000E+00 0. -1.
         22    1    3    3    0    0  0.33898502160E+02  0.10152979065E+02  0.12714934427E+03  0.13198161683E+03  0.00000000000E+00 0. -1.
         22    1    3    3    0    0 -0.10673873596E+02 -0.40531676541E+02 -0.10508371394E+02  0.43210811727E+02  0.00000000000E+00 0. -1.
</event>
<event>
 7    1  0.6681656E-006  0.6897907E+02  0.7818608E-02  0.1491536E+00
          2   -1    0    0  502    0  0.00000000000E+00  0.00000000000E+00  0.77081452057E+03  0.77081452057E+03  0.00000000000E+00 0. -1.
          1   -1    0    0  501    0 -0.00000000000E+00 -0.00000000000E+00 -0.89954343954E+02  0.89954343954E+02  0.00000000000E+00 0. -1.
         25    2    1    2    0    0 -0.18542431515E+02 -0.55372061287E+02  0.40706418005E+03  0.42980856430E+03  0.12499707326E+03 0.  0.
          2    1    1    2  501    0  0.44480986650E+02  0.53418439016E+02 -0.62608485392E+02  0.93551644792E+02  0.00000000000E+00 0. -1.
          1    1    1    2  502    0 -0.25938555135E+02  0.19536222712E+01  0.33640448196E+03  0.33740865544E+03  0.00000000000E+00 0. -1.
         22    1    3    3    0    0 -0.27368332937E+02  0.80663801979E+01  0.32233221347E+03  0.32359256477E+03  0.00000000000E+00 0.  1.
         22    1    3    3    0    0  0.88259014217E+01 -0.63438441485E+02  0.84731966588E+02  0.10621599953E+03  0.00000000000E+00 0.  1.
</event>
<event>
 7    1  0.6681656E-006  0.1128745E+03  0.7818608E-02  0.1372104E+00
          2   -1    0    0  502    0  0.00000000000E+00  0.00000000000E+00  0.75575825547E+03  0.75575825547E+03  0.00000000000E+00 0. -1.
          1   -1    0    0  501    0 -0.00000000000E+00 -0.00000000000E+00 -0.19418011950E+03  0.19418011950E+03  0.00000000000E+00 0. -1.
         25    2    1    2    0    0 -0.27788275383E+02 -0.13655424499E+03  0.20214164660E+03  0.27551039943E+03  0.12500193931E+03 0.  0.
          2    1    1    2  501    0 -0.15099410705E+02  0.36261426107E+02 -0.14917072717E+03  0.15425559656E+03  0.00000000000E+00 0. -1.
          1    1    1    2  502    0  0.42887686087E+02  0.10029281889E+03  0.50860721654E+03  0.52017237898E+03  0.00000000000E+00 0. -1.
         22    1    3    3    0    0  0.34120152390E+02 -0.11569085809E+03  0.11550339318E+03  0.16700177628E+03  0.00000000000E+00 0. -1.
         22    1    3    3    0    0 -0.61908427773E+02 -0.20863386904E+02  0.86638253424E+02  0.10850862315E+03  0.00000000000E+00 0. -1.
</event>
<event>
 7    1  0.6681656E-006  0.7454082E+02  0.7818608E-02  0.1431732E+00
          2   -1    0    0  502    0  0.00000000000E+00  0.00000000000E+00  0.69820166095E+02  0.69820166095E+02  0.00000000000E+00 0. -1.
          1   -1    0    0  501    0 -0.00000000000E+00 -0.00000000000E+00 -0.11167814731E+04  0.11167814731E+04  0.00000000000E+00 0. -1.
         25    2    1    2    0    0 -0.44265208357E+01 -0.88197797816E+02 -0.70537343277E+03  0.72178605115E+03  0.12499991336E+03 0.  0.
          2    1    1    2  501    0 -0.29780301651E+02  0.22187652521E+02 -0.37953284546E+03  0.38134543275E+03  0.00000000000E+00 0. -1.
          1    1    1    2  502    0  0.34206822487E+02  0.66010145295E+02  0.37944971223E+02  0.83470155311E+02  0.00000000000E+00 0. -1.
         22    1    3    3    0    0  0.19103595969E+02  0.16073728224E+02 -0.34477501777E+03  0.34567777625E+03  0.00000000000E+00 0.  1.
         22    1    3    3    0    0 -0.23530116804E+02 -0.10427152604E+03 -0.36059841501E+03  0.37610827489E+03  0.00000000000E+00 0.  1.
</event>
<event>
 7    1  0.6681656E-006  0.7839329E+02  0.7818608E-02  0.1425371E+00
          2   -1    0    0  502    0  0.00000000000E+00  0.00000000000E+00  0.22836094269E+03  0.22836094269E+03  0.00000000000E+00 0. -1.
          1   -1    0    0  501    0 -0.00000000000E+00 -0.00000000000E+00 -0.31793893598E+04  0.31793893598E+04  0.00000000000E+00 0. -1.
         25    2    1    2    0    0  0.42856502592E+02 -0.25943825076E+02 -0.97624741706E+03  0.98549123130E+03  0.12499674310E+03 0.  0.
          2    1    1    2  501    0  0.34693469830E+02  0.13031176786E+02 -0.21914523378E+04  0.21917656802E+04  0.00000000000E+00 0. -1.
          1    1    1    2  502    0 -0.77549972422E+02  0.12912648290E+02  0.21667133768E+03  0.23049339097E+03  0.00000000000E+00 0. -1.
         22    1    3    3    0    0  0.15367268620E+02  0.17958039095E+02 -0.31786255172E+02  0.39610732520E+02  0.00000000000E+00 0. -1.
         22    1    3    3    0    0  0.27489233972E+02 -0.43901864171E+02 -0.94446116188E+03  0.94588049878E+03  0.00000000000E+00 0. -1.
</event>
<event>
 7    1  0.6681656E-006  0.1249629E+03  0.7818608E-02  0.1305179E+00
          2   -1    0    0  502    0  0.00000000000E+00  0.00000000000E+00  0.41455097442E+03  0.41455097442E+03  0.00000000000E+00 0. -1.
          1   -1    0    0  501    0 -0.00000000000E+00 -0.00000000000E+00 -0.47424406559E+03  0.47424406559E+03  0.00000000000E+00 0. -1.
         25    2    1    2    0    0 -0.65310525446E+02  0.26546813642E+02 -0.26125535321E+03  0.29807685098E+03  0.12500100584E+03 0.  0.
          2    1    1    2  501    0 -0.32678997827E+02  0.54389767479E+02 -0.17877847118E+03  0.18970478503E+03  0.00000000000E+00 0. -1.
          1    1    1    2  502    0  0.97989523273E+02 -0.80936581120E+02  0.38034073322E+03  0.40101340400E+03  0.00000000000E+00 0. -1.
         22    1    3    3    0    0 -0.57018289586E+02  0.67282857717E+02 -0.10880058194E+03  0.14005582787E+03  0.00000000000E+00 0.  1.
         22    1    3    3    0    0 -0.82922358594E+01 -0.40736044076E+02 -0.15245477127E+03  0.15802102311E+03  0.00000000000E+00 0.  1.
</event>
<event>
 7    1  0.6681656E-006  0.4487968E+02  0.7818608E-02  0.1577429E+00
          2   -1    0    0  502    0  0.00000000000E+00  0.00000000000E+00  0.87740021005E+03  0.87740021005E+03  0.00000000000E+00 0. -1.
          1   -1    0    0  501    0 -0.00000000000E+00 -0.00000000000E+00 -0.16675185001E+04  0.16675185001E+04  0.00000000000E+00 0. -1.
         25    2    1    2    0    0  0.22143433331E+02 -0.34056394511E+00 -0.97864356436E+03  0.98684281433E+03  0.12500026609E+03 0.  0.
          2    1    1    2  501    0  0.22726858119E+02 -0.10882668752E+01 -0.68400908006E+03  0.68438740199E+03  0.00000000000E+00 0. -1.
          1    1    1    2  502    0 -0.44870291451E+02  0.14288308203E+01  0.87253435439E+03  0.87368849380E+03  0.00000000000E+00 0. -1.
         22    1    3    3    0    0 -0.29050170048E+02 -0.31797988359E+02 -0.15103800705E+03  0.15705891894E+03  0.00000000000E+00 0. -1.
         22    1    3    3    0    0  0.51193603379E+02  0.31457424414E+02 -0.82760555731E+03  0.82978389540E+03  0.00000000000E+00 0. -1.
</event>
<event>
 7    1  0.6681656E-006  0.1333821E+03  0.7818608E-02  0.1230928E+00
          2   -1    0    0  502    0  0.00000000000E+00  0.00000000000E+00  0.76841741339E+03  0.76841741339E+03  0.00000000000E+00 0. -1.
          1   -1    0    0  501    0 -0.00000000000E+00 -0.00000000000E+00 -0.19134485865E+04  0.19134485865E+04  0.00000000000E+00 0. -1.
         25    2    1    2    0    0  0.22781330276E+03  0.86491861362E+02 -0.57362856127E+03  0.63565262395E+03  0.12499915611E+03 0.  0.
          2    1    1    2  501    0 -0.10918856501E+03 -0.56997720865E+02 -0.13008131384E+04  0.13066314339E+04  0.00000000000E+00 0. -1.
          1    1    1    2  502    0 -0.11862473775E+03 -0.29494140497E+02  0.72941052658E+03  0.73958194206E+03  0.00000000000E+00 0. -1.
         22    1    3    3    0    0  0.12378809147E+03  0.63694536425E+02 -0.17818382969E+03  0.22611935504E+03  0.00000000000E+00 0.  1.
         22    1    3    3    0    0  0.10402521129E+03  0.22797324937E+02 -0.39544473158E+03  0.40953326891E+03  0.00000000000E+00 0.  1.
</event>
<event>
 7    1  0.6681656E-006  0.5847752E+02  0.7818608E-02  0.1432204E+00
          2   -1    0    0  502    0  0.00000000000E+00  0.00000000000E+00  0.91108530007E+03  0.91108530007E+03  0.00000000000E+00 0. -1.
          1   -1    0    0  501    0 -0.00000000000E+00 -0.00000000000E+00 -0.18952166380E+02  0.18952166380E+02  0.00000000000E+00 0. -1.
         25    2    1    2    0    0 -0.24040195799E+02 -0.89245832329E+01  0.62463740537E+03  0.63753681203E+03  0.12499487712E+03 0.  0.
          2    1    1    2  501    0  0.36385193350E+02  0.54450320539E+02  0.10925240586E+03  0.12737663792E+03  0.00000000000E+00 0. -1.
          1    1    1    2  502    0 -0.12344997551E+02 -0.45525737306E+02  0.15824332246E+03  0.16512401650E+03  0.00000000000E+00 0. -1.
         22    1    3    3    0    0 -0.32337285407E+02  0.53618639455E+02  0.36585897875E+03  0.37117846227E+03  0.00000000000E+00 0. -1.
         22    1    3    3    0    0  0.82970896074E+01 -0.62543222688E+02  0.25877842662E+03  0.26635834976E+03  0.00000000000E+00 0. -1.
</event>
<event>
 7    1  0.6681656E-006  0.1326687E+03  0.7818608E-02  0.1353934E+00
          2   -1    0    0  502    0  0.00000000000E+00  0.00000000000E+00  0.15380387881E+04  0.15380387881E+04  0.00000000000E+00 0. -1.
          1   -1    0    0  501    0 -0.00000000000E+00 -0.00000000000E+00 -0.80144595496E+02  0.80144595496E+02  0.00000000000E+00 0. -1.
         25    2    1    2    0    0 -0.10371417781E+03 -0.35310885711E+01  0.28627882428E+03  0.32916499508E+03  0.12499971795E+03 0.  0.
          2    1    1    2  501    0  0.14044879146E+03 -0.92817278823E+01  0.26482437027E+02  0.14322476380E+03  0.00000000000E+00 0. -1.
          1    1    1    2  502    0 -0.36734613646E+02  0.12812816453E+02  0.11451329313E+04  0.11457936247E+04  0.00000000000E+00 0. -1.
         22    1    3    3    0    0 -0.12102420284E+03 -0.85659800002E+01  0.15590903896E+03  0.19755470664E+03  0.00000000000E+00 0.  1.
         22    1    3    3    0    0  0.17310025031E+02  0.50348914291E+01  0.13036978532E+03  0.13161028844E+03  0.00000000000E+00 0.  1.
</event>
<event>
 7    1  0.6681656E-006  0.8249100E+02  0.7818608E-02  0.1394340E+00
          2   -1    0    0  502    0  0.00000000000E+00  0.00000000000E+00  0.13254379884E+04  0.13254379884E+04  0.00000000000E+00 0. -1.
          1   -1    0    0  501    0 -0.00000000000E+00 -0.00000000000E+00 -0.40669468480E+03  0.40669468480E+03  0.00000000000E+00 0. -1.
         25    2    1    2    0    0 -0.94789471648E+02 -0.51900172305E+02  0.29208742815E+01  0.16526667328E+03  0.12500347983E+03 0.  0.
          2    1    1    2  501    0  0.13085236853E+02  0.42921504684E+02 -0.32260657302E+03  0.32571226557E+03  0.00000000000E+00 0. -1.
          1    1    1    2  502    0  0.81704234795E+02  0.89786676208E+01  0.12384290024E+04  0.12411537344E+04  0.00000000000E+00 0. -1.
         22    1    3    3    0    0 -0.52736057198E+02  0.36523972034E+02 -0.14617885006E+02  0.65793425386E+02  0.00000000000E+00 0. -1.
         22    1    3    3    0    0 -0.42053414450E+02 -0.88424144339E+02  0.17538759288E+02  0.99473247893E+02  0.00000000000E+00 0. -1.
</event>
<event>
 7    1  0.6681656E-006  0.3799680E+02  0.7818608E-02  0.1563650E+00
          2   -1    0    0  502    0  0.00000000000E+00  0.00000000000E+00  0.16070623895E+04  0.16070623895E+04  0.00000000000E+00 0. -1.
          1   -1    0    0  501    0 -0.00000000000E+00 -0.00000000000E+00 -0.20427812825E+02  0.20427812825E+02  0.00000000000E+00 0. -1.
         25    2    1    2    0    0 -0.42528060771E+01 -0.61549778610E+02  0.86919139114E+03  0.88029968654E+03  0.12500960797E+03 0.  0.
          2    1    1    2  501    0  0.12839246162E+02  0.26328097920E+02  0.46420516726E+00  0.29295570800E+02  0.00000000000E+00 0. -1.
          1    1    1    2  502    0 -0.85864400851E+01  0.35221680690E+02  0.71697898039E+03  0.71789494501E+03  0.00000000000E+00 0. -1.
         22    1    3    3    0    0 -0.19261628518E+02  0.30868512316E+02  0.12335036886E+03  0.12860477784E+03  0.00000000000E+00 0. -1.
         22    1    3    3    0    0  0.15008822441E+02 -0.92418290926E+02  0.74584102228E+03  0.75169490870E+03  0.00000000000E+00 0. -1.
</event>
<event>
 7    1  0.6681656E-006  0.5403689E+02  0.7818608E-02  0.1515243E+00
          2   -1    0    0  502    0  0.00000000000E+00  0.00000000000E+00  0.12476226281E+04  0.12476226281E+04  0.00000000000E+00 0. -1.
          1   -1    0    0  501    0 -0.00000000000E+00 -0.00000000000E+00 -0.17489036590E+03  0.17489036590E+03  0.00000000000E+00 0. -1.
         25    2    1    2    0    0  0.21215641062E+02  0.15932116504E+02 -0.11282960527E+03  0.17047002013E+03  0.12500228869E+03 0.  0.
          2    1    1    2  501    0  0.26570823603E+02  0.95489913503E+01 -0.26529241013E+02  0.38742644870E+02  0.00000000000E+00 0. -1.
          1    1    1    2  502    0 -0.47786464665E+02 -0.25481107854E+02  0.12120911085E+04  0.12133003290E+04  0.00000000000E+00 0. -1.
         22    1    3    3    0    0  0.22856197176E+02 -0.32750741407E+02 -0.11497341151E+03  0.12171237474E+03  0.00000000000E+00 0.  1.
         22    1    3    3    0    0 -0.16405561138E+01  0.48682857911E+02  0.21438062411E+01  0.48757645389E+02  0.00000000000E+00 0.  1.
</event>
<event>
 7    1  0.6681656E-006  0.8059909E+02  0.7818608E-02  0.1334817E+00
          2   -1    0    0  502    0  0.00000000000E+00  0.00000000000E+00  0.22105026723E+03  0.22105026723E+03  0.00000000000E+00 0. -1.
          1   -1    0    0  501    0 -0.00000000000E+00 -0.00000000000E+00 -0.19789145558E+03  0.19789145558E+03  0.00000000000E+00 0. -1.
         25    2    1    2    0    0 -0.11583273368E+03  0.18524102503E+02  0.80466706581E-01  0.17142330962E+03  0.12500232014E+03 0.  0.
          2    1    1    2  501    0  0.67280295800E+02  0.39280877168E+02 -0.85246541328E+02  0.11548419079E+03  0.00000000000E+00 0. -1.
          1    1    1    2  502    0  0.48552437884E+02 -0.57804979672E+02  0.10832488627E+03  0.13203422240E+03  0.00000000000E+00 0. -1.
         22    1    3    3    0    0 -0.12976293369E+03  0.46085934874E+02  0.12211090028E+02  0.13824414299E+03  0.00000000000E+00 0.  1.
         22    1    3    3    0    0  0.13930200003E+02 -0.27561832370E+02 -0.12130623322E+02  0.33179166625E+02  0.00000000000E+00 0.  1.
</event>
<event>
 7    1  0.6681656E-006  0.1038458E+03  0.7818608E-02  0.1422496E+00
          2   -1    0    0  502    0  0.00000000000E+00  0.00000000000E+00  0.10496268564E+04  0.10496268564E+04  0.00000000000E+00 0. -1.
          1   -1    0    0  501    0 -0.00000000000E+00 -0.00000000000E+00 -0.29780956166E+03  0.29780956166E+03  0.00000000000E+00 0. -1.
         25    2    1    2    0    0  0.11291967175E+03  0.64264053222E+02  0.47412674388E+02  0.18642281301E+03  0.12499913085E+03 0.  0.
          2    1    1    2  501    0 -0.87773583048E+02 -0.50642230239E+02 -0.21682698022E+03  0.23933820572E+03  0.00000000000E+00 0. -1.
          1    1    1    2  502    0 -0.25146088705E+02 -0.13621822982E+02  0.92123160059E+03  0.92167539935E+03  0.00000000000E+00 0. -1.
         22    1    3    3    0    0  0.11976937202E+03  0.82305084254E+02  0.66019014726E+02  0.15961622622E+03  0.00000000000E+00 0. -1.
         22    1    3    3    0    0 -0.68497002645E+01 -0.18041031032E+02 -0.18606340339E+02  0.26806586788E+02  0.00000000000E+00 0. -1.
</event>
<event>
 7    1  0.6681656E-006  0.1999903E+03  0.7818608E-02  0.1159674E+00
          2   -1    0    0  502    0  0.00000000000E+00  0.00000000000E+00  0.27389176977E+03  0.27389176977E+03  0.00000000000E+00 0. -1.
          1   -1    0    0  501    0 -0.00000000000E+00 -0.00000000000E+00 -0.25477226451E+04  0.25477226451E+04  0.00000000000E+00 0. -1.
         25    2    1    2    0    0  0.25131841153E+03  0.17503634404E+02 -0.10289371199E+04  0.10666788974E+04  0.12499980921E+03 0.  0.
          2    1    1    2  501    0 -0.98868801886E+02 -0.14798672407E+03 -0.14541572895E+04  0.14650080318E+04  0.00000000000E+00 0. -1.
          1    1    1    2  502    0 -0.15244960965E+03  0.13048308966E+03  0.20926353418E+03  0.28992748560E+03  0.00000000000E+00 0. -1.
         22    1    3    3    0    0  0.23872704288E+03  0.94428029733E+00 -0.75250604937E+03  0.78946617851E+03  0.00000000000E+00 0. -1.
         22    1    3    3    0    0  0.12591368651E+02  0.16559354106E+02 -0.27643107055E+03  0.27721271893E+03  0.00000000000E+00 0. -1.
</event>
<event>
 7    1  0.6681656E-006  0.9570751E+02  0.7818608E-02  0.1399736E+00
          2   -1    0    0  502    0  0.00000000000E+00  0.00000000000E+00  0.84338453403E+03  0.84338453403E+03  0.00000000000E+00 0. -1.
          1   -1    0    0  501    0 -0.00000000000E+00 -0.00000000000E+00 -0.75420976296E+03  0.75420976296E+03  0.00000000000E+00 0. -1.
         25    2    1    2    0    0  0.22088237119E+02  0.55787901913E+02 -0.30868918237E+02  0.14205003271E+03  0.12500056585E+03 0.  0.
          2    1    1    2  501    0  0.16955878718E+02  0.32943061399E+02 -0.66424981964E+03  0.66528232353E+03  0.00000000000E+00 0. -1.
          1    1    1    2  502    0 -0.39044115837E+02 -0.88730963311E+02  0.78429350894E+03  0.79026194075E+03  0.00000000000E+00 0. -1.
         22    1    3    3    0    0  0.17701680657E+02  0.94901277749E+02 -0.88298154916E+01  0.96941052491E+02  0.00000000000E+00 0. -1.
         22    1    3    3    0    0  0.43865564621E+01 -0.39113375836E+02 -0.22039102745E+02  0.45108980222E+02  0.00000000000E+00 0. -1.
</event>
<event>
 7    1  0.6681656E-006  0.2226665E+03  0.7818608E-02  0.1180314E+00
          2   -1    0    0  502    0  0.00000000000E+00  0.00000000000E+00  0.38181752728E+04  0.38181752728E+04  0.00000000000E+00 0. -1.
          1   -1    0    0  501    0 -0.00000000000E+00 -0.00000000000E+00 -0.90738838533E+02  0.90738838533E+02  0.00000000000E+00 0. -1.
         25    2    1    2    0    0  0.23950293048E+03 -0.23282841745E+03  0.12900439751E+04  0.13384357975E+04  0.12500480229E+03 0.  0.
          2    1    1    2  501    0 -0.14187643160E+03  0.15279776521E+03  0.10279661185E+03  0.23247198176E+03  0.00000000000E+00 0. -1.
          1    1    1    2  502    0 -0.97626498883E+02  0.80030652241E+02  0.23345958472E+04  0.23380063320E+04  0.00000000000E+00 0. -1.
         22    1    3    3    0    0  0.10523341400E+03 -0.11854236069E+03  0.84493630893E+03  0.85967652571E+03  0.00000000000E+00 0.  1.
         22    1    3    3    0    0  0.13426951648E+03 -0.11428605676E+03  0.44510766620E+03  0.47875927180E+03  0.00000000000E+00 0.  1.
</event>
<event>
 7    1  0.6681656E-006  0.8210071E+02  0.7818608E-02  0.1356164E+00
          2   -1    0    0  502    0  0.00000000000E+00  0.00000000000E+00  0.19648485720E+04  0.19648485720E+04  0.00000000000E+00 0. -1.
          1   -1    0    0  501    0 -0.00000000000E+00 -0.00000000000E+00 -0.16250852341E+03  0.16250852341E+03  0.00000000000E+00 0. -1.
         25    2    1    2    0    0 -0.34102126359E+02 -0.36039401061E+02  0.23273935255E+02  0.13648691183E+03  0.12500083035E+03 0.  0.
          2    1    1    2  501    0  0.91723863189E+02  0.14002276398E+02 -0.84969521705E+02  0.12581395170E+03  0.00000000000E+00 0. -1.
          1    1    1    2  502    0 -0.57621736830E+02  0.22037124663E+02  0.18640356351E+04  0.18650562319E+04  0.00000000000E+00 0. -1.
         22    1    3    3    0    0  0.16649822751E+02  0.48792297975E+01 -0.41257310995E+02  0.44757001593E+02  0.00000000000E+00 0.  1.
         22    1    3    3    0    0 -0.50751949110E+02 -0.40918630858E+02  0.64531246250E+02  0.91729910238E+02  0.00000000000E+00 0.  1.
</event>
<event>
 7    1  0.6681656E-006  0.1484543E+03  0.7818608E-02  0.1274515E+00
          2   -1    0    0  502    0  0.00000000000E+00  0.00000000000E+00  0.11804441178E+04  0.11804441178E+04  0.00000000000E+00 0. -1.
          1   -1    0    0  501    0 -0.00000000000E+00 -0.00000000000E+00 -0.59998299479E+03  0.59998299479E+03  0.00000000000E+00 0. -1.
         25    2    1    2    0    0  0.99575693185E+02  0.33682451096E+02 -0.63508434472E+02  0.17523145330E+03  0.12499165889E+03 0.  0.
          2    1    1    2  501    0 -0.16010586004E+03  0.37815214471E+01 -0.46609986190E+03  0.49284608915E+03  0.00000000000E+00 0. -1.
          1    1    1    2  502    0  0.60530166857E+02 -0.37463972543E+02  0.11100694194E+04  0.11123495701E+04  0.00000000000E+00 0. -1.
         22    1    3    3    0    0  0.14492201673E+02  0.57180499773E+02 -0.63896347792E+02  0.86961926869E+02  0.00000000000E+00 0. -1.
         22    1    3    3    0    0  0.85083491513E+02 -0.23498048677E+02  0.38791331993E+00  0.88269526431E+02  0.00000000000E+00 0. -1.
</event>
<event>
 7    1  0.6681656E-006  0.8310256E+02  0.7818608E-02  0.1436746E+00
          2   -1    0    0  502    0  0.00000000000E+00  0.00000000000E+00  0.11355179253E+04  0.11355179253E+04  0.00000000000E+00 0. -1.
          1   -1    0    0  501    0 -0.00000000000E+00 -0.00000000000E+00 -0.53079580219E+03  0.53079580219E+03  0.00000000000E+00 0. -1.
         25    2    1    2    0    0  0.48153027292E+02 -0.79281648222E+02  0.32172949484E+03  0.35740412003E+03  0.12499417337E+03 0.  0.
          2    1    1    2  501    0 -0.64854066230E+02  0.51896562604E+02 -0.50926932685E+03  0.51599859534E+03  0.00000000000E+00 0. -1.
          1    1    1    2  502    0  0.16701038938E+02  0.27385085618E+02  0.79226195514E+03  0.79291101214E+03  0.00000000000E+00 0. -1.
         22    1    3    3    0    0  0.80161908138E+02 -0.30880143746E+02  0.12057343213E+03  0.14804549075E+03  0.00000000000E+00 0.  1.
         22    1    3    3    0    0 -0.32008880846E+02 -0.48401504476E+02  0.20115606271E+03  0.20935862928E+03  0.00000000000E+00 0.  1.
</event>
<event>
 7    1  0.6681656E-006  0.1473033E+03  0.7818608E-02  0.1276842E+00
          2   -1    0    0  502    0  0.00000000000E+00  0.00000000000E+00  0.32907629266E+02  0.32907629266E+02  0.00000000000E+00 0. -1.
          1   -1    0    0  501    0 -0.00000000000E+00 -0.00000000000E+00 -0.29892220773E+04  0.29892220773E+04  0.00000000000E+00 0. -1.
         25    2    1    2    0    0 -0.10504493811E+03 -0.16723788225E+03 -0.77184863080E+03  0.80646076501E+03  0.12500283339E+03 0.  0.
          2    1    1    2  501    0  0.24070266277E+02  0.65902500116E+02 -0.19182514626E+04  0.19195341078E+04  0.00000000000E+00 0. -1.
          1    1    1    2  502    0  0.80974671837E+02  0.10133538213E+03 -0.26621435467E+03  0.29613483379E+03  0.00000000000E+00 0. -1.
         22    1    3    3    0    0  0.62570679391E+00 -0.10846135384E+02 -0.27116406424E+03  0.27138161304E+03  0.00000000000E+00 0.  1.
         22    1    3    3    0    0 -0.10567064491E+03 -0.15639174687E+03 -0.50068456656E+03  0.53507915197E+03  0.00000000000E+00 0.  1.
</event>
<event>
 7    1  0.6681656E-006  0.4600834E+02  0.7818608E-02  0.1570344E+00
          2   -1    0    0  502    0  0.00000000000E+00  0.00000000000E+00  0.96184896497E+03  0.96184896497E+03  0.00000000000E+00 0. -1.
          1   -1    0    0  501    0 -0.00000000000E+00 -0.00000000000E+00 -0.21131075781E+02  0.21131075781E+02  0.00000000000E+00 0. -1.
         25    2    1    2    0    0 -0.39379206353E+02 -0.28965223998E+02  0.69327073878E+03  0.70614649425E+03  0.12501539100E+03 0.  0.
          2    1    1    2  501    0  0.19255932937E+02 -0.12931756373E+02 -0.18233291308E+01  0.23266839177E+02  0.00000000000E+00 0. -1.
          1    1    1    2  502    0  0.20123273416E+02  0.41896980371E+02  0.24927047954E+03  0.25356670733E+03  0.00000000000E+00 0. -1.
         22    1    3    3    0    0 -0.23560114436E+02  0.45246432775E+02  0.39910558569E+03  0.40235256579E+03  0.00000000000E+00 0.  1.
         22    1    3    3    0    0 -0.15819091917E+02 -0.74211656773E+02  0.29416515309E+03  0.30379392845E+03  0.00000000000E+00 0.  1.
</event>
<event>
 7    1  0.6681656E-006  0.6528406E+02  0.7818608E-02  0.1476612E+00
          2   -1    0    0  502    0  0.00000000000E+00  0.00000000000E+00  0.12856449398E+04  0.12856449398E+04  0.00000000000E+00 0. -1.
          1   -1    0    0  501    0 -0.00000000000E+00 -0.00000000000E+00 -0.63218206647E+03  0.63218206647E+03  0.00000000000E+00 0. -1.
         25    2    1    2    0    0 -0.82350775574E+02  0.47407855413E+02  0.13812627593E+03  0.20912791878E+03  0.12500585314E+03 0.  0.
          2    1    1    2  501    0  0.26503649044E+02 -0.15137290678E+02 -0.59535468324E+03  0.59613654463E+03  0.00000000000E+00 0. -1.
          1    1    1    2  502    0  0.55847126530E+02 -0.32270564735E+02  0.11106912807E+04  0.11125625429E+04  0.00000000000E+00 0. -1.
         22    1    3    3    0    0 -0.29271501618E+02 -0.42687955909E+02  0.55174960430E+02  0.75652882596E+02  0.00000000000E+00 0.  1.
         22    1    3    3    0    0 -0.53079273957E+02  0.90095811322E+02  0.82951315496E+02  0.13347503618E+03  0.00000000000E+00 0.  1.
</event>
<event>
 7    1  0.6681656E-006  0.7765249E+02  0.7818608E-02  0.1344612E+00
          2   -1    0    0  502    0  0.00000000000E+00  0.00000000000E+00  0.94996486062E+03  0.94996486062E+03  0.00000000000E+00 0. -1.
          1   -1    0    0  501    0 -0.00000000000E+00 -0.00000000000E+00 -0.57141722114E+02  0.57141722114E+02  0.00000000000E+00 0. -1.
         25    2    1    2    0    0  0.35320088328E+02  0.18629011251E+02  0.25411686857E+03  0.28599754852E+03  0.12499866466E+03 0.  0.
          2    1    1    2  501    0 -0.47094236470E+02  0.61741733426E+02  0.39840882012E+00  0.77653509159E+02  0.00000000000E+00 0. -1.
          1    1    1    2  502    0  0.11774148142E+02 -0.80370744677E+02  0.63830786112E+03  0.64345552506E+03  0.00000000000E+00 0. -1.
         22    1    3    3    0    0 -0.42894087121E+02  0.75783417234E+01  0.45792875792E+02  0.63200644352E+02  0.00000000000E+00 0.  1.
         22    1    3    3    0    0  0.78214175449E+02  0.11050669527E+02  0.20832399278E+03  0.22279690416E+03  0.00000000000E+00 0.  1.
</event>
<event>
 7    1  0.6681656E-006  0.8976184E+02  0.7818608E-02  0.1331567E+00
          2   -1    0    0  502    0  0.00000000000E+00  0.00000000000E+00  0.58874924171E+03  0.58874924171E+03  0.00000000000E+00 0. -1.
          1   -1    0    0  501    0 -0.00000000000E+00 -0.00000000000E+00 -0.46079368778E+03  0.46079368778E+03  0.00000000000E+00 0. -1.
         25    2    1    2    0    0 -0.71670924201E+02 -0.75554344992E+01  0.14734666481E+03  0.20622576420E+03  0.12499688085E+03 0.  0.
          2    1    1    2  501    0  0.52105474152E+02  0.74494970169E+02 -0.42354438715E+03  0.43319086890E+03  0.00000000000E+00 0. -1.
          1    1    1    2  502    0  0.19565450049E+02 -0.66939535670E+02  0.40415327627E+03  0.41012629639E+03  0.00000000000E+00 0. -1.
         22    1    3    3    0    0 -0.46801655544E+02 -0.16945877600E+02  0.16629251713E+03  0.17358213901E+03  0.00000000000E+00 0. -1.
         22    1    3    3    0    0 -0.24869268656E+02  0.93904431008E+01 -0.18945852323E+02  0.32643625187E+02  0.00000000000E+00 0. -1.
</event>
<event>
 7    1  0.6681656E-006  0.3945420E+02  0.7818608E-02  0.1516492E+00
          2   -1    0    0  502    0  0.00000000000E+00  0.00000000000E+00  0.10179373562E+04  0.10179373562E+04  0.00000000000E+00 0. -1.
          1   -1    0    0  501    0 -0.00000000000E+00 -0.00000000000E+00 -0.16782216713E+04  0.16782216713E+04  0.00000000000E+00 0. -1.
         25    2    1    2    0    0 -0.69911692975E+02 -0.53685604897E+01  0.43336801365E+03  0.45645374492E+03  0.12500287893E+03 0.  0.
          2    1    1    2  501    0  0.34272030870E+02  0.19521025348E+02 -0.16658035696E+04  0.16662704388E+04  0.00000000000E+00 0. -1.
          1    1    1    2  502    0  0.35639662105E+02 -0.14152464858E+02  0.57215124085E+03  0.57343484388E+03  0.00000000000E+00 0. -1.
         22    1    3    3    0    0 -0.26573282554E+02  0.59460063527E+02  0.20978664355E+03  0.21966354798E+03  0.00000000000E+00 0.  1.
         22    1    3    3    0    0 -0.43338410421E+02 -0.64828624017E+02  0.22358137010E+03  0.23679019694E+03  0.00000000000E+00 0.  1.
</event>
<event>
 7    1  0.6681656E-006  0.2557964E+03  0.7818608E-02  0.1166997E+00
          2   -1    0    0  502    0  0.00000000000E+00  0.00000000000E+00  0.10236054613E+04  0.10236054613E+04  0.00000000000E+00 0. -1.
          1   -1    0    0  501    0 -0.00000000000E+00 -0.00000000000E+00 -0.71568157713E+03  0.71568157713E+03  0.00000000000E+00 0. -1.
         25    2    1    2    0    0 -0.13633286162E+03 -0.75159736061E+02  0.80721559206E+01  0.19981302107E+03  0.12499779441E+03 0.  0.
          2    1    1    2  501    0 -0.12689103914E+03 -0.15562924679E+02 -0.59175538503E+03  0.60540728122E+03  0.00000000000E+00 0. -1.
          1    1    1    2  502    0  0.26322390076E+03  0.90722660740E+02  0.89160711326E+03  0.93406673612E+03  0.00000000000E+00 0. -1.
         22    1    3    3    0    0 -0.26038003666E+02 -0.41901313055E+02 -0.50483388719E+02  0.70585198216E+02  0.00000000000E+00 0. -1.
         22    1    3    3    0    0 -0.11029485796E+03 -0.33258423006E+02  0.58555544639E+02  0.12922782286E+03  0.00000000000E+00 0. -1.
</event>
<event>
 7    1  0.6681656E-006  0.5391307E+02  0.7818608E-02  0.1448943E+00
          2   -1    0    0  502    0  0.00000000000E+00  0.00000000000E+00  0.19120903672E+04  0.19120903672E+04  0.00000000000E+00 0. -1.
          1   -1    0    0  501    0 -0.00000000000E+00 -0.00000000000E+00 -0.23614076842E+02  0.23614076842E+02  0.00000000000E+00 0. -1.
         25    2    1    2    0    0  0.34656956663E+02 -0.46263489189E+02  0.69637229284E+03  0.70986098467E+03  0.12500732879E+03 0.  0.
          2    1    1    2  501    0  0.20193985557E+02  0.40384210837E+02  0.15191622142E+02  0.47638922332E+02  0.00000000000E+00 0. -1.
          1    1    1    2  502    0 -0.54850942221E+02  0.58792783514E+01  0.11769123754E+04  0.11782045371E+04  0.00000000000E+00 0. -1.
         22    1    3    3    0    0  0.26819052043E+02  0.67496780957E+01  0.28039596459E+02  0.39383228365E+02  0.00000000000E+00 0.  1.
         22    1    3    3    0    0  0.78379046203E+01 -0.53013167284E+02  0.66833269638E+03  0.67047775631E+03  0.00000000000E+00 0.  1.
</event>
<event>
 7    1  0.6681656E-006  0.1152350E+03  0.7818608E-02  0.1311766E+00
          2   -1    0    0  502    0  0.00000000000E+00  0.00000000000E+00  0.11368838784E+04  0.11368838784E+04  0.00000000000E+00 0. -1.
          1   -1    0    0  501    0 -0.00000000000E+00 -0.00000000000E+00 -0.13121759672E+04  0.13121759672E+04  0.00000000000E+00 0. -1.
         25    2    1    2    0    0  0.95632775817E+02 -0.51010626569E+01  0.17136267031E+03  0.23272562093E+03  0.12499760483E+03 0.  0.
          2    1    1    2  501    0  0.11592359339E+01 -0.64796711105E+02 -0.12768573554E+04  0.12785009439E+04  0.00000000000E+00 0. -1.
          1    1    1    2  502    0 -0.96792011751E+02  0.69897773762E+02  0.93020259627E+03  0.93783328072E+03  0.00000000000E+00 0. -1.
         22    1    3    3    0    0  0.25137217940E+02 -0.41650607308E+02  0.13848493119E+03  0.14678122830E+03  0.00000000000E+00 0.  1.
         22    1    3    3    0    0  0.70495557877E+02  0.36549544651E+02  0.32877739112E+02  0.85944392626E+02  0.00000000000E+00 0.  1.
</event>
<event>
 7    1  0.6681656E-006  0.1180715E+03  0.7818608E-02  0.1339149E+00
          2   -1    0    0  502    0  0.00000000000E+00  0.00000000000E+00  0.62876611138E+03  0.62876611138E+03  0.00000000000E+00 0. -1.
          1   -1    0    0  501    0 -0.00000000000E+00 -0.00000000000E+00 -0.34637005129E+03  0.34637005129E+03  0.00000000000E+00 0. -1.
         25    2    1    2    0    0  0.65983368529E+02 -0.51072762332E+02  0.35799215276E+03  0.38826122428E+03  0.12500465937E+03 0.  0.
          2    1    1    2  501    0 -0.11345471392E+03  0.36611318103E+02 -0.31791201918E+03  0.33952969335E+03  0.00000000000E+00 0. -1.
          1    1    1    2  502    0  0.47471345390E+02  0.14461444228E+02  0.24231592651E+03  0.24734524504E+03  0.00000000000E+00 0. -1.
         22    1    3    3    0    0  0.39047510903E+02 -0.10632621672E+02  0.32941391812E+03  0.33189047922E+03  0.00000000000E+00 0. -1.
         22    1    3    3    0    0  0.26935857625E+02 -0.40440140659E+02  0.28578234648E+02  0.56370745055E+02  0.00000000000E+00 0. -1.
</event>
<event>
 7    1  0.6681656E-006  0.5245661E+02  0.7818608E-02  0.1514147E+00
          2   -1    0    0  502    0  0.00000000000E+00  0.00000000000E+00  0.13223917200E+04  0.13223917200E+04  0.00000000000E+00 0. -1.
          1   -1    0    0  501    0 -0.00000000000E+00 -0.00000000000E+00 -0.29690593877E+03  0.29690593877E+03  0.00000000000E+00 0. -1.
         25    2    1    2    0    0  0.21090761199E+02 -0.15714034229E+02  0.50453378960E+02  0.13732965314E+03  0.12498855589E+03 0.  0.
          2    1    1    2  501    0 -0.50341063868E+02  0.17429871200E+02 -0.25049156248E+03  0.25609382265E+03  0.00000000000E+00 0. -1.
          1    1    1    2  502    0  0.29250302669E+02 -0.17158369705E+01  0.12255239647E+04  0.12258741829E+04  0.00000000000E+00 0. -1.
         22    1    3    3    0    0  0.44058214216E+02 -0.59390006035E+02  0.47510945478E+02  0.87895329779E+02  0.00000000000E+00 0. -1.
         22    1    3    3    0    0 -0.22967453016E+02  0.43675971806E+02  0.29424334820E+01  0.49434323360E+02  0.00000000000E+00 0. -1.
</event>
<event>
 7    1  0.6681656E-006  0.2749564E+03  0.7818608E-02  0.1327913E+00
          2   -1    0    0  502    0  0.00000000000E+00  0.00000000000E+00  0.13161133006E+04  0.13161133006E+04  0.00000000000E+00 0. -1.
          1   -1    0    0  501    0 -0.00000000000E+00 -0.00000000000E+00 -0.12843747600E+04  0.12843747600E+04  0.00000000000E+00 0. -1.
         25    2    1    2    0    0 -0.52411556583E+02 -0.27211072850E+03  0.54856036276E+02  0.30891032430E+03  0.12500073568E+03 0.  0.
          2    1    1    2  501    0 -0.22230646444E+02  0.76534612444E+01 -0.11405814391E+04  0.11408237358E+04  0.00000000000E+00 0. -1.
          1    1    1    2  502    0  0.74642203027E+02  0.26445726725E+03  0.11174639435E+04  0.11507540005E+04  0.00000000000E+00 0. -1.
         22    1    3    3    0    0 -0.31693252711E+02 -0.27679572189E+03  0.36785398179E+02  0.28102224012E+03  0.00000000000E+00 0. -1.
         22    1    3    3    0    0 -0.20718303872E+02  0.46849933900E+01  0.18070638097E+02  0.27888084187E+02  0.00000000000E+00 0. -1.
</event>
<event>
 7    1  0.6681656E-006  0.6796379E+02  0.7818608E-02  0.1411584E+00
          2   -1    0    0  502    0  0.00000000000E+00  0.00000000000E+00  0.12325866573E+04  0.12325866573E+04  0.00000000000E+00 0. -1.
          1   -1    0    0  501    0 -0.00000000000E+00 -0.00000000000E+00 -0.13423620341E+04  0.13423620341E+04  0.00000000000E+00 0. -1.
         25    2    1    2    0    0  0.11107228258E+03  0.22315790752E+02  0.25535501743E+02  0.17062607272E+03  0.12500459339E+03 0.  0.
          2    1    1    2  501    0 -0.47539921807E+02  0.49087301862E-01 -0.12683713751E+04  0.12692619870E+04  0.00000000000E+00 0. -1.
          1    1    1    2  502    0 -0.63532360768E+02 -0.22364878054E+02  0.11330604966E+04  0.11350606317E+04  0.00000000000E+00 0. -1.
         22    1    3    3    0    0  0.81995653710E+02  0.73313811581E+02  0.15863727485E+02  0.11112992417E+03  0.00000000000E+00 0. -1.
         22    1    3    3    0    0  0.29076628866E+02 -0.50998020830E+02  0.96717742579E+01  0.59496148548E+02  0.00000000000E+00 0. -1.
</event>
<event>
 7    1  0.6681656E-006  0.1702023E+03  0.7818608E-02  0.1254653E+00
          2   -1    0    0  502    0  0.00000000000E+00  0.00000000000E+00  0.32568351458E+02  0.32568351458E+02  0.00000000000E+00 0. -1.
          1   -1    0    0  501    0 -0.00000000000E+00 -0.00000000000E+00 -0.24887124293E+04  0.24887124293E+04  0.00000000000E+00 0. -1.
         25    2    1    2    0    0 -0.12877765959E+03  0.17727240843E+02 -0.78389069108E+03  0.80437703901E+03  0.12505944441E+03 0.  0.
          2    1    1    2  501    0  0.19391564935E+03  0.20180111295E+02 -0.16021687331E+04  0.16139873498E+04  0.00000000000E+00 0. -1.
          1    1    1    2  502    0 -0.65137989761E+02 -0.37907352138E+02 -0.70084653656E+02  0.10291639196E+03  0.00000000000E+00 0. -1.
         22    1    3    3    0    0 -0.19263971817E+01  0.38740558523E+02 -0.34100759393E+03  0.34320652820E+03  0.00000000000E+00 0. -1.
         22    1    3    3    0    0 -0.12685126240E+03 -0.21013317680E+02 -0.44288309716E+03  0.46117051081E+03  0.00000000000E+00 0. -1.
</event>
<event>
 7    1  0.6681656E-006  0.8841353E+02  0.7818608E-02  0.1340733E+00
          2   -1    0    0  502    0  0.00000000000E+00  0.00000000000E+00  0.92895507126E+03  0.92895507126E+03  0.00000000000E+00 0. -1.
          1   -1    0    0  501    0 -0.00000000000E+00 -0.00000000000E+00 -0.41422067568E+02  0.41422067568E+02  0.00000000000E+00 0. -1.
         25    2    1    2    0    0 -0.71552590748E+02 -0.18402564133E+02  0.21794513484E+03  0.26188575221E+03  0.12500255118E+03 0.  0.
          2    1    1    2  501    0  0.22387655856E+02 -0.61415128203E+02  0.51185633880E+02  0.83024058095E+02  0.00000000000E+00 0. -1.
          1    1    1    2  502    0  0.49164934892E+02  0.79817692335E+02  0.61840223497E+03  0.62546732852E+03  0.00000000000E+00 0. -1.
         22    1    3    3    0    0 -0.28818908468E+01  0.35869204903E+02  0.11704488344E+02  0.37840457220E+02  0.00000000000E+00 0.  1.
         22    1    3    3    0    0 -0.68670699902E+02 -0.54271769036E+02  0.20624064650E+03  0.22404529499E+03  0.00000000000E+00 0.  1.
</event>
<event>
 7    1  0.6681656E-006  0.1631676E+03  0.7818608E-02  0.1300522E+00
          2   -1    0    0  502    0  0.00000000000E+00  0.00000000000E+00  0.19880558597E+03  0.19880558597E+03  0.00000000000E+00 0. -1.
          1   -1    0    0  501    0 -0.00000000000E+00 -0.00000000000E+00 -0.99983882423E+03  0.99983882423E+03  0.00000000000E+00 0. -1.
         25    2    1    2    0    0 -0.92160374099E+02  0.18679983760E+03 -0.16002223659E+03  0.29089419378E+03  0.12499840755E+03 0.  0.
          2    1    1    2  501    0  0.68592919400E+02 -0.14189117855E+03 -0.76117619896E+03  0.77732059088E+03  0.00000000000E+00 0. -1.
          1    1    1    2  502    0  0.23567454699E+02 -0.44908659049E+02  0.12016519729E+03  0.13042962554E+03  0.00000000000E+00 0. -1.
         22    1    3    3    0    0 -0.96597951310E+01  0.16060027734E+02  0.21408449327E+02  0.28452729840E+02  0.00000000000E+00 0. -1.
         22    1    3    3    0    0 -0.82500578968E+02  0.17073980986E+03 -0.18143068592E+03  0.26244146394E+03  0.00000000000E+00 0. -1.
</event>
<event>
 7    1  0.6681656E-006  0.2507002E+03  0.7818608E-02  0.1182778E+00
          2   -1    0    0  502    0  0.00000000000E+00  0.00000000000E+00  0.27341491937E+03  0.27341491937E+03  0.00000000000E+00 0. -1.
          1   -1    0    0  501    0 -0.00000000000E+00 -0.00000000000E+00 -0.12938432218E+04  0.12938432218E+04  0.00000000000E+00 0. -1.
         25    2    1    2    0    0  0.10940060350E+02  0.15952905761E+03 -0.48779758845E+02  0.20874333527E+03  0.12500044001E+03 0.  0.
          2    1    1    2  501    0 -0.60429768948E+01 -0.26848591761E+03 -0.11326481538E+04  0.11640502763E+04  0.00000000000E+00 0. -1.
          1    1    1    2  502    0 -0.48970834551E+01  0.10895686001E+03  0.16099961022E+03  0.19446452956E+03  0.00000000000E+00 0. -1.
         22    1    3    3    0    0  0.22533073861E+02  0.95360979577E+02  0.33682952689E+02  0.10361465700E+03  0.00000000000E+00 0. -1.
         22    1    3    3    0    0 -0.11593013511E+02  0.64168078029E+02 -0.82462711534E+02  0.10512867826E+03  0.00000000000E+00 0. -1.
</event>
<event>
 7    1  0.6681656E-006  0.2535440E+03  0.7818608E-02  0.1205405E+00
          2   -1    0    0  502    0  0.00000000000E+00  0.00000000000E+00  0.89368546401E+03  0.89368546401E+03  0.00000000000E+00 0. -1.
          1   -1    0    0  501    0 -0.00000000000E+00 -0.00000000000E+00 -0.85806966511E+03  0.85806966511E+03  0.00000000000E+00 0. -1.
         25    2    1    2    0    0  0.77044239226E+01  0.29551409459E+03 -0.92890584900E+02  0.33412863737E+03  0.12500138918E+03 0.  0.
          2    1    1    2  501    0  0.63321286262E+02 -0.55401910098E+02 -0.62137433763E+03  0.62704467497E+03  0.00000000000E+00 0. -1.
          1    1    1    2  502    0 -0.71025710185E+02 -0.24011218449E+03  0.74988072143E+03  0.79058181678E+03  0.00000000000E+00 0. -1.
         22    1    3    3    0    0  0.82467831836E+01  0.29562629115E+03 -0.60666194159E+02  0.30189948752E+03  0.00000000000E+00 0.  1.
         22    1    3    3    0    0 -0.54235926102E+00 -0.11219655420E+00 -0.32224390740E+02  0.32229149852E+02  0.00000000000E+00 0.  1.
</event>
<event>
 7    1  0.6681656E-006  0.5057759E+02  0.7818608E-02  0.1464206E+00
          2   -1    0    0  502    0  0.00000000000E+00  0.00000000000E+00  0.97055398311E+02  0.97055398311E+02  0.00000000000E+00 0. -1.
          1   -1    0    0  501    0 -0.00000000000E+00 -0.00000000000E+00 -0.19979003329E+04  0.19979003329E+04  0.00000000000E+00 0. -1.
         25    2    1    2    0    0  0.54478733224E+02  0.66908710971E+02 -0.25348116951E+03  0.29550314877E+03  0.12499879863E+03 0.  0.
          2    1    1    2  501    0 -0.38120570890E+02 -0.20015158275E+02 -0.17150000107E+04  0.17155403875E+04  0.00000000000E+00 0. -1.
          1    1    1    2  502    0 -0.16358162334E+02 -0.46893552696E+02  0.67636245543E+02  0.83912195005E+02  0.00000000000E+00 0. -1.
         22    1    3    3    0    0 -0.22429258662E+02  0.57845817536E+02 -0.56761116095E+02  0.84089443754E+02  0.00000000000E+00 0.  1.
         22    1    3    3    0    0  0.76907991887E+02  0.90628934356E+01 -0.19672005342E+03  0.21141370502E+03  0.00000000000E+00 0.  1.
</event>
<event>
 7    1  0.6681656E-006  0.1483214E+03  0.7818608E-02  0.1213373E+00
          2   -1    0    0  502    0  0.00000000000E+00  0.00000000000E+00  0.79416643675E+03  0.79416643675E+03  0.00000000000E+00 0. -1.
          1   -1    0    0  501    0 -0.00000000000E+00 -0.00000000000E+00 -0.77793645891E+03  0.77793645891E+03  0.00000000000E+00 0. -1.
         25    2    1    2    0    0  0.87579417883E+01  0.71785046008E+02 -0.30365785760E+02  0.14756836685E+03  0.12499819028E+03 0.  0.
          2    1    1    2  501    0 -0.12790488536E+03  0.32963905555E+02 -0.67392922512E+03  0.68675095867E+03  0.00000000000E+00 0. -1.
          1    1    1    2  502    0  0.11914694357E+03 -0.10474895156E+03  0.72052498871E+03  0.73778357014E+03  0.00000000000E+00 0. -1.
         22    1    3    3    0    0 -0.29529123129E+02 -0.26032361522E+02 -0.80147448574E+01  0.40173238534E+02  0.00000000000E+00 0.  1.
         22    1    3    3    0    0  0.38287064917E+02  0.97817407530E+02 -0.22351040903E+02  0.10739512831E+03  0.00000000000E+00 0.  1.
</event>
<event>
 7    1  0.6681656E-006  0.3050689E+02  0.7818608E-02  0.1628857E+00
          2   -1    0    0  502    0  0.00000000000E+00  0.00000000000E+00  0.10283819754E+04  0.10283819754E+04  0.00000000000E+00 0. -1.
          1   -1    0    0  501    0 -0.00000000000E+00 -0.00000000000E+00 -0.66281585378E+03  0.66281585378E+03  0.00000000000E+00 0. -1.
         25    2    1    2    0    0 -0.45622742059E+01 -0.54544600235E+02  0.81444498656E+02  0.15891468730E+03  0.12499897487E+03 0.  0.
          2    1    1    2  501    0 -0.27511867736E+00  0.30431547567E+02 -0.62354309113E+03  0.62428530439E+03  0.00000000000E+00 0. -1.
          1    1    1    2  502    0  0.48373928832E+01  0.24113052667E+02  0.90766471406E+03  0.90799783746E+03  0.00000000000E+00 0. -1.
         22    1    3    3    0    0 -0.49964182772E+02 -0.64704672819E+02  0.24421824059E+02  0.85320218794E+02  0.00000000000E+00 0.  1.
         22    1    3    3    0    0  0.45401908566E+02  0.10160072584E+02  0.57022674597E+02  0.73594468505E+02  0.00000000000E+00 0.  1.
</event>
<event>
 7    1  0.6681656E-006  0.1258027E+03  0.7818608E-02  0.1314037E+00
          2   -1    0    0  502    0  0.00000000000E+00  0.00000000000E+00  0.17928150236E+04  0.17928150236E+04  0.00000000000E+00 0. -1.
          1   -1    0    0  501    0 -0.00000000000E+00 -0.00000000000E+00 -0.98346278256E+02  0.98346278256E+02  0.00000000000E+00 0. -1.
         25    2    1    2    0    0  0.73532989919E+02 -0.21116274549E+02  0.29591330775E+03  0.33021696832E+03  0.12500225120E+03 0.  0.
          2    1    1    2  501    0 -0.12921603388E+03  0.37900273416E+02 -0.24356283634E+02  0.13684459320E+03  0.00000000000E+00 0. -1.
          1    1    1    2  502    0  0.55683043961E+02 -0.16783998867E+02  0.14229117212E+04  0.14240997403E+04  0.00000000000E+00 0. -1.
         22    1    3    3    0    0  0.60696913693E+02 -0.50983415310E+02  0.28516555900E+03  0.29597773566E+03  0.00000000000E+00 0. -1.
         22    1    3    3    0    0  0.12836076226E+02  0.29867140760E+02  0.10747748757E+02  0.34239232664E+02  0.00000000000E+00 0. -1.
</event>
<event>
 7    1  0.6681656E-006  0.6379213E+02  0.7818608E-02  0.1430297E+00
          2   -1    0    0  502    0  0.00000000000E+00  0.00000000000E+00  0.60218996847E+03  0.60218996847E+03  0.00000000000E+00 0. -1.
          1   -1    0    0  501    0 -0.00000000000E+00 -0.00000000000E+00 -0.21464462051E+04  0.21464462051E+04  0.00000000000E+00 0. -1.
         25    2    1    2    0    0  0.21776763155E+02  0.19079464273E+02  0.24708850946E+03  0.27841662695E+03  0.12499933314E+03 0.  0.
          2    1    1    2  501    0  0.26337220422E+02  0.35082446142E+02 -0.21266878052E+04  0.21271402041E+04  0.00000000000E+00 0. -1.
          1    1    1    2  502    0 -0.48113983578E+02 -0.54161910415E+02  0.33534305911E+03  0.34307934250E+03  0.00000000000E+00 0. -1.
         22    1    3    3    0    0  0.55308588429E+02 -0.33988104118E+02  0.11195725954E+03  0.12941661076E+03  0.00000000000E+00 0.  1.
         22    1    3    3    0    0 -0.33531825273E+02  0.53067568392E+02  0.13513124992E+03  0.14900001619E+03  0.00000000000E+00 0.  1.
</event>
<event>
 7    1  0.6681656E-006  0.6788944E+02  0.7818608E-02  0.1394380E+00
          2   -1    0    0  502    0  0.00000000000E+00  0.00000000000E+00  0.17888991843E+03  0.17888991843E+03  0.00000000000E+00 0. -1.
          1   -1    0    0  501    0 -0.00000000000E+00 -0.00000000000E+00 -0.48152675416E+03  0.48152675416E+03  0.00000000000E+00 0. -1.
         25    2    1    2    0    0 -0.19562070702E+02  0.48475800376E+01  0.14839858397E+02  0.12747892454E+03  0.12499792463E+03 0.  0.
          2    1    1    2  501    0  0.65676301791E+02  0.24209172102E+02 -0.41519096509E+03  0.42104987605E+03  0.00000000000E+00 0. -1.
          1    1    1    2  502    0 -0.46114231089E+02 -0.29056752139E+02  0.97714270961E+02  0.11188787201E+03  0.00000000000E+00 0. -1.
         22    1    3    3    0    0 -0.11643523797E+02 -0.19485661371E+02 -0.51550973861E+02  0.56327307334E+02  0.00000000000E+00 0. -1.
         22    1    3    3    0    0 -0.79185469050E+01  0.24333241409E+02  0.66390832258E+02  0.71151617202E+02  0.00000000000E+00 0. -1.
</event>
<event>
 7    1  0.6681656E-006  0.1308891E+03  0.7818608E-02  0.1315056E+00
          2   -1    0    0  502    0  0.00000000000E+00  0.00000000000E+00  0.44629582615E+03  0.44629582615E+03  0.00000000000E+00 0. -1.
          1   -1    0    0  501    0 -0.00000000000E+00 -0.00000000000E+00 -0.17267983951E+03  0.17267983951E+03  0.00000000000E+00 0. -1.
         25    2    1    2    0    0  0.84661085352E+02 -0.15966990295E+03 -0.43610929249E+00  0.21974372136E+03  0.12500054242E+03 0.  0.
          2    1    1    2  501    0 -0.24924670351E+02  0.49461685204E+02 -0.35140531502E+02  0.65593859846E+02  0.00000000000E+00 0. -1.
          1    1    1    2  502    0 -0.59736415001E+02  0.11020821775E+03  0.30919262744E+03  0.33363808446E+03  0.00000000000E+00 0. -1.
         22    1    3    3    0    0  0.11524166766E+03 -0.13114065940E+03  0.14859759670E+02  0.17521223408E+03  0.00000000000E+00 0.  1.
         22    1    3    3    0    0 -0.30580582313E+02 -0.28529243553E+02 -0.15295868963E+02  0.44531487283E+02  0.00000000000E+00 0.  1.
</event>
<event>
 7    1  0.6681656E-006  0.2651285E+02  0.7818608E-02  0.1660849E+00
          2   -1    0    0  502    0  0.00000000000E+00  0.00000000000E+00  0.46109616040E+02  0.46109616040E+02  0.00000000000E+00 0. -1.
          1   -1    0    0  501    0 -0.00000000000E+00 -0.00000000000E+00 -0.24079234453E+04  0.24079234453E+04  0.00000000000E+00 0. -1.
         25    2    1    2    0    0 -0.48087147137E+02 -0.65019602160E+00 -0.72707125224E+03  0.73930396857E+03  0.12499982255E+03 0.  0.
          2    1    1    2  501    0  0.25292710068E+02  0.67385755091E+01 -0.16711447286E+04  0.16713497041E+04  0.00000000000E+00 0. -1.
          1    1    1    2  502    0  0.22794437070E+02 -0.60883794875E+01  0.36402151532E+02  0.43379388680E+02  0.00000000000E+00 0. -1.
         22    1    3    3    0    0  0.39055397333E+01  0.49059529072E+02 -0.46308622978E+03  0.46569404854E+03  0.00000000000E+00 0.  1.
         22    1    3    3    0    0 -0.51992686871E+02 -0.49709725094E+02 -0.26398502246E+03  0.27360992003E+03  0.00000000000E+00 0.  1.
</event>
<event>
 7    1  0.6681656E-006  0.4102350E+02  0.7818608E-02  0.1612095E+00
          2   -1    0    0  502    0  0.00000000000E+00  0.00000000000E+00  0.10471609741E+02  0.10471609741E+02  0.00000000000E+00 0. -1.
          1   -1    0    0  501    0 -0.00000000000E+00 -0.00000000000E+00 -0.98744355266E+03  0.98744355266E+03  0.00000000000E+00 0. -1.
         25    2    1    2    0    0  0.38355789148E+02 -0.16852916394E+02 -0.61445397290E+03  0.62843561525E+03  0.12498980102E+03 0.  0.
          2    1    1    2  501    0 -0.41543760148E+02 -0.30703963033E+01 -0.31653922592E+03  0.31926852787E+03  0.00000000000E+00 0. -1.
          1    1    1    2  502    0  0.31879710002E+01  0.19923312697E+02 -0.45978744105E+02  0.50211019282E+02  0.00000000000E+00 0. -1.
         22    1    3    3    0    0 -0.32624779569E+02  0.17770773864E+02 -0.36238963784E+03  0.36428893239E+03  0.00000000000E+00 0. -1.
         22    1    3    3    0    0  0.70980568717E+02 -0.34623690258E+02 -0.25206433506E+03  0.26414668287E+03  0.00000000000E+00 0. -1.
</event>
<event>
 7    1  0.6681656E-006  0.7278317E+02  0.7818608E-02  0.1374809E+00
          2   -1    0    0  502    0  0.00000000000E+00  0.00000000000E+00  0.17269439740E+04  0.17269439740E+04  0.00000000000E+00 0. -1.
          1   -1    0    0  501    0 -0.00000000000E+00 -0.00000000000E+00 -0.18031768035E+02  0.18031768035E+02  0.00000000000E+00 0. -1.
         25    2    1    2    0    0  0.42978466223E+02  0.59660127127E+02  0.60913341106E+03  0.62615873277E+03  0.12499906729E+03 0.  0.
          2    1    1    2  501    0  0.14160610153E+02 -0.76518920224E+02  0.16813265905E+03  0.18526807354E+03  0.00000000000E+00 0. -1.
          1    1    1    2  502    0 -0.57139076376E+02  0.16858793097E+02  0.93164613581E+03  0.93354893568E+03  0.00000000000E+00 0. -1.
         22    1    3    3    0    0  0.28470567780E+02  0.40609423242E+02  0.59746723559E+03  0.59952213979E+03  0.00000000000E+00 0. -1.
         22    1    3    3    0    0  0.14507898443E+02  0.19050703884E+02  0.11666175470E+02  0.26636592984E+02  0.00000000000E+00 0. -1.
</event>
<event>
 7    1  0.6681656E-006  0.7869318E+02  0.7818608E-02  0.1371951E+00
          2   -1    0    0  502    0  0.00000000000E+00  0.00000000000E+00  0.14480373360E+04  0.14480373360E+04  0.00000000000E+00 0. -1.
          1   -1    0    0  501    0 -0.00000000000E+00 -0.00000000000E+00 -0.35784788383E+02  0.35784788383E+02  0.00000000000E+00 0. -1.
         25    2    1    2    0    0  0.25570082747E+02  0.35681324545E+02  0.53822559867E+03  0.55429071448E+03  0.12499766016E+03 0.  0.
          2    1    1    2  501    0  0.56365880415E+02  0.22825005757E+01  0.58993532023E+01  0.56719702504E+02  0.00000000000E+00 0. -1.
          1    1    1    2  502    0 -0.81935963162E+02 -0.37963825120E+02  0.86812759577E+03  0.87281170742E+03  0.00000000000E+00 0. -1.
         22    1    3    3    0    0  0.67707752308E+02  0.32139212479E+02  0.45292233589E+03  0.45908159520E+03  0.00000000000E+00 0. -1.
         22    1    3    3    0    0 -0.42137669561E+02  0.35421120651E+01  0.85303262780E+02  0.95209119285E+02  0.00000000000E+00 0. -1.
</event>
<event>
 7    1  0.6681656E-006  0.1435094E+03  0.7818608E-02  0.1267448E+00
          2   -1    0    0  502    0  0.00000000000E+00  0.00000000000E+00  0.64349313675E+03  0.64349313675E+03  0.00000000000E+00 0. -1.
          1   -1    0    0  501    0 -0.00000000000E+00 -0.00000000000E+00 -0.32203116670E+03  0.32203116670E+03  0.00000000000E+00 0. -1.
         25    2    1    2    0    0  0.55733323816E+02  0.43612187954E+02 -0.78940004094E+02  0.16390328484E+03  0.12499814484E+03 0.  0.
          2    1    1    2  501    0  0.53715890850E+02  0.57707264052E+02 -0.18310391966E+03  0.19935538781E+03  0.00000000000E+00 0. -1.
          1    1    1    2  502    0 -0.10944921467E+03 -0.10131945201E+03  0.58350589380E+03  0.60226563080E+03  0.00000000000E+00 0. -1.
         22    1    3    3    0    0  0.80725308733E+01 -0.41282877351E+02 -0.42916342628E+02  0.60093711665E+02  0.00000000000E+00 0. -1.
         22    1    3    3    0    0  0.47660792943E+02  0.84895065305E+02 -0.36023661466E+02  0.10380957317E+03  0.00000000000E+00 0. -1.
</event>
<event>
 7    1  0.6681656E-006  0.4441199E+02  0.7818608E-02  0.1487562E+00
          2   -1    0    0  502    0  0.00000000000E+00  0.00000000000E+00  0.46593350995E+03  0.46593350995E+03  0.00000000000E+00 0. -1.
          1   -1    0    0  501    0 -0.00000000000E+00 -0.00000000000E+00 -0.12097093284E+03  0.12097093284E+03  0.00000000000E+00 0. -1.
         25    2    1    2    0    0  0.71650734082E+01  0.30652326888E+02  0.66652260313E+01  0.12907497003E+03  0.12500007692E+03 0.  0.
          2    1    1    2  501    0 -0.44689704047E+02 -0.68967692538E+01 -0.49761234999E+02  0.67237754146E+02  0.00000000000E+00 0. -1.
          1    1    1    2  502    0  0.37524630639E+02 -0.23755557634E+02  0.38805858608E+03  0.39059171862E+03  0.00000000000E+00 0. -1.
         22    1    3    3    0    0 -0.28899623442E+02  0.89150204035E+01  0.56345886615E+02  0.63949392196E+02  0.00000000000E+00 0.  1.
         22    1    3    3    0    0  0.36064696850E+02  0.21737306485E+02 -0.49680660584E+02  0.65125577833E+02  0.00000000000E+00 0.  1.
</event>
<event>
 7    1  0.6681656E-006  0.4238676E+02  0.7818608E-02  0.1524216E+00
          2   -1    0    0  502    0  0.00000000000E+00  0.00000000000E+00  0.30464665727E+03  0.30464665727E+03  0.00000000000E+00 0. -1.
          1   -1    0    0  501    0 -0.00000000000E+00 -0.00000000000E+00 -0.12087322473E+03  0.12087322473E+03  0.00000000000E+00 0. -1.
         25    2    1    2    0    0  0.23124952988E+02  0.45363987916E+02  0.14954039261E+03  0.20144293666E+03  0.12499709140E+03 0.  0.
          2    1    1    2  501    0  0.10512776618E+02 -0.41171140206E+02 -0.87736374427E+02  0.97484627792E+02  0.00000000000E+00 0. -1.
          1    1    1    2  502    0 -0.33637729606E+02 -0.41928477107E+01  0.12196941435E+03  0.12659231755E+03  0.00000000000E+00 0. -1.
         22    1    3    3    0    0  0.37722516516E+02  0.83724599183E+02  0.86086859535E+02  0.12587193549E+03  0.00000000000E+00 0.  1.
         22    1    3    3    0    0 -0.14597563528E+02 -0.38360611267E+02  0.63453533072E+02  0.75571001165E+02  0.00000000000E+00 0.  1.
</event>
<event>
 7    1  0.6681656E-006  0.1076805E+03  0.7818608E-02  0.1337497E+00
          2   -1    0    0  502    0  0.00000000000E+00  0.00000000000E+00  0.74092609044E+03  0.74092609044E+03  0.00000000000E+00 0. -1.
          1   -1    0    0  501    0 -0.00000000000E+00 -0.00000000000E+00 -0.13575831064E+03  0.13575831064E+03  0.00000000000E+00 0. -1.
         25    2    1    2    0    0  0.13237380372E+03  0.73212667212E+02  0.25387775083E+03  0.32087696901E+03  0.12500079329E+03 0.  0.
          2    1    1    2  501    0 -0.54341782433E+02 -0.96967736744E+01 -0.88692515790E+02  0.10446731113E+03  0.00000000000E+00 0. -1.
          1    1    1    2  502    0 -0.78032021291E+02 -0.63515893537E+02  0.43998254476E+03  0.45134012094E+03  0.00000000000E+00 0. -1.
         22    1    3    3    0    0  0.10224345890E+03  0.38492714794E+02  0.66399564325E+02  0.12784489087E+03  0.00000000000E+00 0. -1.
         22    1    3    3    0    0  0.30130344824E+02  0.34719952417E+02  0.18747818651E+03  0.19303207814E+03  0.00000000000E+00 0. -1.
</event>
<event>
 7    1  0.6681656E-006  0.2502477E+03  0.7818608E-02  0.1188749E+00
          2   -1    0    0  502    0  0.00000000000E+00  0.00000000000E+00  0.26130458291E+04  0.26130458291E+04  0.00000000000E+00 0. -1.
          1   -1    0    0  501    0 -0.00000000000E+00 -0.00000000000E+00 -0.84301417509E+03  0.84301417509E+03  0.00000000000E+00 0. -1.
         25    2    1    2    0    0  0.34711511964E+03 -0.33579847057E+02 -0.17093130086E+03  0.40799403340E+03  0.12500043706E+03 0.  0.
          2    1    1    2  501    0 -0.99101018170E+02  0.25135997361E+02 -0.54259376825E+03  0.55214203563E+03  0.00000000000E+00 0. -1.
          1    1    1    2  502    0 -0.24801410147E+03  0.84438496961E+01  0.24835567232E+04  0.24959239352E+04  0.00000000000E+00 0. -1.
         22    1    3    3    0    0 -0.58039554818E+01 -0.10726860946E+02  0.47690663697E+01  0.13095626714E+02  0.00000000000E+00 0. -1.
         22    1    3    3    0    0  0.35291907512E+03 -0.22852986111E+02 -0.17570036723E+03  0.39489840668E+03  0.00000000000E+00 0. -1.
</event>
<event>
 7    1  0.6681656E-006  0.5642923E+02  0.7818608E-02  0.1488272E+00
          2   -1    0    0  502    0  0.00000000000E+00  0.00000000000E+00  0.36225765518E+02  0.36225765518E+02  0.00000000000E+00 0. -1.
          1   -1    0    0  501    0 -0.00000000000E+00 -0.00000000000E+00 -0.10007661874E+04  0.10007661874E+04  0.00000000000E+00 0. -1.
         25    2    1    2    0    0  0.44424647518E+01  0.59636373137E+02 -0.34988500009E+03  0.37632458878E+03  0.12499780134E+03 0.  0.
          2    1    1    2  501    0 -0.31151708662E+02 -0.93638713315E+01 -0.60131985381E+03  0.60219903489E+03  0.00000000000E+00 0. -1.
          1    1    1    2  502    0  0.26709243910E+02 -0.50272501806E+02 -0.13335567947E+02  0.58468329209E+02  0.00000000000E+00 0. -1.
         22    1    3    3    0    0  0.55963634739E+02  0.47579191924E+02 -0.12225304779E+03  0.14262368531E+03  0.00000000000E+00 0.  1.
         22    1    3    3    0    0 -0.51521169987E+02  0.12057181213E+02 -0.22763195230E+03  0.23370090348E+03  0.00000000000E+00 0.  1.
</event>
<event>
 7    1  0.6681656E-006  0.9585125E+02  0.7818608E-02  0.1387413E+00
          2   -1    0    0  502    0  0.00000000000E+00  0.00000000000E+00  0.83299473742E+03  0.83299473742E+03  0.00000000000E+00 0. -1.
          1   -1    0    0  501    0 -0.00000000000E+00 -0.00000000000E+00 -0.63486514694E+03  0.63486514694E+03  0.00000000000E+00 0. -1.
         25    2    1    2    0    0 -0.33323287758E+02  0.11085859515E+03 -0.55752692320E+01  0.17045865873E+03  0.12500000434E+03 0.  0.
          2    1    1    2  501    0 -0.43212409070E+01 -0.95062096867E+02 -0.54214588440E+03  0.55043404269E+03  0.00000000000E+00 0. -1.
          1    1    1    2  502    0  0.37644528665E+02 -0.15796498281E+02  0.74585074411E+03  0.74696718294E+03  0.00000000000E+00 0. -1.
         22    1    3    3    0    0  0.59869490501E+01  0.12153474244E+03 -0.26693509168E+02  0.12457560198E+03  0.00000000000E+00 0. -1.
         22    1    3    3    0    0 -0.39310236808E+02 -0.10676147288E+02  0.21118239936E+02  0.45883056751E+02  0.00000000000E+00 0. -1.
</event>
<event>
 7    1  0.6681656E-006  0.7314528E+02  0.7818608E-02  0.1504181E+00
          2   -1    0    0  502    0  0.00000000000E+00  0.00000000000E+00  0.78260231492E+03  0.78260231492E+03  0.00000000000E+00 0. -1.
          1   -1    0    0  501    0 -0.00000000000E+00 -0.00000000000E+00 -0.45435334715E+03  0.45435334715E+03  0.00000000000E+00 0. -1.
         25    2    1    2    0    0 -0.78346258691E+02  0.30825993469E+02 -0.45923113162E+02  0.15755190203E+03  0.12500116554E+03 0.  0.
          2    1    1    2  501    0  0.19117394391E+02  0.11833090098E+02 -0.35042199462E+03  0.35114252249E+03  0.00000000000E+00 0. -1.
          1    1    1    2  502    0  0.59228864300E+02 -0.42659083567E+02  0.72459407556E+03  0.72826123755E+03  0.00000000000E+00 0. -1.
         22    1    3    3    0    0 -0.39979587182E+02  0.40975367053E+02 -0.84591248446E+02  0.10214219211E+03  0.00000000000E+00 0. -1.
         22    1    3    3    0    0 -0.38366671509E+02 -0.10149373584E+02  0.38668135284E+02  0.55409709917E+02  0.00000000000E+00 0. -1.
</event>
<event>
 7    1  0.6681656E-006  0.1557997E+03  0.7818608E-02  0.1265117E+00
          2   -1    0    0  502    0  0.00000000000E+00  0.00000000000E+00  0.89772303686E+03  0.89772303686E+03  0.00000000000E+00 0. -1.
          1   -1    0    0  501    0 -0.00000000000E+00 -0.00000000000E+00 -0.15501256370E+04  0.15501256370E+04  0.00000000000E+00 0. -1.
         25    2    1    2    0    0 -0.37169891833E+02  0.92275223710E+02  0.52942393585E+02  0.16829804926E+03  0.12500007430E+03 0.  0.
          2    1    1    2  501    0  0.19899942689E+02  0.71569723120E+02 -0.14828865707E+04  0.14847460438E+04  0.00000000000E+00 0. -1.
          1    1    1    2  502    0  0.17269949144E+02 -0.16384494683E+03  0.77754157698E+03  0.79480458081E+03  0.00000000000E+00 0. -1.
         22    1    3    3    0    0 -0.17339156503E+02 -0.28497496042E+02 -0.34601646306E+01  0.33536940352E+02  0.00000000000E+00 0.  1.
         22    1    3    3    0    0 -0.19830735330E+02  0.12077271975E+03  0.56402558216E+02  0.13476110890E+03  0.00000000000E+00 0.  1.
</event>
<event>
 7    1  0.6681656E-006  0.6091166E+02  0.7818608E-02  0.1429382E+00
          2   -1    0    0  502    0  0.00000000000E+00  0.00000000000E+00  0.11646923771E+04  0.11646923771E+04  0.00000000000E+00 0. -1.
          1   -1    0    0  501    0 -0.00000000000E+00 -0.00000000000E+00 -0.81417798414E+03  0.81417798414E+03  0.00000000000E+00 0. -1.
         25    2    1    2    0    0  0.58342346724E+02 -0.26085171323E+00  0.63134235325E+03  0.64623654277E+03  0.12499841895E+03 0.  0.
          2    1    1    2  501    0 -0.42858361335E+02 -0.43333570550E+02 -0.80455865279E+03  0.80686384431E+03  0.00000000000E+00 0. -1.
          1    1    1    2  502    0 -0.15483985389E+02  0.43594422263E+02  0.52373069247E+03  0.52576997413E+03  0.00000000000E+00 0. -1.
         22    1    3    3    0    0  0.24685122103E+02  0.62187936377E+02  0.31840042998E+03  0.32535446593E+03  0.00000000000E+00 0.  1.
         22    1    3    3    0    0  0.33657224621E+02 -0.62448788090E+02  0.31294192327E+03  0.32088207685E+03  0.00000000000E+00 0.  1.
</event>
<event>
 7    1  0.7220407E-006  0.8821897E+02  0.7818608E-02  0.1329719E+00
          2   -1    0    0  502    0  0.00000000000E+00  0.00000000000E+00  0.78487739427E+03  0.78487739427E+03  0.00000000000E+00 0. -1.
          1   -1    0    0  501    0 -0.00000000000E+00 -0.00000000000E+00 -0.14261702517E+04  0.14261702517E+04  0.00000000000E+00 0. -1.
         25    2    1    2    0    0 -0.10805127528E+03 -0.72318528323E+02 -0.12343424707E+03  0.21855571933E+03  0.12500216588E+03 0.  0.
          2    1    1    2  501    0  0.20235012135E+02  0.69225033129E+02 -0.12515153566E+04  0.12535917392E+04  0.00000000000E+00 0. -1.
          1    1    1    2  502    0  0.87816263147E+02  0.30934951933E+01  0.73365674618E+03  0.73890018744E+03  0.00000000000E+00 0. -1.
         22    1    3    3    0    0  0.16564117226E+02 -0.51363103913E+02 -0.35141124042E+02  0.64400597994E+02  0.00000000000E+00 0. -1.
         22    1    3    3    0    0 -0.12461539251E+03 -0.20955424410E+02 -0.88293123025E+02  0.15415512134E+03  0.00000000000E+00 0. -1.
</event>
<event>
 7    1  0.6681656E-006  0.1253801E+03  0.7818608E-02  0.1253483E+00
          2   -1    0    0  502    0  0.00000000000E+00  0.00000000000E+00  0.10486668099E+04  0.10486668099E+04  0.00000000000E+00 0. -1.
          1   -1    0    0  501    0 -0.00000000000E+00 -0.00000000000E+00 -0.13188852341E+03  0.13188852341E+03  0.00000000000E+00 0. -1.
         25    2    1    2    0    0 -0.14355904775E+03 -0.14448137766E+03  0.58237813492E+03  0.62950280300E+03  0.12500167306E+03 0.  0.
          2    1    1    2  501    0  0.86222243125E+02  0.57257545693E+02 -0.75472819234E+02  0.12809702647E+03  0.00000000000E+00 0. -1.
          1    1    1    2  502    0  0.57336804625E+02  0.87223831972E+02  0.40987297079E+03  0.42295550382E+03  0.00000000000E+00 0. -1.
         22    1    3    3    0    0 -0.15599782282E+03 -0.12246117225E+03  0.56505494675E+03  0.59884818801E+03  0.00000000000E+00 0. -1.
         22    1    3    3    0    0  0.12438775074E+02 -0.22020205411E+02  0.17323188169E+02  0.30654614987E+02  0.00000000000E+00 0. -1.
</event>
<event>
 7    1  0.6843589E-006  0.6688322E+02  0.7818608E-02  0.1422322E+00
          2   -1    0    0  502    0  0.00000000000E+00  0.00000000000E+00  0.69543515834E+03  0.69543515834E+03  0.00000000000E+00 0. -1.
          1   -1    0    0  501    0 -0.00000000000E+00 -0.00000000000E+00 -0.32249126661E+04  0.32249126661E+04  0.00000000000E+00 0. -1.
         25    2    1    2    0    0 -0.56097019599E+02  0.33348912838E+02 -0.11663086343E+04  0.11748004060E+04  0.12498455012E+03 0.  0.
          2    1    1    2  501    0  0.24286582900E+02 -0.64413721886E+02 -0.20530656059E+04  0.20542194011E+04  0.00000000000E+00 0. -1.
          1    1    1    2  502    0  0.31810436699E+02  0.31064809048E+02  0.68989673243E+03  0.69132801741E+03  0.00000000000E+00 0. -1.
         22    1    3    3    0    0  0.49044285868E+00 -0.41937722907E+02 -0.23233740181E+03  0.23609252723E+03  0.00000000000E+00 0.  1.
         22    1    3    3    0    0 -0.56587462457E+02  0.75286635745E+02 -0.93397123254E+03  0.93870787875E+03  0.00000000000E+00 0.  1.
</event>
<event>
 7    1  0.6681656E-006  0.1019627E+03  0.7818608E-02  0.1352242E+00
          2   -1    0    0  502    0  0.00000000000E+00  0.00000000000E+00  0.26759573223E+04  0.26759573223E+04  0.00000000000E+00 0. -1.
          1   -1    0    0  501    0 -0.00000000000E+00 -0.00000000000E+00 -0.22978530621E+03  0.22978530621E+03  0.00000000000E+00 0. -1.
         25    2    1    2    0    0 -0.92955160877E+02  0.90921998721E+02 -0.87720026433E+02  0.20056787922E+03  0.12500079741E+03 0.  0.
          2    1    1    2  501    0  0.51314918698E+02  0.20063435808E+01 -0.76859969705E+02  0.92437553184E+02  0.00000000000E+00 0. -1.
          1    1    1    2  502    0  0.41640242179E+02 -0.92928342302E+02  0.26107520122E+04  0.26127371961E+04  0.00000000000E+00 0. -1.
         22    1    3    3    0    0  0.27524930221E+02  0.81715929980E+01  0.24727450482E+01  0.28818590941E+02  0.00000000000E+00 0. -1.
         22    1    3    3    0    0 -0.12048009110E+03  0.82750405723E+02 -0.90192771481E+02  0.17174928828E+03  0.00000000000E+00 0. -1.
</event>
<event>
 7    1  0.6681656E-006  0.1135716E+03  0.7818608E-02  0.1358001E+00
          2   -1    0    0  502    0  0.00000000000E+00  0.00000000000E+00  0.16120123492E+04  0.16120123492E+04  0.00000000000E+00 0. -1.
          1   -1    0    0  501    0 -0.00000000000E+00 -0.00000000000E+00 -0.35045322369E+04  0.35045322369E+04  0.00000000000E+00 0. -1.
         25    2    1    2    0    0  0.59802672628E+02 -0.59384318123E+02 -0.14262110297E+04  0.14341567126E+04  0.12499887310E+03 0.  0.
          2    1    1    2  501    0 -0.89959643089E+02  0.91301909683E+02 -0.20720679460E+04  0.20760285039E+04  0.00000000000E+00 0. -1.
          1    1    1    2  502    0  0.30156970461E+02 -0.31917591560E+02  0.16057590880E+04  0.16063593696E+04  0.00000000000E+00 0. -1.
         22    1    3    3    0    0  0.19423081659E+02 -0.67064349659E+02 -0.33632277581E+03  0.34349365733E+03  0.00000000000E+00 0. -1.
         22    1    3    3    0    0  0.40379590969E+02  0.76800315360E+01 -0.10898882539E+04  0.10906630553E+04  0.00000000000E+00 0. -1.
</event>
<event>
 7    1  0.6681656E-006  0.5076824E+02  0.7818608E-02  0.1472016E+00
          2   -1    0    0  502    0  0.00000000000E+00  0.00000000000E+00  0.78630970339E+02  0.78630970339E+02  0.00000000000E+00 0. -1.
          1   -1    0    0  501    0 -0.00000000000E+00 -0.00000000000E+00 -0.12227742409E+04  0.12227742409E+04  0.00000000000E+00 0. -1.
         25    2    1    2    0    0  0.11620711995E+02  0.91564297382E+01 -0.24439215141E+02  0.12822382672E+03  0.12500077339E+03 0.  0.
          2    1    1    2  501    0 -0.30769740139E+02  0.40381152060E+02 -0.11189144998E+04  0.11200656553E+04  0.00000000000E+00 0. -1.
          1    1    1    2  502    0  0.19149028144E+02 -0.49537581798E+02 -0.78955560023E+00  0.53115729189E+02  0.00000000000E+00 0. -1.
         22    1    3    3    0    0 -0.33723408379E+02 -0.26250732047E+02  0.27414638904E+02  0.50773335836E+02  0.00000000000E+00 0. -1.
         22    1    3    3    0    0  0.45344120374E+02  0.35407161785E+02 -0.51853854045E+02  0.77450490880E+02  0.00000000000E+00 0. -1.
</event>
<event>
 7    1  0.6681656E-006  0.1434439E+03  0.7818608E-02  0.1319055E+00
          2   -1    0    0  502    0  0.00000000000E+00  0.00000000000E+00  0.18368384063E+04  0.18368384063E+04  0.00000000000E+00 0. -1.
          1   -1    0    0  501    0 -0.00000000000E+00 -0.00000000000E+00 -0.14850336212E+04  0.14850336212E+04  0.00000000000E+00 0. -1.
         25    2    1    2    0    0  0.97555963184E+02 -0.29462141242E+02 -0.41027168933E+02  0.16640691882E+03  0.12499140099E+03 0.  0.
          2    1    1    2  501    0 -0.14496652051E+03  0.18081649638E+02 -0.13771172565E+04  0.13848444592E+04  0.00000000000E+00 0. -1.
          1    1    1    2  502    0  0.47410557325E+02  0.11380491604E+02  0.17699492105E+04  0.17706206495E+04  0.00000000000E+00 0. -1.
         22    1    3    3    0    0  0.94722179671E+02 -0.60214095213E+02  0.34096820897E+01  0.11229271800E+03  0.00000000000E+00 0.  1.
         22    1    3    3    0    0  0.28337835126E+01  0.30751953971E+02 -0.44436851022E+02  0.54114200824E+02  0.00000000000E+00 0.  1.
</event>
<event>
 7    1  0.6681656E-006  0.7253899E+02  0.7818608E-02  0.1412536E+00
          2   -1    0    0  502    0  0.00000000000E+00  0.00000000000E+00  0.14398231958E+03  0.14398231958E+03  0.00000000000E+00 0. -1.
          1   -1    0    0  501    0 -0.00000000000E+00 -0.00000000000E+00 -0.20029274460E+04  0.20029274460E+04  0.00000000000E+00 0. -1.
         25    2    1    2    0    0  0.10451417843E+03 -0.13044220744E+02 -0.41628354653E+03  0.44722577303E+03  0.12500214304E+03 0.  0.
          2    1    1    2  501    0 -0.64050140302E+02  0.30861075553E+02 -0.15665397660E+04  0.15681523092E+04  0.00000000000E+00 0. -1.
          1    1    1    2  502    0 -0.40464038129E+02 -0.17816854809E+02  0.12387818617E+03  0.13153168327E+03  0.00000000000E+00 0. -1.
         22    1    3    3    0    0  0.12599078828E+03  0.34729127341E+01 -0.38843680150E+03  0.40837346708E+03  0.00000000000E+00 0.  1.
         22    1    3    3    0    0 -0.21476609853E+02 -0.16517133478E+02 -0.27846745031E+02  0.38852305954E+02  0.00000000000E+00 0.  1.
</event>
<event>
 7    1  0.8381386E-006  0.1182327E+03  0.7818608E-02  0.1297863E+00
          2   -1    0    0  502    0  0.00000000000E+00  0.00000000000E+00  0.19096548226E+04  0.19096548226E+04  0.00000000000E+00 0. -1.
          1   -1    0    0  501    0 -0.00000000000E+00 -0.00000000000E+00 -0.10488543134E+04  0.10488543134E+04  0.00000000000E+00 0. -1.
         25    2    1    2    0    0  0.14884483536E+02 -0.13710103354E+03 -0.67984088359E+02  0.19815227914E+03  0.12499699280E+03 0.  0.
          2    1    1    2  501    0 -0.65123801599E+02  0.30070842691E+02 -0.91248246248E+03  0.91529755241E+03  0.00000000000E+00 0. -1.
          1    1    1    2  502    0  0.50239318063E+02  0.10703019085E+03  0.18412670600E+04  0.18450593045E+04  0.00000000000E+00 0. -1.
         22    1    3    3    0    0 -0.50456999942E+02 -0.89527487527E+02 -0.54119003739E+02  0.11614622866E+03  0.00000000000E+00 0.  1.
         22    1    3    3    0    0  0.65341483478E+02 -0.47573546014E+02 -0.13865084620E+02  0.82006050478E+02  0.00000000000E+00 0.  1.
</event>
<event>
 7    1  0.6681656E-006  0.5123027E+02  0.7818608E-02  0.1517913E+00
          2   -1    0    0  502    0  0.00000000000E+00  0.00000000000E+00  0.15407360107E+04  0.15407360107E+04  0.00000000000E+00 0. -1.
          1   -1    0    0  501    0 -0.00000000000E+00 -0.00000000000E+00 -0.78457297288E+02  0.78457297288E+02  0.00000000000E+00 0. -1.
         25    2    1    2    0    0 -0.21572495055E+02  0.52521285649E+01  0.10029968534E+02  0.12733301832E+03  0.12498055804E+03 0.  0.
          2    1    1    2  501    0 -0.28436215539E+02  0.68595512568E+01 -0.82991030078E+01  0.30406362958E+02  0.00000000000E+00 0. -1.
          1    1    1    2  502    0  0.50008710594E+02 -0.12111679822E+02  0.14605478479E+04  0.14614539267E+04  0.00000000000E+00 0. -1.
         22    1    3    3    0    0 -0.18017110469E+02  0.51255727067E+02 -0.33558873710E+02  0.63858936975E+02  0.00000000000E+00 0.  1.
         22    1    3    3    0    0 -0.35553845864E+01 -0.46003598503E+02  0.43588842243E+02  0.63474081347E+02  0.00000000000E+00 0.  1.
</event>
<event>
 7    1  0.6681656E-006  0.7225149E+02  0.7818608E-02  0.1432978E+00
          2   -1    0    0  502    0  0.00000000000E+00  0.00000000000E+00  0.41803289638E+04  0.41803289638E+04  0.00000000000E+00 0. -1.
          1   -1    0    0  501    0 -0.00000000000E+00 -0.00000000000E+00 -0.28614491875E+02  0.28614491875E+02  0.00000000000E+00 0. -1.
         25    2    1    2    0    0  0.16837502274E+02 -0.32480265326E+02  0.47331621980E+03  0.49090975938E+03  0.12500271519E+03 0.  0.
          2    1    1    2  501    0  0.71641248299E+01 -0.37272429901E+02 -0.92996282863E+00  0.37966084156E+02  0.00000000000E+00 0. -1.
          1    1    1    2  502    0 -0.24001627104E+02  0.69752695227E+02  0.36793282150E+04  0.36800676121E+04  0.00000000000E+00 0. -1.
         22    1    3    3    0    0 -0.28737180972E+02 -0.17240462909E+02  0.29944620538E+02  0.44941511220E+02  0.00000000000E+00 0.  1.
         22    1    3    3    0    0  0.45574683247E+02 -0.15239802417E+02  0.44337159927E+03  0.44596824816E+03  0.00000000000E+00 0.  1.
</event>
<event>
 7    1  0.6681656E-006  0.2551001E+02  0.7818608E-02  0.1685792E+00
          2   -1    0    0  502    0  0.00000000000E+00  0.00000000000E+00  0.20723742226E+04  0.20723742226E+04  0.00000000000E+00 0. -1.
          1   -1    0    0  501    0 -0.00000000000E+00 -0.00000000000E+00 -0.66546970959E+02  0.66546970959E+02  0.00000000000E+00 0. -1.
         25    2    1    2    0    0 -0.17524339809E+02  0.18415560891E+00  0.78912477923E+03  0.79915073266E+03  0.12496735541E+03 0.  0.
          2    1    1    2  501    0  0.14579106306E+02  0.20997303015E+02 -0.58785709107E+02  0.64103016074E+02  0.00000000000E+00 0. -1.
          1    1    1    2  502    0  0.29452335036E+01 -0.21181458624E+02  0.12754881815E+04  0.12756674448E+04  0.00000000000E+00 0. -1.
         22    1    3    3    0    0 -0.66417329922E+02 -0.41038582999E+01  0.28608170309E+03  0.29371898851E+03  0.00000000000E+00 0. -1.
         22    1    3    3    0    0  0.48892990113E+02  0.42880139089E+01  0.50304307614E+03  0.50543174415E+03  0.00000000000E+00 0. -1.
</event>
<event>
 7    1  0.6681656E-006  0.1154180E+03  0.7818608E-02  0.1369271E+00
          2   -1    0    0  502    0  0.00000000000E+00  0.00000000000E+00  0.43186169626E+03  0.43186169626E+03  0.00000000000E+00 0. -1.
          1   -1    0    0  501    0 -0.00000000000E+00 -0.00000000000E+00 -0.17677428182E+04  0.17677428182E+04  0.00000000000E+00 0. -1.
         25    2    1    2    0    0  0.14373912526E+03  0.22533118802E+02  0.15177663736E+03  0.24460074388E+03  0.12499879472E+03 0.  0.
          2    1    1    2  501    0 -0.39235647241E+02  0.26394441284E+01 -0.17087305953E+04  0.17091830358E+04  0.00000000000E+00 0. -1.
          1    1    1    2  502    0 -0.10450347802E+03 -0.25172562931E+02  0.22107283597E+03  0.24582073478E+03  0.00000000000E+00 0. -1.
         22    1    3    3    0    0  0.46564417458E+02  0.69474472990E+02  0.59960171143E+02  0.10290854918E+03  0.00000000000E+00 0. -1.
         22    1    3    3    0    0  0.97174707805E+02 -0.46941354188E+02  0.91816466219E+02  0.14169219470E+03  0.00000000000E+00 0. -1.
</event>
<event>
 7    1  0.6681656E-006  0.9586127E+02  0.7818608E-02  0.1455185E+00
          2   -1    0    0  502    0  0.00000000000E+00  0.00000000000E+00  0.70852558366E+03  0.70852558366E+03  0.00000000000E+00 0. -1.
          1   -1    0    0  501    0 -0.00000000000E+00 -0.00000000000E+00 -0.29154154079E+03  0.29154154079E+03  0.00000000000E+00 0. -1.
         25    2    1    2    0    0 -0.94012718962E+02 -0.65617416294E+02 -0.82857187790E+02  0.18877127878E+03  0.12500098190E+03 0.  0.
          2    1    1    2  501    0  0.71531708943E+02  0.56510198026E+02 -0.14213769984E+03  0.16885885698E+03  0.00000000000E+00 0. -1.
          1    1    1    2  502    0  0.22481010019E+02  0.91072182680E+01  0.64197893049E+03  0.64243698869E+03  0.00000000000E+00 0. -1.
         22    1    3    3    0    0  0.27601985928E+01 -0.42917118842E+02 -0.78220677628E+02  0.89263498668E+02  0.00000000000E+00 0. -1.
         22    1    3    3    0    0 -0.96772917555E+02 -0.22700297452E+02 -0.46365101623E+01  0.99507780113E+02  0.00000000000E+00 0. -1.
</event>
<event>
 7    1  0.6681656E-006  0.4635496E+02  0.7818608E-02  0.1476063E+00
          2   -1    0    0  502    0  0.00000000000E+00  0.00000000000E+00  0.60497375600E+03  0.60497375600E+03  0.00000000000E+00 0. -1.
          1   -1    0    0  501    0 -0.00000000000E+00 -0.00000000000E+00 -0.40570679272E+03  0.40570679272E+03  0.00000000000E+00 0. -1.
         25    2    1    2    0    0 -0.28358708422E+01 -0.26182167525E+01 -0.66030661002E+01  0.12523368322E+03  0.12499991083E+03 0.  0.
          2    1    1    2  501    0 -0.32968448479E+02 -0.27843758095E+02 -0.33739916032E+03  0.34014759568E+03  0.00000000000E+00 0. -1.
          1    1    1    2  502    0  0.35804319321E+02  0.30461974848E+02  0.54326918970E+03  0.54529926982E+03  0.00000000000E+00 0. -1.
         22    1    3    3    0    0  0.23750753457E+02 -0.58211058822E+02 -0.92868738418E+01  0.63552117862E+02  0.00000000000E+00 0. -1.
         22    1    3    3    0    0 -0.26586624299E+02  0.55592842069E+02  0.26838077416E+01  0.61681565358E+02  0.00000000000E+00 0. -1.
</event>
<event>
 7    1  0.6681656E-006  0.1690401E+03  0.7818608E-02  0.1235396E+00
          2   -1    0    0  502    0  0.00000000000E+00  0.00000000000E+00  0.86762539383E+02  0.86762539383E+02  0.00000000000E+00 0. -1.
          1   -1    0    0  501    0 -0.00000000000E+00 -0.00000000000E+00 -0.91181011149E+03  0.91181011149E+03  0.00000000000E+00 0. -1.
         25    2    1    2    0    0 -0.19329203767E+03  0.76283333426E+02 -0.16707158073E+03  0.29447979898E+03  0.12499792051E+03 0.  0.
          2    1    1    2  501    0  0.60733804750E+02 -0.69270798775E+02 -0.43455171169E+03  0.44420966754E+03  0.00000000000E+00 0. -1.
          1    1    1    2  502    0  0.13255823292E+03 -0.70125346515E+01 -0.22342427969E+03  0.25988318436E+03  0.00000000000E+00 0. -1.
         22    1    3    3    0    0 -0.34542096126E+02  0.16702283206E+02 -0.10850319296E+03  0.11508720846E+03  0.00000000000E+00 0.  1.
         22    1    3    3    0    0 -0.15874994155E+03  0.59581050220E+02 -0.58568387771E+02  0.17939259052E+03  0.00000000000E+00 0.  1.
</event>
<event>
 7    1  0.6681656E-006  0.4022498E+02  0.7818608E-02  0.1560382E+00
          2   -1    0    0  502    0  0.00000000000E+00  0.00000000000E+00  0.70264275770E+03  0.70264275770E+03  0.00000000000E+00 0. -1.
          1   -1    0    0  501    0 -0.00000000000E+00 -0.00000000000E+00 -0.23552991644E+02  0.23552991644E+02  0.00000000000E+00 0. -1.
         25    2    1    2    0    0  0.39258099213E+02  0.52951976772E+02  0.36893740558E+03  0.39507581756E+03  0.12499992873E+03 0.  0.
          2    1    1    2  501    0 -0.18841029304E+02 -0.21045336128E+02  0.12199467498E+02  0.30768775816E+02  0.00000000000E+00 0. -1.
          1    1    1    2  502    0 -0.20417069910E+02 -0.31906640644E+02  0.29795289297E+03  0.30035115597E+03  0.00000000000E+00 0. -1.
         22    1    3    3    0    0  0.41911179814E+02 -0.32877666729E+02  0.10895894126E+03  0.12128288768E+03  0.00000000000E+00 0. -1.
         22    1    3    3    0    0 -0.26530806006E+01  0.85829643501E+02  0.25997846433E+03  0.27379292988E+03  0.00000000000E+00 0. -1.
</event>
<event>
 7    1  0.6681656E-006  0.2042659E+03  0.7818608E-02  0.1280609E+00
          2   -1    0    0  502    0  0.00000000000E+00  0.00000000000E+00  0.16272428330E+04  0.16272428330E+04  0.00000000000E+00 0. -1.
          1   -1    0    0  501    0 -0.00000000000E+00 -0.00000000000E+00 -0.16313563726E+03  0.16313563726E+03  0.00000000000E+00 0. -1.
         25    2    1    2    0    0 -0.12037965984E+03 -0.21371377189E+03  0.38432160508E+03  0.47275049325E+03  0.12500037574E+03 0.  0.
          2    1    1    2  501    0  0.19792378846E+02  0.44617199271E+02 -0.10543626196E+03  0.11618622150E+03  0.00000000000E+00 0. -1.
          1    1    1    2  502    0  0.10058728099E+03  0.16909657262E+03  0.11852218527E+04  0.12014417556E+04  0.00000000000E+00 0. -1.
         22    1    3    3    0    0 -0.11304402398E+03 -0.16987628989E+03  0.37561066436E+03  0.42745792355E+03  0.00000000000E+00 0. -1.
         22    1    3    3    0    0 -0.73356358544E+01 -0.43837481999E+02  0.87109407201E+01  0.45292569695E+02  0.00000000000E+00 0. -1.
</event>
<event>
 7    1  0.6681656E-006  0.7093219E+02  0.7818608E-02  0.1430950E+00
          2   -1    0    0  502    0  0.00000000000E+00  0.00000000000E+00  0.48545032889E+03  0.48545032889E+03  0.00000000000E+00 0. -1.
          1   -1    0    0  501    0 -0.00000000000E+00 -0.00000000000E+00 -0.17669977140E+04  0.17669977140E+04  0.00000000000E+00 0. -1.
         25    2    1    2    0    0 -0.75293140523E+02  0.44106913882E+01 -0.36115525089E+03  0.38954679165E+03  0.12500030574E+03 0.  0.
          2    1    1    2  501    0  0.58941891617E+02 -0.40101414959E+02 -0.13899139712E+04  0.13917410382E+04  0.00000000000E+00 0. -1.
          1    1    1    2  502    0  0.16351248906E+02  0.35690723571E+02  0.46952183690E+03  0.47116021311E+03  0.00000000000E+00 0. -1.
         22    1    3    3    0    0 -0.34227889107E+02  0.59410547164E+02 -0.24704601014E+03  0.25638426752E+03  0.00000000000E+00 0. -1.
         22    1    3    3    0    0 -0.41065251417E+02 -0.54999855775E+02 -0.11410924075E+03  0.13316252413E+03  0.00000000000E+00 0. -1.
</event>
<event>
 7    1  0.6681656E-006  0.1492251E+03  0.7818608E-02  0.1216440E+00
          2   -1    0    0  502    0  0.00000000000E+00  0.00000000000E+00  0.36859036003E+03  0.36859036003E+03  0.00000000000E+00 0. -1.
          1   -1    0    0  501    0 -0.00000000000E+00 -0.00000000000E+00 -0.26924050094E+04  0.26924050094E+04  0.00000000000E+00 0. -1.
         25    2    1    2    0    0  0.18900417233E+03  0.27833261874E+01 -0.45630135891E+02  0.23116676628E+03  0.12500256184E+03 0.  0.
          2    1    1    2  501    0 -0.76607918269E+02 -0.10140330269E+03 -0.25320294577E+04  0.25352168699E+04  0.00000000000E+00 0. -1.
          1    1    1    2  502    0 -0.11239625406E+03  0.98619976505E+02  0.25384494418E+03  0.29461173327E+03  0.00000000000E+00 0. -1.
         22    1    3    3    0    0  0.18154686826E+02  0.33356986034E+02  0.23144171900E+02  0.44473968386E+02  0.00000000000E+00 0.  1.
         22    1    3    3    0    0  0.17084948550E+03 -0.30573659847E+02 -0.68774307790E+02  0.18669279789E+03  0.00000000000E+00 0.  1.
</event>
<event>
 7    1  0.6681656E-006  0.1391417E+03  0.7818608E-02  0.1299309E+00
          2   -1    0    0  502    0  0.00000000000E+00  0.00000000000E+00  0.29413438977E+04  0.29413438977E+04  0.00000000000E+00 0. -1.
          1   -1    0    0  501    0 -0.00000000000E+00 -0.00000000000E+00 -0.35973587532E+03  0.35973587532E+03  0.00000000000E+00 0. -1.
         25    2    1    2    0    0 -0.87317316362E+02 -0.13102008299E+03  0.17911606231E+02  0.20183296843E+03  0.12500058249E+03 0.  0.
          2    1    1    2  501    0 -0.27922331554E+02  0.53268437253E+02 -0.26266807752E+03  0.26946558585E+03  0.00000000000E+00 0. -1.
          1    1    1    2  502    0  0.11523964792E+03  0.77751645740E+02  0.28263644936E+04  0.28297812187E+04  0.00000000000E+00 0. -1.
         22    1    3    3    0    0  0.12376767639E+02 -0.53090981457E+02 -0.34886467212E+02  0.64721729611E+02  0.00000000000E+00 0. -1.
         22    1    3    3    0    0 -0.99694084001E+02 -0.77929101536E+02  0.52798073443E+02  0.13711123882E+03  0.00000000000E+00 0. -1.
</event>
<event>
 7    1  0.6681656E-006  0.8696436E+02  0.7818608E-02  0.1474950E+00
          2   -1    0    0  502    0  0.00000000000E+00  0.00000000000E+00  0.23086087207E+03  0.23086087207E+03  0.00000000000E+00 0. -1.
          1   -1    0    0  501    0 -0.00000000000E+00 -0.00000000000E+00 -0.53042427579E+03  0.53042427579E+03  0.00000000000E+00 0. -1.
         25    2    1    2    0    0  0.69705622176E+02 -0.60391966283E+02 -0.66946929821E+02  0.16915555972E+03  0.12500259444E+03 0.  0.
          2    1    1    2  501    0 -0.77662356092E+02  0.38615281062E+02 -0.40703690453E+03  0.41617499100E+03  0.00000000000E+00 0. -1.
          1    1    1    2  502    0  0.79567339165E+01  0.21776685221E+02  0.17442043063E+03  0.17595459714E+03  0.00000000000E+00 0. -1.
         22    1    3    3    0    0 -0.23331763827E+02 -0.52815978252E+02 -0.68671261570E+01  0.58146850161E+02  0.00000000000E+00 0. -1.
         22    1    3    3    0    0  0.93037386002E+02 -0.75759880306E+01 -0.60079803664E+02  0.11100870956E+03  0.00000000000E+00 0. -1.
</event>
<event>
 7    1  0.6681656E-006  0.1546872E+03  0.7818608E-02  0.1278298E+00
          2   -1    0    0  502    0  0.00000000000E+00  0.00000000000E+00  0.72991674095E+03  0.72991674095E+03  0.00000000000E+00 0. -1.
          1   -1    0    0  501    0 -0.00000000000E+00 -0.00000000000E+00 -0.11399815736E+04  0.11399815736E+04  0.00000000000E+00 0. -1.
         25    2    1    2    0    0 -0.18127114958E+03  0.11930268356E+03 -0.71877041733E+02  0.26055362592E+03  0.12501809021E+03 0.  0.
          2    1    1    2  501    0  0.52634548803E+02 -0.39634624088E+02 -0.96361995565E+03  0.96586992814E+03  0.00000000000E+00 0. -1.
          1    1    1    2  502    0  0.12863660077E+03 -0.79668059472E+02  0.62543216472E+03  0.64347476052E+03  0.00000000000E+00 0. -1.
         22    1    3    3    0    0 -0.13387606395E+03  0.13687935685E+02 -0.34827724888E+02  0.13900766346E+03  0.00000000000E+00 0. -1.
         22    1    3    3    0    0 -0.47395085629E+02  0.10561474787E+03 -0.37049316845E+02  0.12154596245E+03  0.00000000000E+00 0. -1.
</event>
<event>
 7    1  0.6681656E-006  0.1465883E+03  0.7818608E-02  0.1313212E+00
          2   -1    0    0  502    0  0.00000000000E+00  0.00000000000E+00  0.95919193521E+02  0.95919193521E+02  0.00000000000E+00 0. -1.
          1   -1    0    0  501    0 -0.00000000000E+00 -0.00000000000E+00 -0.47786734321E+03  0.47786734321E+03  0.00000000000E+00 0. -1.
         25    2    1    2    0    0 -0.40762999624E+02 -0.13289311862E+03 -0.15287289334E+03  0.24148904560E+03  0.12499853804E+03 0.  0.
          2    1    1    2  501    0  0.45472324588E+02 -0.21465356429E+02 -0.15120152901E+03  0.15934364187E+03  0.00000000000E+00 0. -1.
          1    1    1    2  502    0 -0.47093249643E+01  0.15435847505E+03 -0.77873727337E+02  0.17295384925E+03  0.00000000000E+00 0. -1.
         22    1    3    3    0    0 -0.65649907930E+02 -0.93390124599E+02 -0.15755710964E+03  0.19456584639E+03  0.00000000000E+00 0.  1.
         22    1    3    3    0    0  0.24886908306E+02 -0.39502994025E+02  0.46842162989E+01  0.46923199212E+02  0.00000000000E+00 0.  1.
</event>
<event>
 7    1  0.6681656E-006  0.7416016E+02  0.7818608E-02  0.1441078E+00
          2   -1    0    0  502    0  0.00000000000E+00  0.00000000000E+00  0.57814665468E+03  0.57814665468E+03  0.00000000000E+00 0. -1.
          1   -1    0    0  501    0 -0.00000000000E+00 -0.00000000000E+00 -0.78404633840E+03  0.78404633840E+03  0.00000000000E+00 0. -1.
         25    2    1    2    0    0  0.93074650020E+02 -0.18088998930E+02  0.14358454667E+03  0.21267573313E+03  0.12499737221E+03 0.  0.
          2    1    1    2  501    0 -0.21100816901E+02  0.27669383346E+02 -0.74579685904E+03  0.74660819323E+03  0.00000000000E+00 0. -1.
          1    1    1    2  502    0 -0.71973833119E+02 -0.95803844159E+01  0.39631262865E+03  0.40290906672E+03  0.00000000000E+00 0. -1.
         22    1    3    3    0    0  0.12337256370E+01  0.28585708112E+02 -0.77134043695E+01  0.29633788050E+02  0.00000000000E+00 0. -1.
         22    1    3    3    0    0  0.91840924383E+02 -0.46674707043E+02  0.15129795104E+03  0.18304194508E+03  0.00000000000E+00 0. -1.
</event>
<event>
 7    1  0.6681656E-006  0.6510468E+02  0.7818608E-02  0.1521503E+00
          2   -1    0    0  502    0  0.00000000000E+00  0.00000000000E+00  0.15420808803E+04  0.15420808803E+04  0.00000000000E+00 0. -1.
          1   -1    0    0  501    0 -0.00000000000E+00 -0.00000000000E+00 -0.14210786818E+02  0.14210786818E+02  0.00000000000E+00 0. -1.
         25    2    1    2    0    0  0.66090244069E+02 -0.21044534962E+02  0.65749124800E+03  0.67285264688E+03  0.12500060163E+03 0.  0.
          2    1    1    2  501    0 -0.52041429070E+02  0.38583451509E+02  0.15881269278E+03  0.17151811700E+03  0.00000000000E+00 0. -1.
          1    1    1    2  502    0 -0.14048814999E+02 -0.17538916547E+02  0.71156615272E+03  0.71192090326E+03  0.00000000000E+00 0. -1.
         22    1    3    3    0    0  0.21357279370E+02 -0.71638154886E+02  0.37769291996E+03  0.38501961041E+03  0.00000000000E+00 0.  1.
         22    1    3    3    0    0  0.44732964700E+02  0.50593619924E+02  0.27979832804E+03  0.28783303647E+03  0.00000000000E+00 0.  1.
</event>
<event>
 7    1  0.6681656E-006  0.3253734E+02  0.7818608E-02  0.1647558E+00
          2   -1    0    0  502    0  0.00000000000E+00  0.00000000000E+00  0.12100029884E+04  0.12100029884E+04  0.00000000000E+00 0. -1.
          1   -1    0    0  501    0 -0.00000000000E+00 -0.00000000000E+00 -0.23567433300E+03  0.23567433300E+03  0.00000000000E+00 0. -1.
         25    2    1    2    0    0 -0.22600398090E+02 -0.29900375372E+02  0.27193955121E+02  0.13330084716E+03  0.12499917686E+03 0.  0.
          2    1    1    2  501    0  0.20554206915E+02 -0.25780753345E+01 -0.18179820977E+03  0.18297461838E+03  0.00000000000E+00 0. -1.
          1    1    1    2  502    0  0.20461911742E+01  0.32478450707E+02  0.11289329100E+04  0.11294018559E+04  0.00000000000E+00 0. -1.
         22    1    3    3    0    0 -0.67674641270E+02 -0.28869152754E+02 -0.10771237668E+02  0.74359294057E+02  0.00000000000E+00 0.  1.
         22    1    3    3    0    0  0.45074243180E+02 -0.10312226187E+01  0.37965192789E+02  0.58941553100E+02  0.00000000000E+00 0.  1.
</event>
<event>
 7    1  0.6681656E-006  0.4920921E+02  0.7818608E-02  0.1564847E+00
          2   -1    0    0  502    0  0.00000000000E+00  0.00000000000E+00  0.29478686767E+02  0.29478686767E+02  0.00000000000E+00 0. -1.
          1   -1    0    0  501    0 -0.00000000000E+00 -0.00000000000E+00 -0.12285323050E+04  0.12285323050E+04  0.00000000000E+00 0. -1.
         25    2    1    2    0    0 -0.74367992820E+01 -0.65011486788E+02 -0.34240159119E+03  0.37033227978E+03  0.12500139360E+03 0.  0.
          2    1    1    2  501    0  0.13768198397E+02  0.17729554912E+02 -0.83498168556E+03  0.83528337444E+03  0.00000000000E+00 0. -1.
          1    1    1    2  502    0 -0.63313991155E+01  0.47281931877E+02 -0.21670341500E+02  0.52395337555E+02  0.00000000000E+00 0. -1.
         22    1    3    3    0    0 -0.25298159714E+02 -0.58309095435E+02 -0.60386166870E+02  0.87672325420E+02  0.00000000000E+00 0.  1.
         22    1    3    3    0    0  0.17861360432E+02 -0.67023913537E+01 -0.28201542432E+03  0.28265995436E+03  0.00000000000E+00 0.  1.
</event>
<event>
 7    1  0.6681656E-006  0.1813598E+03  0.7818608E-02  0.1241648E+00
          2   -1    0    0  502    0  0.00000000000E+00  0.00000000000E+00  0.17848590646E+04  0.17848590646E+04  0.00000000000E+00 0. -1.
          1   -1    0    0  501    0 -0.00000000000E+00 -0.00000000000E+00 -0.42533406684E+03  0.42533406684E+03  0.00000000000E+00 0. -1.
         25    2    1    2    0    0  0.84475294277E+02  0.63925817697E+02 -0.43335781309E+02  0.16948766960E+03  0.12500197876E+03 0.  0.
          2    1    1    2  501    0  0.74700247210E+02  0.30195739456E+02 -0.30877255870E+03  0.31911189671E+03  0.00000000000E+00 0. -1.
          1    1    1    2  502    0 -0.15917554149E+03 -0.94121557153E+02  0.17116333378E+04  0.17215935652E+04  0.00000000000E+00 0. -1.
         22    1    3    3    0    0  0.45888458242E+02  0.94157997030E+02 -0.56115631011E+02  0.11882947045E+03  0.00000000000E+00 0. -1.
         22    1    3    3    0    0  0.38586836035E+02 -0.30232179333E+02  0.12779849701E+02  0.50658199147E+02  0.00000000000E+00 0. -1.
</event>
<event>
 7    1  0.6681656E-006  0.8425728E+02  0.7818608E-02  0.1362895E+00
          2   -1    0    0  502    0  0.00000000000E+00  0.00000000000E+00  0.57897836782E+03  0.57897836782E+03  0.00000000000E+00 0. -1.
          1   -1    0    0  501    0 -0.00000000000E+00 -0.00000000000E+00 -0.83740244006E+03  0.83740244006E+03  0.00000000000E+00 0. -1.
         25    2    1    2    0    0 -0.34415982180E+02 -0.11276513565E+02 -0.28334408829E+03  0.31180260141E+03  0.12500148116E+03 0.  0.
          2    1    1    2  501    0 -0.48365997993E+02  0.29791821797E+02 -0.53513198711E+03  0.53813851937E+03  0.00000000000E+00 0. -1.
          1    1    1    2  502    0  0.82781980172E+02 -0.18515308232E+02  0.56005200315E+03  0.56643968710E+03  0.00000000000E+00 0. -1.
         22    1    3    3    0    0  0.17975130499E+02  0.12164752894E+02  0.99605583110E+00  0.21727371140E+02  0.00000000000E+00 0. -1.
         22    1    3    3    0    0 -0.52391112679E+02 -0.23441266459E+02 -0.28434014412E+03  0.29007523027E+03  0.00000000000E+00 0. -1.
</event>
<event>
 7    1  0.6681656E-006  0.1429067E+03  0.7818608E-02  0.1361567E+00
          2   -1    0    0  502    0  0.00000000000E+00  0.00000000000E+00  0.24697516661E+04  0.24697516661E+04  0.00000000000E+00 0. -1.
          1   -1    0    0  501    0 -0.00000000000E+00 -0.00000000000E+00 -0.37141416366E+03  0.37141416366E+03  0.00000000000E+00 0. -1.
         25    2    1    2    0    0 -0.15057023679E+03  0.42255051536E+02  0.38219740321E+03  0.43145883566E+03  0.12499994503E+03 0.  0.
          2    1    1    2  501    0  0.14222488643E+03 -0.94327194391E+01 -0.33199086976E+03  0.36129604498E+03  0.00000000000E+00 0. -1.
          1    1    1    2  502    0  0.83453503612E+01 -0.32822332097E+02  0.20481309690E+04  0.20484109491E+04  0.00000000000E+00 0. -1.
         22    1    3    3    0    0 -0.34507240441E+02  0.52943881530E+02  0.53814593677E+02  0.83004907848E+02  0.00000000000E+00 0. -1.
         22    1    3    3    0    0 -0.11606299635E+03 -0.10688829994E+02  0.32838280954E+03  0.34845392781E+03  0.00000000000E+00 0. -1.
</event>
<event>
 7    1  0.6681656E-006  0.3563832E+02  0.7818608E-02  0.1570478E+00
          2   -1    0    0  502    0  0.00000000000E+00  0.00000000000E+00  0.55136031182E+03  0.55136031182E+03  0.00000000000E+00 0. -1.
          1   -1    0    0  501    0 -0.00000000000E+00 -0.00000000000E+00 -0.60617772038E+02  0.60617772038E+02  0.00000000000E+00 0. -1.
         25    2    1    2    0    0  0.13308687808E+02  0.59950961227E+02  0.60797856383E+02  0.15196797867E+03  0.12500659294E+03 0.  0.
          2    1    1    2  501    0 -0.63639949548E+01 -0.30848374458E+02  0.25844768996E+01  0.31603831403E+02  0.00000000000E+00 0. -1.
          1    1    1    2  502    0 -0.69446928528E+01 -0.29102586768E+02  0.42736020650E+03  0.42840627378E+03  0.00000000000E+00 0. -1.
         22    1    3    3    0    0  0.40037765156E+02  0.85892708405E+02  0.20243991006E+02  0.96904071988E+02  0.00000000000E+00 0. -1.
         22    1    3    3    0    0 -0.26729077349E+02 -0.25941747179E+02  0.40553865377E+02  0.55063906687E+02  0.00000000000E+00 0. -1.
</event>
<event>
 7    1  0.6681656E-006  0.7146524E+02  0.7818608E-02  0.1425496E+00
          2   -1    0    0  502    0  0.00000000000E+00  0.00000000000E+00  0.22939662047E+04  0.22939662047E+04  0.00000000000E+00 0. -1.
          1   -1    0    0  501    0 -0.00000000000E+00 -0.00000000000E+00 -0.13071660751E+03  0.13071660751E+03  0.00000000000E+00 0. -1.
         25    2    1    2    0    0 -0.35376721397E+02  0.38256965904E+02  0.72346467874E+03  0.73603009212E+03  0.12499618900E+03 0.  0.
          2    1    1    2  501    0  0.11306603632E+02 -0.70969722006E+02 -0.11377025741E+03  0.13456675740E+03  0.00000000000E+00 0. -1.
          1    1    1    2  502    0  0.24070117765E+02  0.32712756101E+02  0.15535551758E+04  0.15540859626E+04  0.00000000000E+00 0. -1.
         22    1    3    3    0    0  0.11704774207E+02  0.43647156643E+02  0.62626870297E+03  0.62789693767E+03  0.00000000000E+00 0. -1.
         22    1    3    3    0    0 -0.47081495604E+02 -0.53901907385E+01  0.97195975778E+02  0.10813315445E+03  0.00000000000E+00 0. -1.
</event>
<event>
 7    1  0.6681656E-006  0.1587707E+03  0.7818608E-02  0.1227227E+00
          2   -1    0    0  502    0  0.00000000000E+00  0.00000000000E+00  0.88964636177E+03  0.88964636177E+03  0.00000000000E+00 0. -1.
          1   -1    0    0  501    0 -0.00000000000E+00 -0.00000000000E+00 -0.88957582006E+03  0.88957582006E+03  0.00000000000E+00 0. -1.
         25    2    1    2    0    0 -0.14952018704E+03 -0.20408727389E+03 -0.44809696827E+02  0.28573047273E+03  0.12500436959E+03 0.  0.
          2    1    1    2  501    0  0.65983113541E+02  0.13771317552E+03 -0.71247599792E+03  0.72865680371E+03  0.00000000000E+00 0. -1.
          1    1    1    2  502    0  0.83537073502E+02  0.66374098374E+02  0.75735623647E+03  0.76483490539E+03  0.00000000000E+00 0. -1.
         22    1    3    3    0    0 -0.59583185070E+02 -0.14841608884E+03  0.20776708378E+02  0.16127356566E+03  0.00000000000E+00 0.  1.
         22    1    3    3    0    0 -0.89937001974E+02 -0.55671185052E+02 -0.65586405205E+02  0.12445690707E+03  0.00000000000E+00 0.  1.
</event>
<event>
 7    1  0.6681656E-006  0.1537925E+03  0.7818608E-02  0.1205026E+00
          2   -1    0    0  502    0  0.00000000000E+00  0.00000000000E+00  0.15972603038E+04  0.15972603038E+04  0.00000000000E+00 0. -1.
          1   -1    0    0  501    0 -0.00000000000E+00 -0.00000000000E+00 -0.15934795617E+04  0.15934795617E+04  0.00000000000E+00 0. -1.
         25    2    1    2    0    0  0.75288764454E+02  0.44085380814E+02 -0.66432381321E+02  0.16628369550E+03  0.12500034899E+03 0.  0.
          2    1    1    2  501    0 -0.34991020433E+01 -0.16343342701E+03 -0.14694458480E+04  0.14785106793E+04  0.00000000000E+00 0. -1.
          1    1    1    2  502    0 -0.71789662411E+02  0.11934804619E+03  0.15396589714E+04  0.15459454906E+04  0.00000000000E+00 0. -1.
         22    1    3    3    0    0 -0.11413309912E+02  0.20752037342E+02  0.27532915022E+02  0.36317655577E+02  0.00000000000E+00 0. -1.
         22    1    3    3    0    0  0.86702074366E+02  0.23333343472E+02 -0.93965296344E+02  0.12996603993E+03  0.00000000000E+00 0. -1.
</event>
<event>
 7    1  0.6681656E-006  0.7366324E+02  0.7818608E-02  0.1397675E+00
          2   -1    0    0  502    0  0.00000000000E+00  0.00000000000E+00  0.26818864461E+04  0.26818864461E+04  0.00000000000E+00 0. -1.
          1   -1    0    0  501    0 -0.00000000000E+00 -0.00000000000E+00 -0.17309371519E+02  0.17309371519E+02  0.00000000000E+00 0. -1.
         25    2    1    2    0    0  0.30955728296E+02 -0.81632067419E+02  0.13212290239E+04  0.13299975603E+04  0.12500130134E+03 0.  0.
          2    1    1    2  501    0  0.28940097592E+02  0.39456361683E+02  0.38412449845E+02  0.62208118674E+02  0.00000000000E+00 0. -1.
          1    1    1    2  502    0 -0.59895825887E+02  0.42175705736E+02  0.13049356009E+04  0.13069901387E+04  0.00000000000E+00 0. -1.
         22    1    3    3    0    0 -0.37973042996E+02  0.83666072845E+01  0.36991696588E+03  0.37195498888E+03  0.00000000000E+00 0.  1.
         22    1    3    3    0    0  0.68928771291E+02 -0.89998674703E+02  0.95131205800E+03  0.95804257143E+03  0.00000000000E+00 0.  1.
</event>
<event>
 7    1  0.6681656E-006  0.7901065E+02  0.7818608E-02  0.1387882E+00
          2   -1    0    0  502    0  0.00000000000E+00  0.00000000000E+00  0.51649104242E+02  0.51649104242E+02  0.00000000000E+00 0. -1.
          1   -1    0    0  501    0 -0.00000000000E+00 -0.00000000000E+00 -0.20189195214E+04  0.20189195214E+04  0.00000000000E+00 0. -1.
         25    2    1    2    0    0  0.80810158775E+02 -0.20160446606E+02 -0.33730994272E+03  0.36924210518E+03  0.12500003763E+03 0.  0.
          2    1    1    2  501    0 -0.59715511933E+01  0.48976449056E+02 -0.16197307709E+04  0.16204820648E+04  0.00000000000E+00 0. -1.
          1    1    1    2  502    0 -0.74838607582E+02 -0.28816002450E+02 -0.10229703516E+02  0.80844455692E+02  0.00000000000E+00 0. -1.
         22    1    3    3    0    0 -0.58803108209E+01  0.27875827936E+02 -0.15326393132E+02  0.32350242115E+02  0.00000000000E+00 0.  1.
         22    1    3    3    0    0  0.86690469596E+02 -0.48036274542E+02 -0.32198354959E+03  0.33689186306E+03  0.00000000000E+00 0.  1.
</event>
<event>
 7    1  0.6681656E-006  0.1377959E+03  0.7818608E-02  0.1252954E+00
          2   -1    0    0  502    0  0.00000000000E+00  0.00000000000E+00  0.15602222524E+04  0.15602222524E+04  0.00000000000E+00 0. -1.
          1   -1    0    0  501    0 -0.00000000000E+00 -0.00000000000E+00 -0.37906247047E+03  0.37906247047E+03  0.00000000000E+00 0. -1.
         25    2    1    2    0    0  0.62391968404E+01 -0.72368442442E+02  0.26915989752E+03  0.30552777125E+03  0.12499619808E+03 0.  0.
          2    1    1    2  501    0  0.75740064146E+02  0.11972269122E+03 -0.34512606928E+03  0.37307115113E+03  0.00000000000E+00 0. -1.
          1    1    1    2  502    0 -0.81979260986E+02 -0.47354248775E+02  0.12571259537E+04  0.12606858005E+04  0.00000000000E+00 0. -1.
         22    1    3    3    0    0 -0.26769504747E+01 -0.61298338358E+02  0.34408180019E+02  0.70346110066E+02  0.00000000000E+00 0. -1.
         22    1    3    3    0    0  0.89161473150E+01 -0.11070104085E+02  0.23475171750E+03  0.23518166119E+03  0.00000000000E+00 0. -1.
</event>
<event>
 7    1  0.6681656E-006  0.8065129E+02  0.7818608E-02  0.1381257E+00
          2   -1    0    0  502    0  0.00000000000E+00  0.00000000000E+00  0.16171309083E+03  0.16171309083E+03  0.00000000000E+00 0. -1.
          1   -1    0    0  501    0 -0.00000000000E+00 -0.00000000000E+00 -0.52671281663E+03  0.52671281663E+03  0.00000000000E+00 0. -1.
         25    2    1    2    0    0  0.92584218828E+02  0.91517372616E+02 -0.37859126327E+03  0.41940758138E+03  0.12499643048E+03 0.  0.
          2    1    1    2  501    0 -0.37300575145E+02 -0.34780892309E+02 -0.11055464563E+03  0.12175127534E+03  0.00000000000E+00 0. -1.
          1    1    1    2  502    0 -0.55283643683E+02 -0.56736480307E+02  0.12414618310E+03  0.14726705074E+03  0.00000000000E+00 0. -1.
         22    1    3    3    0    0  0.67693868601E+02 -0.10051457129E+02 -0.94479015346E+02  0.11666094452E+03  0.00000000000E+00 0.  1.
         22    1    3    3    0    0  0.24890350227E+02  0.10156882974E+03 -0.28411224792E+03  0.30274663686E+03  0.00000000000E+00 0.  1.
</event>
<event>
 7    1  0.6681656E-006  0.1154947E+03  0.7818608E-02  0.1441676E+00
          2   -1    0    0  502    0  0.00000000000E+00  0.00000000000E+00  0.70969200618E+02  0.70969200618E+02  0.00000000000E+00 0. -1.
          1   -1    0    0  501    0 -0.00000000000E+00 -0.00000000000E+00 -0.19276871054E+04  0.19276871054E+04  0.00000000000E+00 0. -1.
         25    2    1    2    0    0  0.40349658020E+02 -0.10440251641E+03 -0.15170743320E+04  0.15263248587E+04  0.12500025997E+03 0.  0.
          2    1    1    2  501    0 -0.20115929436E+02 -0.94948244866E+01 -0.35494667674E+03  0.35564300308E+03  0.00000000000E+00 0. -1.
          1    1    1    2  502    0 -0.20233728584E+02  0.11389734089E+03  0.15303103976E+02  0.11668844427E+03  0.00000000000E+00 0. -1.
         22    1    3    3    0    0 -0.18849786523E+02 -0.76523424658E+02 -0.11991134890E+04  0.12017005902E+04  0.00000000000E+00 0. -1.
         22    1    3    3    0    0  0.59199444543E+02 -0.27879091749E+02 -0.31796084307E+03  0.32462426853E+03  0.00000000000E+00 0. -1.
</event>
<event>
 7    1  0.6681656E-006  0.1314329E+03  0.7818608E-02  0.1309925E+00
          2   -1    0    0  502    0  0.00000000000E+00  0.00000000000E+00  0.66188731672E+03  0.66188731672E+03  0.00000000000E+00 0. -1.
          1   -1    0    0  501    0 -0.00000000000E+00 -0.00000000000E+00 -0.19227646992E+03  0.19227646992E+03  0.00000000000E+00 0. -1.
         25    2    1    2    0    0 -0.19091606669E+02  0.15752224780E+03  0.10860585672E+03  0.22934195605E+03  0.12499901077E+03 0.  0.
          2    1    1    2  501    0  0.57326768554E+02 -0.11420771902E+03 -0.98721096922E+02  0.16147946140E+03  0.00000000000E+00 0. -1.
          1    1    1    2  502    0 -0.38235161885E+02 -0.43314528781E+02  0.45972608700E+03  0.46334236918E+03  0.00000000000E+00 0. -1.
         22    1    3    3    0    0  0.48201212918E+02  0.27262975699E+02  0.30473278580E+02  0.63207970053E+02  0.00000000000E+00 0.  1.
         22    1    3    3    0    0 -0.67292819587E+02  0.13025927210E+03  0.78132578141E+02  0.16613398600E+03  0.00000000000E+00 0.  1.
</event>
<event>
 7    1  0.6681656E-006  0.5041197E+02  0.7818608E-02  0.1578727E+00
          2   -1    0    0  502    0  0.00000000000E+00  0.00000000000E+00  0.11530892233E+04  0.11530892233E+04  0.00000000000E+00 0. -1.
          1   -1    0    0  501    0 -0.00000000000E+00 -0.00000000000E+00 -0.65866352064E+02  0.65866352064E+02  0.00000000000E+00 0. -1.
         25    2    1    2    0    0  0.29019419681E+02 -0.15509325907E+02  0.49086081909E+03  0.50759438025E+03  0.12500018092E+03 0.  0.
          2    1    1    2  501    0  0.15018656536E+02 -0.13349327515E+02 -0.54648168869E+02  0.58225311936E+02  0.00000000000E+00 0. -1.
          1    1    1    2  502    0 -0.44038076217E+02  0.28858653422E+02  0.65101022098E+03  0.65313588315E+03  0.00000000000E+00 0. -1.
         22    1    3    3    0    0 -0.11662458313E+02 -0.52844966591E+02  0.10828923555E+03  0.12105850637E+03  0.00000000000E+00 0.  1.
         22    1    3    3    0    0  0.40681877995E+02  0.37335640684E+02  0.38257158355E+03  0.38653587388E+03  0.00000000000E+00 0.  1.
</event>
<event>
 7    1  0.6681656E-006  0.8992524E+02  0.7818608E-02  0.1416652E+00
          2   -1    0    0  502    0  0.00000000000E+00  0.00000000000E+00  0.14721502722E+04  0.14721502722E+04  0.00000000000E+00 0. -1.
          1   -1    0    0  501    0 -0.00000000000E+00 -0.00000000000E+00 -0.39176830909E+02  0.39176830909E+02  0.00000000000E+00 0. -1.
         25    2    1    2    0    0  0.59763542832E+02 -0.38005958746E+02  0.49700606997E+03  0.51735506232E+03  0.12500037189E+03 0.  0.
          2    1    1    2  501    0  0.31935853601E+02  0.13169877416E+02 -0.15436312687E+02  0.37836809667E+02  0.00000000000E+00 0. -1.
          1    1    1    2  502    0 -0.91699396433E+02  0.24836081330E+02  0.95140368404E+03  0.95613523115E+03  0.00000000000E+00 0. -1.
         22    1    3    3    0    0 -0.29124697725E+02 -0.34799701825E+02  0.90597954152E+02  0.10132747190E+03  0.00000000000E+00 0.  1.
         22    1    3    3    0    0  0.88888240556E+02 -0.32062569208E+01  0.40640811581E+03  0.41602759042E+03  0.00000000000E+00 0.  1.
</event>
<event>
 7    1  0.6681656E-006  0.1111415E+03  0.7818608E-02  0.1294297E+00
          2   -1    0    0  502    0  0.00000000000E+00  0.00000000000E+00  0.21854876329E+04  0.21854876329E+04  0.00000000000E+00 0. -1.
          1   -1    0    0  501    0 -0.00000000000E+00 -0.00000000000E+00 -0.60545624216E+02  0.60545624216E+02  0.00000000000E+00 0. -1.
         25    2    1    2    0    0 -0.16219049856E+02  0.32739448541E+02  0.10649460759E+04  0.10728791358E+04  0.12499826514E+03 0.  0.
          2    1    1    2  501    0  0.46550114085E+02 -0.10554787797E+03  0.52639814499E+01  0.11547717162E+03  0.00000000000E+00 0. -1.
          1    1    1    2  502    0 -0.30331064229E+02  0.72808429428E+02  0.10547319513E+04  0.10576769497E+04  0.00000000000E+00 0. -1.
         22    1    3    3    0    0 -0.24711451588E+02 -0.18636672983E+02  0.88522912504E+03  0.88577005213E+03  0.00000000000E+00 0.  1.
         22    1    3    3    0    0  0.84924017327E+01  0.51376121524E+02  0.17971695087E+03  0.18710908364E+03  0.00000000000E+00 0.  1.
</event>
<event>
 7    1  0.6681656E-006  0.8185149E+02  0.7818608E-02  0.1335064E+00
          2   -1    0    0  502    0  0.00000000000E+00  0.00000000000E+00  0.46986044503E+03  0.46986044503E+03  0.00000000000E+00 0. -1.
          1   -1    0    0  501    0 -0.00000000000E+00 -0.00000000000E+00 -0.22096229038E+03  0.22096229038E+03  0.00000000000E+00 0. -1.
         25    2    1    2    0    0 -0.49254732788E+02  0.33776823121E+02  0.23679442064E+03  0.27433996909E+03  0.12499567399E+03 0.  0.
          2    1    1    2  501    0  0.25274475459E+02  0.69736084184E+02 -0.18125929324E+03  0.19584905395E+03  0.00000000000E+00 0. -1.
          1    1    1    2  502    0  0.23980257329E+02 -0.10351290730E+03  0.19336302726E+03  0.22063371236E+03  0.00000000000E+00 0. -1.
         22    1    3    3    0    0 -0.41769671057E+02 -0.43840664518E+02  0.10344109294E+03  0.11986145750E+03  0.00000000000E+00 0. -1.
         22    1    3    3    0    0 -0.74850617309E+01  0.77617487638E+02  0.13335332770E+03  0.15447851160E+03  0.00000000000E+00 0. -1.
</event>
<event>
 7    1  0.6681656E-006  0.5026695E+02  0.7818608E-02  0.1475515E+00
          2   -1    0    0  502    0  0.00000000000E+00  0.00000000000E+00  0.70089136650E+03  0.70089136650E+03  0.00000000000E+00 0. -1.
          1   -1    0    0  501    0 -0.00000000000E+00 -0.00000000000E+00 -0.13288919169E+03  0.13288919169E+03  0.00000000000E+00 0. -1.
         25    2    1    2    0    0 -0.51986877478E+02  0.70308888712E+02  0.19795710170E+03  0.24991728753E+03  0.12500264490E+03 0.  0.
          2    1    1    2  501    0  0.21602014137E+02 -0.44370946992E+02 -0.10032178243E+03  0.11180289791E+03  0.00000000000E+00 0. -1.
          1    1    1    2  502    0  0.30384863341E+02 -0.25937941720E+02  0.47036685553E+03  0.47206037275E+03  0.00000000000E+00 0. -1.
         22    1    3    3    0    0  0.33349977617E+02  0.55180615332E+02  0.10146669045E+03  0.12021901092E+03  0.00000000000E+00 0.  1.
         22    1    3    3    0    0 -0.85336855095E+02  0.15128273381E+02  0.96490411248E+02  0.12969827661E+03  0.00000000000E+00 0.  1.
</event>
<event>
 7    1  0.6681656E-006  0.1575724E+03  0.7818608E-02  0.1375639E+00
          2   -1    0    0  502    0  0.00000000000E+00  0.00000000000E+00  0.83104546747E+03  0.83104546747E+03  0.00000000000E+00 0. -1.
          1   -1    0    0  501    0 -0.00000000000E+00 -0.00000000000E+00 -0.83449280454E+03  0.83449280454E+03  0.00000000000E+00 0. -1.
         25    2    1    2    0    0  0.91453054400E+02  0.10178871200E+03 -0.87949348878E+02  0.20514538069E+03  0.12499974481E+03 0.  0.
          2    1    1    2  501    0  0.27054589185E+02  0.38728400927E+01 -0.67950921479E+03  0.68005861708E+03  0.00000000000E+00 0. -1.
          1    1    1    2  502    0 -0.11850764359E+03 -0.10566155209E+03  0.76401122660E+03  0.78033427423E+03  0.00000000000E+00 0. -1.
         22    1    3    3    0    0  0.72590206446E+02  0.12662473637E+03 -0.93683969839E+02  0.17343542930E+03  0.00000000000E+00 0.  1.
         22    1    3    3    0    0  0.18862847954E+02 -0.24836024373E+02  0.57346209609E+01  0.31709951390E+02  0.00000000000E+00 0.  1.
</event>
<event>
 7    1  0.6681656E-006  0.7229609E+02  0.7818608E-02  0.1364375E+00
          2   -1    0    0  502    0  0.00000000000E+00  0.00000000000E+00  0.16983037548E+04  0.16983037548E+04  0.00000000000E+00 0. -1.
          1   -1    0    0  501    0 -0.00000000000E+00 -0.00000000000E+00 -0.37478658376E+03  0.37478658376E+03  0.00000000000E+00 0. -1.
         25    2    1    2    0    0 -0.11636537867E+03  0.30216268089E+02  0.85128053027E+03  0.86876937971E+03  0.12501107828E+03 0.  0.
          2    1    1    2  501    0  0.50936015249E+02 -0.41003145705E+02 -0.36179534813E+03  0.36765691824E+03  0.00000000000E+00 0. -1.
          1    1    1    2  502    0  0.65429363424E+02  0.10786877615E+02  0.83403198888E+03  0.83666404059E+03  0.00000000000E+00 0. -1.
         22    1    3    3    0    0 -0.10492410918E+03  0.45951069573E+02  0.83657933095E+03  0.84438471472E+03  0.00000000000E+00 0.  1.
         22    1    3    3    0    0 -0.11441269488E+02 -0.15734801484E+02  0.14701199326E+02  0.24384664993E+02  0.00000000000E+00 0.  1.
</event>
<event>
 7    1  0.6681656E-006  0.1029129E+03  0.7818608E-02  0.1308059E+00
          2   -1    0    0  502    0  0.00000000000E+00  0.00000000000E+00  0.13833280766E+04  0.13833280766E+04  0.00000000000E+00 0. -1.
          1   -1    0    0  501    0 -0.00000000000E+00 -0.00000000000E+00 -0.18174738595E+04  0.18174738595E+04  0.00000000000E+00 0. -1.
         25    2    1    2    0    0 -0.95244528264E+02 -0.80698024497E+01  0.10063591938E+03  0.18678654963E+03  0.12499993991E+03 0.  0.
          2    1    1    2  501    0  0.26062951714E+02 -0.70378428405E+02 -0.17713962055E+04  0.17729853123E+04  0.00000000000E+00 0. -1.
          1    1    1    2  502    0  0.69181576550E+02  0.78448230854E+02  0.12366145032E+04  0.12410300742E+04  0.00000000000E+00 0. -1.
         22    1    3    3    0    0 -0.51319544568E+02 -0.64670577115E+02  0.35177601175E+02  0.89740976279E+02  0.00000000000E+00 0.  1.
         22    1    3    3    0    0 -0.43924983696E+02  0.56600774665E+02  0.65458318206E+02  0.97045573355E+02  0.00000000000E+00 0.  1.
</event>
<event>
 7    1  0.6681656E-006  0.5737040E+02  0.7818608E-02  0.1512711E+00
          2   -1    0    0  502    0  0.00000000000E+00  0.00000000000E+00  0.91824296494E+03  0.91824296494E+03  0.00000000000E+00 0. -1.
          1   -1    0    0  501    0 -0.00000000000E+00 -0.00000000000E+00 -0.92345334433E+02  0.92345334433E+02  0.00000000000E+00 0. -1.
         25    2    1    2    0    0 -0.15793022408E+02  0.43104484123E+02  0.21453056357E+03  0.25251969075E+03  0.12504165466E+03 0.  0.
          2    1    1    2  501    0 -0.69437435713E+01 -0.57761746622E+02 -0.61500298654E+02  0.84657673498E+02  0.00000000000E+00 0. -1.
          1    1    1    2  502    0  0.22736765979E+02  0.14657262499E+02  0.67286736559E+03  0.67341093513E+03  0.00000000000E+00 0. -1.
         22    1    3    3    0    0  0.31775359686E+02 -0.17744234612E+02  0.16498602373E+02  0.39959169478E+02  0.00000000000E+00 0.  1.
         22    1    3    3    0    0 -0.47568382094E+02  0.60848718735E+02  0.19803196120E+03  0.21256052127E+03  0.00000000000E+00 0.  1.
</event>
<event>
 7    1  0.6681656E-006  0.1913230E+03  0.7818608E-02  0.1354201E+00
          2   -1    0    0  502    0  0.00000000000E+00  0.00000000000E+00  0.13773867197E+03  0.13773867197E+03  0.00000000000E+00 0. -1.
          1   -1    0    0  501    0 -0.00000000000E+00 -0.00000000000E+00 -0.18469684091E+04  0.18469684091E+04  0.00000000000E+00 0. -1.
         25    2    1    2    0    0 -0.15246780505E+02 -0.18565860896E+03 -0.51640510032E+03  0.56302872436E+03  0.12500213366E+03 0.  0.
          2    1    1    2  501    0  0.26158605262E+02 -0.63443595240E+01 -0.12261962022E+04  0.12264916020E+04  0.00000000000E+00 0. -1.
          1    1    1    2  502    0 -0.10911824757E+02  0.19200296849E+03  0.33371565396E+02  0.19518675468E+03  0.00000000000E+00 0. -1.
         22    1    3    3    0    0 -0.25653442021E+02 -0.17109440553E+03 -0.30330428347E+03  0.34917743779E+03  0.00000000000E+00 0. -1.
         22    1    3    3    0    0  0.10406661516E+02 -0.14564203434E+02 -0.21310081685E+03  0.21385128657E+03  0.00000000000E+00 0. -1.
</event>
<event>
 7    1  0.6681656E-006  0.1139351E+03  0.7818608E-02  0.1380701E+00
          2   -1    0    0  502    0  0.00000000000E+00  0.00000000000E+00  0.75405105582E+03  0.75405105582E+03  0.00000000000E+00 0. -1.
          1   -1    0    0  501    0 -0.00000000000E+00 -0.00000000000E+00 -0.17457800985E+03  0.17457800985E+03  0.00000000000E+00 0. -1.
         25    2    1    2    0    0 -0.15617982436E+02  0.78219682172E+02 -0.34648672277E+02  0.15229674354E+03  0.12502610746E+03 0.  0.
          2    1    1    2  501    0 -0.13533241122E+01  0.36240097918E+02 -0.71949166745E+02  0.80572071951E+02  0.00000000000E+00 0. -1.
          1    1    1    2  502    0  0.16971306548E+02 -0.11445978009E+03  0.68607088499E+03  0.69576025018E+03  0.00000000000E+00 0. -1.
         22    1    3    3    0    0 -0.25528626723E+02  0.54772117622E+02 -0.80018782484E+02  0.10027313300E+03  0.00000000000E+00 0.  1.
         22    1    3    3    0    0  0.99106442864E+01  0.23447564550E+02  0.45370110207E+02  0.52023610541E+02  0.00000000000E+00 0.  1.
</event>
<event>
 7    1  0.6681656E-006  0.6667163E+02  0.7818608E-02  0.1455381E+00
          2   -1    0    0  502    0  0.00000000000E+00  0.00000000000E+00  0.77933001974E+02  0.77933001974E+02  0.00000000000E+00 0. -1.
          1   -1    0    0  501    0 -0.00000000000E+00 -0.00000000000E+00 -0.69490831515E+03  0.69490831515E+03  0.00000000000E+00 0. -1.
         25    2    1    2    0    0 -0.26618277117E+02 -0.22005491877E+02 -0.12252739503E+03  0.17841269992E+03  0.12500141844E+03 0.  0.
          2    1    1    2  501    0  0.50620841902E+02  0.47237784595E+02 -0.53586304783E+03  0.54031757695E+03  0.00000000000E+00 0. -1.
          1    1    1    2  502    0 -0.24002564785E+02 -0.25232292719E+02  0.41415129677E+02  0.54111040262E+02  0.00000000000E+00 0. -1.
         22    1    3    3    0    0 -0.67476882524E+02 -0.27416646490E+02 -0.33217407563E+02  0.80051223258E+02  0.00000000000E+00 0.  1.
         22    1    3    3    0    0  0.40858605407E+02  0.54111546133E+01 -0.89309987466E+02  0.98361476662E+02  0.00000000000E+00 0.  1.
</event>
<event>
 7    1  0.6681656E-006  0.1030940E+03  0.7818608E-02  0.1305459E+00
          2   -1    0    0  502    0  0.00000000000E+00  0.00000000000E+00  0.21847513624E+03  0.21847513624E+03  0.00000000000E+00 0. -1.
          1   -1    0    0  501    0 -0.00000000000E+00 -0.00000000000E+00 -0.44022782166E+03  0.44022782166E+03  0.00000000000E+00 0. -1.
         25    2    1    2    0    0 -0.76298569887E+01  0.99408387369E+02 -0.54095873306E+02  0.16878954948E+03  0.12499322504E+03 0.  0.
          2    1    1    2  501    0  0.79409247096E+02 -0.72335058616E+02 -0.31007177230E+03  0.32815041247E+03  0.00000000000E+00 0. -1.
          1    1    1    2  502    0 -0.71779390107E+02 -0.27073328753E+02  0.14241496019E+03  0.16176299595E+03  0.00000000000E+00 0. -1.
         22    1    3    3    0    0 -0.52009914373E+01  0.36770394534E+02  0.40729305970E+02  0.55117951622E+02  0.00000000000E+00 0.  1.
         22    1    3    3    0    0 -0.24288655514E+01  0.62637992835E+02 -0.94825179276E+02  0.11367159786E+03  0.00000000000E+00 0.  1.
</event>
<event>
 7    1  0.6681656E-006  0.1051230E+03  0.7818608E-02  0.1379743E+00
          2   -1    0    0  502    0  0.00000000000E+00  0.00000000000E+00  0.14007895006E+03  0.14007895006E+03  0.00000000000E+00 0. -1.
          1   -1    0    0  501    0 -0.00000000000E+00 -0.00000000000E+00 -0.10131066079E+04  0.10131066079E+04  0.00000000000E+00 0. -1.
         25    2    1    2    0    0 -0.28504505671E+02 -0.84647293037E+02 -0.12441976843E+03  0.19769568664E+03  0.12500253868E+03 0.  0.
          2    1    1    2  501    0 -0.41992501104E+01  0.10700125747E+03 -0.84474811894E+03  0.85150824262E+03  0.00000000000E+00 0. -1.
          1    1    1    2  502    0  0.32703755782E+02 -0.22353964435E+02  0.96140229548E+02  0.10398162869E+03  0.00000000000E+00 0. -1.
         22    1    3    3    0    0 -0.56541310138E+02 -0.10375671793E+03 -0.84294982326E+02  0.14514827010E+03  0.00000000000E+00 0.  1.
         22    1    3    3    0    0  0.28036804466E+02  0.19109424895E+02 -0.40124786109E+02  0.52547416538E+02  0.00000000000E+00 0.  1.
</event>
<event>
 7    1  0.6681656E-006  0.8378030E+02  0.7818608E-02  0.1375359E+00
          2   -1    0    0  502    0  0.00000000000E+00  0.00000000000E+00  0.18583645601E+03  0.18583645601E+03  0.00000000000E+00 0. -1.
          1   -1    0    0  501    0 -0.00000000000E+00 -0.00000000000E+00 -0.27137204299E+03  0.27137204299E+03  0.00000000000E+00 0. -1.
         25    2    1    2    0    0 -0.94446124024E+02  0.16503649833E+02 -0.37243802138E+02  0.16187727870E+03  0.12499884704E+03 0.  0.
          2    1    1    2  501    0  0.77474172741E+02  0.32141775625E+02 -0.15533516843E+03  0.17653429054E+03  0.00000000000E+00 0. -1.
          1    1    1    2  502    0  0.16971951283E+02 -0.48645425458E+02  0.10704338360E+03  0.11879692976E+03  0.00000000000E+00 0. -1.
         22    1    3    3    0    0 -0.17124839047E+00  0.52655903267E+02  0.40034564325E+01  0.52808154089E+02  0.00000000000E+00 0. -1.
         22    1    3    3    0    0 -0.94274875634E+02 -0.36152253434E+02 -0.41247258571E+02  0.10906912461E+03  0.00000000000E+00 0. -1.
</event>
<event>
 7    1  0.6681656E-006  0.3059321E+02  0.7818608E-02  0.1630359E+00
          2   -1    0    0  502    0  0.00000000000E+00  0.00000000000E+00  0.11353937574E+04  0.11353937574E+04  0.00000000000E+00 0. -1.
          1   -1    0    0  501    0 -0.00000000000E+00 -0.00000000000E+00 -0.81358683059E+03  0.81358683059E+03  0.00000000000E+00 0. -1.
         25    2    1    2    0    0 -0.15050434724E+02 -0.52216213880E+02 -0.11941072822E+03  0.18120653200E+03  0.12499534650E+03 0.  0.
          2    1    1    2  501    0  0.10282477731E+02  0.22030054942E+02 -0.66284391517E+03  0.66328961137E+03  0.00000000000E+00 0. -1.
          1    1    1    2  502    0  0.47679569925E+01  0.30186158938E+02  0.11040615702E+04  0.11044844446E+04  0.00000000000E+00 0. -1.
         22    1    3    3    0    0 -0.40162787736E+02  0.20123708537E+02 -0.74075463793E+01  0.45528945818E+02  0.00000000000E+00 0. -1.
         22    1    3    3    0    0  0.25112353012E+02 -0.72339922417E+02 -0.11200318184E+03  0.13567758618E+03  0.00000000000E+00 0. -1.
</event>
<event>
 7    1  0.6681656E-006  0.1601640E+03  0.7818608E-02  0.1229973E+00
          2   -1    0    0  502    0  0.00000000000E+00  0.00000000000E+00  0.96252475244E+03  0.96252475244E+03  0.00000000000E+00 0. -1.
          1   -1    0    0  501    0 -0.00000000000E+00 -0.00000000000E+00 -0.12368689929E+04  0.12368689929E+04  0.00000000000E+00 0. -1.
         25    2    1    2    0    0  0.33326254387E+02 -0.67391206188E+02  0.13556115787E+03  0.19913418805E+03  0.12500153369E+03 0.  0.
          2    1    1    2  501    0  0.39108300806E+01  0.16321409938E+03 -0.11961914959E+04  0.12072813391E+04  0.00000000000E+00 0. -1.
          1    1    1    2  502    0 -0.37237084467E+02 -0.95822893188E+02  0.78628609757E+03  0.79297821821E+03  0.00000000000E+00 0. -1.
         22    1    3    3    0    0  0.44032335299E+02 -0.63546569125E+02  0.15692216618E+03  0.17493307074E+03  0.00000000000E+00 0.  1.
         22    1    3    3    0    0 -0.10706080913E+02 -0.38446370630E+01 -0.21361008315E+02  0.24201117307E+02  0.00000000000E+00 0.  1.
</event>
<event>
 7    1  0.6681656E-006  0.7947551E+02  0.7818608E-02  0.1395120E+00
          2   -1    0    0  502    0  0.00000000000E+00  0.00000000000E+00  0.10026649358E+04  0.10026649358E+04  0.00000000000E+00 0. -1.
          1   -1    0    0  501    0 -0.00000000000E+00 -0.00000000000E+00 -0.43190223857E+03  0.43190223857E+03  0.00000000000E+00 0. -1.
         25    2    1    2    0    0  0.11583964318E+03 -0.31363063286E+02  0.18624067388E+03  0.25439156168E+03  0.12500805323E+03 0.  0.
          2    1    1    2  501    0 -0.46230000340E+02 -0.22638799015E+01 -0.39456098447E+03  0.39726654597E+03  0.00000000000E+00 0. -1.
          1    1    1    2  502    0 -0.69609642837E+02  0.33626943188E+02  0.77908300786E+03  0.78290906677E+03  0.00000000000E+00 0. -1.
         22    1    3    3    0    0  0.29416233104E+02 -0.29154381496E+02  0.15816155526E+03  0.16349425156E+03  0.00000000000E+00 0. -1.
         22    1    3    3    0    0  0.86423410072E+02 -0.22086817906E+01  0.28079118625E+02  0.90897310117E+02  0.00000000000E+00 0. -1.
</event>
<event>
 7    1  0.6681656E-006  0.2464820E+03  0.7818608E-02  0.1213067E+00
          2   -1    0    0  502    0  0.00000000000E+00  0.00000000000E+00  0.70179651160E+03  0.70179651160E+03  0.00000000000E+00 0. -1.
          1   -1    0    0  501    0 -0.00000000000E+00 -0.00000000000E+00 -0.35725478261E+03  0.35725478261E+03  0.00000000000E+00 0. -1.
         25    2    1    2    0    0  0.12994294729E+03  0.16769903249E+03  0.89891014164E+02  0.26213567728E+03  0.12500633516E+03 0.  0.
          2    1    1    2  501    0 -0.20889487193E+03 -0.15651420611E+03 -0.20406229210E+03  0.33132338174E+03  0.00000000000E+00 0. -1.
          1    1    1    2  502    0  0.78951924648E+02 -0.11184826375E+02  0.45871300692E+03  0.46559223518E+03  0.00000000000E+00 0. -1.
         22    1    3    3    0    0  0.83356170289E+01  0.81285019799E+01  0.57797111336E+02  0.58958130351E+02  0.00000000000E+00 0. -1.
         22    1    3    3    0    0  0.12160733026E+03  0.15957053051E+03  0.32093902828E+02  0.20317754693E+03  0.00000000000E+00 0. -1.
</event>
<event>
 7    1  0.6681656E-006  0.4003065E+02  0.7818608E-02  0.1576714E+00
          2   -1    0    0  502    0  0.00000000000E+00  0.00000000000E+00  0.28373594112E+03  0.28373594112E+03  0.00000000000E+00 0. -1.
          1   -1    0    0  501    0 -0.00000000000E+00 -0.00000000000E+00 -0.41517408702E+03  0.41517408702E+03  0.00000000000E+00 0. -1.
         25    2    1    2    0    0 -0.55106535882E+02  0.15241529524E+01 -0.14017857446E+03  0.19573962912E+03  0.12499966532E+03 0.  0.
          2    1    1    2  501    0  0.35247164423E+02 -0.17713861142E+02 -0.24499198961E+03  0.24814757393E+03  0.00000000000E+00 0. -1.
          1    1    1    2  502    0  0.19859371459E+02  0.16189708189E+02  0.25373241817E+03  0.25502282509E+03  0.00000000000E+00 0. -1.
         22    1    3    3    0    0  0.14174488676E+02  0.47035233879E+02 -0.77748092110E+02  0.91967359329E+02  0.00000000000E+00 0. -1.
         22    1    3    3    0    0 -0.69281024558E+02 -0.45511080927E+02 -0.62430482353E+02  0.10377226979E+03  0.00000000000E+00 0. -1.
</event>
<event>
 7    1  0.6681656E-006  0.6685504E+02  0.7818608E-02  0.1392696E+00
          2   -1    0    0  502    0  0.00000000000E+00  0.00000000000E+00  0.42354156574E+03  0.42354156574E+03  0.00000000000E+00 0. -1.
          1   -1    0    0  501    0 -0.00000000000E+00 -0.00000000000E+00 -0.15361183297E+04  0.15361183297E+04  0.00000000000E+00 0. -1.
         25    2    1    2    0    0  0.74304019764E+02 -0.81345717748E+02  0.21277512930E+03  0.27025313840E+03  0.12500116006E+03 0.  0.
          2    1    1    2  501    0 -0.49324910427E+02  0.26723008147E+02 -0.15018866178E+04  0.15029339568E+04  0.00000000000E+00 0. -1.
          1    1    1    2  502    0 -0.24979109336E+02  0.54622709602E+02  0.17653472445E+03  0.18647280028E+03  0.00000000000E+00 0. -1.
         22    1    3    3    0    0  0.74697424825E+02 -0.11126403249E+03  0.19066011500E+03  0.23304649676E+03  0.00000000000E+00 0. -1.
         22    1    3    3    0    0 -0.39340506073E+00  0.29918314739E+02  0.22115014297E+02  0.37206641635E+02  0.00000000000E+00 0. -1.
</event>
<event>
 7    1  0.6681656E-006  0.8203811E+02  0.7818608E-02  0.1376810E+00
          2   -1    0    0  502    0  0.00000000000E+00  0.00000000000E+00  0.13134897031E+04  0.13134897031E+04  0.00000000000E+00 0. -1.
          1   -1    0    0  501    0 -0.00000000000E+00 -0.00000000000E+00 -0.46341037796E+03  0.46341037796E+03  0.00000000000E+00 0. -1.
         25    2    1    2    0    0  0.69255008546E+02  0.74205374586E+02  0.66726232853E+03  0.68642135061E+03  0.12503024301E+03 0.  0.
          2    1    1    2  501    0 -0.17597503475E+02 -0.80098247493E+02 -0.44904960031E+03  0.45647666415E+03  0.00000000000E+00 0. -1.
          1    1    1    2  502    0 -0.51657505071E+02  0.58928729070E+01  0.63186659689E+03  0.63400206628E+03  0.00000000000E+00 0. -1.
         22    1    3    3    0    0  0.99972009200E+02  0.40403550489E+02  0.36060115321E+03  0.37637752485E+03  0.00000000000E+00 0. -1.
         22    1    3    3    0    0 -0.30717000654E+02  0.33801824097E+02  0.30666117532E+03  0.31004382576E+03  0.00000000000E+00 0. -1.
</event>
<event>
 7    1  0.6681656E-006  0.3178123E+03  0.7818608E-02  0.1268501E+00
          2   -1    0    0  502    0  0.00000000000E+00  0.00000000000E+00  0.14029412521E+04  0.14029412521E+04  0.00000000000E+00 0. -1.
          1   -1    0    0  501    0 -0.00000000000E+00 -0.00000000000E+00 -0.34657993619E+03  0.34657993619E+03  0.00000000000E+00 0. -1.
         25    2    1    2    0    0  0.29926540613E+03 -0.12153285277E+02  0.13569171295E+02  0.32483328831E+03  0.12500022854E+03 0.  0.
          2    1    1    2  501    0  0.18350252776E+02 -0.30083064446E+02 -0.16828888727E+03  0.17193857078E+03  0.00000000000E+00 0. -1.
          1    1    1    2  502    0 -0.31761565891E+03  0.42236349724E+02  0.12110810319E+04  0.12527493292E+04  0.00000000000E+00 0. -1.
         22    1    3    3    0    0  0.18681163297E+03 -0.54246873300E+02  0.47132381822E+02  0.20015686571E+03  0.00000000000E+00 0. -1.
         22    1    3    3    0    0  0.11245377316E+03  0.42093588022E+02 -0.33563210527E+02  0.12467642260E+03  0.00000000000E+00 0. -1.
</event>
<event>
 7    1  0.6681656E-006  0.2779349E+03  0.7818608E-02  0.1238323E+00
          2   -1    0    0  502    0  0.00000000000E+00  0.00000000000E+00  0.25855745273E+04  0.25855745273E+04  0.00000000000E+00 0. -1.
          1   -1    0    0  501    0 -0.00000000000E+00 -0.00000000000E+00 -0.72511510182E+03  0.72511510182E+03  0.00000000000E+00 0. -1.
         25    2    1    2    0    0 -0.31687222839E+02 -0.25102689087E+03  0.10339363140E+04  0.10717591745E+04  0.12499938700E+03 0.  0.
          2    1    1    2  501    0  0.27875210591E+02 -0.46693454508E+02 -0.69066493933E+03  0.69280254364E+03  0.00000000000E+00 0. -1.
          1    1    1    2  502    0  0.38120122483E+01  0.29772034537E+03  0.15171880508E+04  0.15461279110E+04  0.00000000000E+00 0. -1.
         22    1    3    3    0    0  0.16590787786E+02 -0.14116765752E+03  0.35676173758E+03  0.38403450258E+03  0.00000000000E+00 0.  1.
         22    1    3    3    0    0 -0.48278010625E+02 -0.10985923335E+03  0.67717457643E+03  0.68772467197E+03  0.00000000000E+00 0.  1.
</event>
<event>
 7    1  0.6681656E-006  0.4822154E+02  0.7818608E-02  0.1459020E+00
          2   -1    0    0  502    0  0.00000000000E+00  0.00000000000E+00  0.18859600517E+04  0.18859600517E+04  0.00000000000E+00 0. -1.
          1   -1    0    0  501    0 -0.00000000000E+00 -0.00000000000E+00 -0.60068142677E+02  0.60068142677E+02  0.00000000000E+00 0. -1.
         25    2    1    2    0    0  0.16843347235E+02  0.31139569587E+01  0.77262079585E+02  0.14794506796E+03  0.12499967647E+03 0.  0.
          2    1    1    2  501    0  0.48695591050E+01 -0.46635224110E+02 -0.18523957434E+01  0.46925346068E+02  0.00000000000E+00 0. -1.
          1    1    1    2  502    0 -0.21712906340E+02  0.43521267151E+02  0.17504822252E+04  0.17511577803E+04  0.00000000000E+00 0. -1.
         22    1    3    3    0    0  0.48348337706E+02 -0.28552226955E+01  0.98307205238E+02  0.10959023979E+03  0.00000000000E+00 0.  1.
         22    1    3    3    0    0 -0.31504990471E+02  0.59691796542E+01 -0.21045125653E+02  0.38354828171E+02  0.00000000000E+00 0.  1.
</event>
<event>
 7    1  0.6681656E-006  0.1745340E+03  0.7818608E-02  0.1210867E+00
          2   -1    0    0  502    0  0.00000000000E+00  0.00000000000E+00  0.94378062326E+03  0.94378062326E+03  0.00000000000E+00 0. -1.
          1   -1    0    0  501    0 -0.00000000000E+00 -0.00000000000E+00 -0.56059517589E+03  0.56059517589E+03  0.00000000000E+00 0. -1.
         25    2    1    2    0    0 -0.10718727622E+03 -0.12366279859E+03 -0.26162685334E+03  0.33296065053E+03  0.12503033423E+03 0.  0.
          2    1    1    2  501    0 -0.66261175361E+02  0.94333598651E+02 -0.24161206625E+03  0.26770461661E+03  0.00000000000E+00 0. -1.
          1    1    1    2  502    0  0.17344845158E+03  0.29329199936E+02  0.88642436696E+03  0.90371053201E+03  0.00000000000E+00 0. -1.
         22    1    3    3    0    0 -0.91045220499E+02 -0.62782918497E+02 -0.24347214308E+03  0.26741281100E+03  0.00000000000E+00 0. -1.
         22    1    3    3    0    0 -0.16142055723E+02 -0.60879880090E+02 -0.18154710253E+02  0.65547839531E+02  0.00000000000E+00 0. -1.
</event>
<event>
 7    1  0.6681656E-006  0.1782705E+03  0.7818608E-02  0.1372061E+00
          2   -1    0    0  502    0  0.00000000000E+00  0.00000000000E+00  0.25133259395E+04  0.25133259395E+04  0.00000000000E+00 0. -1.
          1   -1    0    0  501    0 -0.00000000000E+00 -0.00000000000E+00 -0.40291513892E+03  0.40291513892E+03  0.00000000000E+00 0. -1.
         25    2    1    2    0    0 -0.16240277066E+03  0.47286776451E+02 -0.21184464560E+02  0.21138851666E+03  0.12500249714E+03 0.  0.
          2    1    1    2  501    0 -0.14142135010E+02 -0.20468780652E+02 -0.28278518606E+03  0.28387749545E+03  0.00000000000E+00 0. -1.
          1    1    1    2  502    0  0.17654490567E+03 -0.26817995799E+02  0.24143804512E+04  0.24209750664E+04  0.00000000000E+00 0. -1.
         22    1    3    3    0    0 -0.14197495099E+03  0.27738205869E+02 -0.65519232774E+02  0.15880511528E+03  0.00000000000E+00 0.  1.
         22    1    3    3    0    0 -0.20427819666E+02  0.19548570582E+02  0.44334768214E+02  0.52583401380E+02  0.00000000000E+00 0.  1.
</event>
<event>
 7    1  0.6681656E-006  0.1304608E+03  0.7818608E-02  0.1371139E+00
          2   -1    0    0  502    0  0.00000000000E+00  0.00000000000E+00  0.39254746417E+03  0.39254746417E+03  0.00000000000E+00 0. -1.
          1   -1    0    0  501    0 -0.00000000000E+00 -0.00000000000E+00 -0.18123517465E+04  0.18123517465E+04  0.00000000000E+00 0. -1.
         25    2    1    2    0    0 -0.50548652082E+02 -0.83732119244E+02  0.34814340744E+02  0.16248913577E+03  0.12499778759E+03 0.  0.
          2    1    1    2  501    0  0.60496322503E+02  0.11651238589E+03 -0.17450420276E+04  0.17499733195E+04  0.00000000000E+00 0. -1.
          1    1    1    2  502    0 -0.99476704203E+01 -0.32780266650E+02  0.29042340448E+03  0.29243675538E+03  0.00000000000E+00 0. -1.
         22    1    3    3    0    0 -0.47496055349E+01 -0.42366712840E+02  0.76805396356E+02  0.87843986812E+02  0.00000000000E+00 0.  1.
         22    1    3    3    0    0 -0.45799046548E+02 -0.41365406404E+02 -0.41991055612E+02  0.74645148958E+02  0.00000000000E+00 0.  1.
</event>
<event>
 7    1  0.6681656E-006  0.7183776E+02  0.7818608E-02  0.1397286E+00
          2   -1    0    0  502    0  0.00000000000E+00  0.00000000000E+00  0.10002052367E+04  0.10002052367E+04  0.00000000000E+00 0. -1.
          1   -1    0    0  501    0 -0.00000000000E+00 -0.00000000000E+00 -0.46085407764E+02  0.46085407764E+02  0.00000000000E+00 0. -1.
         25    2    1    2    0    0 -0.39604189156E+02  0.46420937201E+02  0.34812192736E+03  0.37488263854E+03  0.12499888464E+03 0.  0.
          2    1    1    2  501    0  0.74265299059E+02 -0.99273120499E+01  0.12718663947E+02  0.75997701159E+02  0.00000000000E+00 0. -1.
          1    1    1    2  502    0 -0.34661109904E+02 -0.36493625151E+02  0.59327923761E+03  0.59541030474E+03  0.00000000000E+00 0. -1.
         22    1    3    3    0    0 -0.76948713694E+01  0.59156165270E+02  0.59611762513E+02  0.84334009538E+02  0.00000000000E+00 0. -1.
         22    1    3    3    0    0 -0.31909317786E+02 -0.12735228070E+02  0.28851016485E+03  0.29054862900E+03  0.00000000000E+00 0. -1.
</event>
<event>
 7    1  0.6681656E-006  0.6485988E+02  0.7818608E-02  0.1397903E+00
          2   -1    0    0  502    0  0.00000000000E+00  0.00000000000E+00  0.93154837942E+03  0.93154837942E+03  0.00000000000E+00 0. -1.
          1   -1    0    0  501    0 -0.00000000000E+00 -0.00000000000E+00 -0.86783037588E+02  0.86783037588E+02  0.00000000000E+00 0. -1.
         25    2    1    2    0    0  0.24873404478E+02  0.58631419241E+01  0.47196612335E+03  0.48890709063E+03  0.12500023596E+03 0.  0.
          2    1    1    2  501    0 -0.25311775441E+02 -0.61334205491E+02 -0.62173160463E+02  0.90928942703E+02  0.00000000000E+00 0. -1.
          1    1    1    2  502    0  0.43837096342E+00  0.55471063567E+02  0.43497237894E+03  0.43849538367E+03  0.00000000000E+00 0. -1.
         22    1    3    3    0    0  0.69174689990E+02 -0.12284172459E+02  0.36523205141E+03  0.37192807101E+03  0.00000000000E+00 0.  1.
         22    1    3    3    0    0 -0.44301285513E+02  0.18147314383E+02  0.10673407195E+03  0.11697901962E+03  0.00000000000E+00 0.  1.
</event>
<event>
 7    1  0.6681656E-006  0.1823351E+03  0.7818608E-02  0.1182544E+00
          2   -1    0    0  502    0  0.00000000000E+00  0.00000000000E+00  0.32766744115E+03  0.32766744115E+03  0.00000000000E+00 0. -1.
          1   -1    0    0  501    0 -0.00000000000E+00 -0.00000000000E+00 -0.21549627170E+04  0.21549627170E+04  0.00000000000E+00 0. -1.
         25    2    1    2    0    0  0.34260309714E+02 -0.27895908525E+03  0.16256488129E+02  0.30802344103E+03  0.12498890650E+03 0.  0.
          2    1    1    2  501    0 -0.82047297757E+02  0.12599264192E+03 -0.19667370344E+04  0.19724757203E+04  0.00000000000E+00 0. -1.
          1    1    1    2  502    0  0.47786988043E+02  0.15296644334E+03  0.12318527041E+03  0.20213099678E+03  0.00000000000E+00 0. -1.
         22    1    3    3    0    0 -0.13687918215E+02  0.19702894973E+01  0.18407602656E+02  0.23023487601E+02  0.00000000000E+00 0. -1.
         22    1    3    3    0    0  0.47948227929E+02 -0.28092937475E+03 -0.21511145278E+01  0.28499995343E+03  0.00000000000E+00 0. -1.
</event>
<event>
 7    1  0.6681656E-006  0.3019063E+03  0.7818608E-02  0.1197404E+00
          2   -1    0    0  502    0  0.00000000000E+00  0.00000000000E+00  0.19847721917E+04  0.19847721917E+04  0.00000000000E+00 0. -1.
          1   -1    0    0  501    0 -0.00000000000E+00 -0.00000000000E+00 -0.27252856284E+03  0.27252856284E+03  0.00000000000E+00 0. -1.
         25    2    1    2    0    0  0.23629495051E+03  0.92217646203E+02  0.18355576002E+03  0.33713098936E+03  0.12500075617E+03 0.  0.
          2    1    1    2  501    0  0.28633516542E+02  0.71538989339E+02 -0.17343719784E+03  0.18978452745E+03  0.00000000000E+00 0. -1.
          1    1    1    2  502    0 -0.26492846705E+03 -0.16375663554E+03  0.17021250666E+04  0.17303852377E+04  0.00000000000E+00 0. -1.
         22    1    3    3    0    0  0.20803461112E+03  0.26083287332E+02  0.12276138984E+03  0.24295904209E+03  0.00000000000E+00 0.  1.
         22    1    3    3    0    0  0.28260339391E+02  0.66134358872E+02  0.60794370180E+02  0.94171947264E+02  0.00000000000E+00 0.  1.
</event>
<event>
 7    1  0.6681656E-006  0.7270939E+02  0.7818608E-02  0.1396555E+00
          2   -1    0    0  502    0  0.00000000000E+00  0.00000000000E+00  0.23493349385E+03  0.23493349385E+03  0.00000000000E+00 0. -1.
          1   -1    0    0  501    0 -0.00000000000E+00 -0.00000000000E+00 -0.59656299924E+03  0.59656299924E+03  0.00000000000E+00 0. -1.
         25    2    1    2    0    0 -0.60340230593E+02 -0.91093553048E+02 -0.86985823487E+02  0.18743187360E+03  0.12500077967E+03 0.  0.
          2    1    1    2  501    0  0.15268444288E+02  0.69407812306E+02 -0.45314712485E+03  0.45868604356E+03  0.00000000000E+00 0. -1.
          1    1    1    2  502    0  0.45071786305E+02  0.21685740741E+02  0.17850344294E+03  0.18537857593E+03  0.00000000000E+00 0. -1.
         22    1    3    3    0    0 -0.40927815421E+02 -0.12214676309E+03 -0.74080020588E+02  0.14860271619E+03  0.00000000000E+00 0.  1.
         22    1    3    3    0    0 -0.19412415172E+02  0.31053210042E+02 -0.12905802899E+02  0.38829157411E+02  0.00000000000E+00 0.  1.
</event>
<event>
 7    1  0.6681656E-006  0.3822100E+02  0.7818608E-02  0.1574878E+00
          2   -1    0    0  502    0  0.00000000000E+00  0.00000000000E+00  0.49506792915E+03  0.49506792915E+03  0.00000000000E+00 0. -1.
          1   -1    0    0  501    0 -0.00000000000E+00 -0.00000000000E+00 -0.10058686094E+03  0.10058686094E+03  0.00000000000E+00 0. -1.
         25    2    1    2    0    0 -0.55033899141E+02 -0.31689397784E+02  0.78391216836E+02  0.16063677305E+03  0.12500416790E+03 0.  0.
          2    1    1    2  501    0  0.29590635395E+02  0.22234689739E+02 -0.53157551630E+02  0.64774319187E+02  0.00000000000E+00 0. -1.
          1    1    1    2  502    0  0.25443263746E+02  0.94547080455E+01  0.36924740301E+03  0.37024369785E+03  0.00000000000E+00 0. -1.
         22    1    3    3    0    0 -0.93478269627E+02 -0.32026236125E+02  0.70513829475E+02  0.12139220255E+03  0.00000000000E+00 0. -1.
         22    1    3    3    0    0  0.38444370486E+02  0.33683834009E+00  0.78773873616E+01  0.39244570501E+02  0.00000000000E+00 0. -1.
</event>
<event>
 7    1  0.6681656E-006  0.6918301E+02  0.7818608E-02  0.1468770E+00
          2   -1    0    0  502    0  0.00000000000E+00  0.00000000000E+00  0.20675234882E+03  0.20675234882E+03  0.00000000000E+00 0. -1.
          1   -1    0    0  501    0 -0.00000000000E+00 -0.00000000000E+00 -0.65175056716E+03  0.65175056716E+03  0.00000000000E+00 0. -1.
         25    2    1    2    0    0 -0.78004601226E+02 -0.56433108608E+02 -0.11177406095E+03  0.19336123563E+03  0.12500285270E+03 0.  0.
          2    1    1    2  501    0  0.49216636433E+02  0.46482346829E+02 -0.49546395124E+03  0.50006740831E+03  0.00000000000E+00 0. -1.
          1    1    1    2  502    0  0.28787964794E+02  0.99507617784E+01  0.16223979386E+03  0.16507427204E+03  0.00000000000E+00 0. -1.
         22    1    3    3    0    0 -0.23166122532E+02  0.18318095346E+02 -0.94563508952E+02  0.99068052749E+02  0.00000000000E+00 0.  1.
         22    1    3    3    0    0 -0.54838478694E+02 -0.74751203954E+02 -0.17210551999E+02  0.94293182883E+02  0.00000000000E+00 0.  1.
</event>
<event>
 7    1  0.6681656E-006  0.1036207E+03  0.7818608E-02  0.1408910E+00
          2   -1    0    0  502    0  0.00000000000E+00  0.00000000000E+00  0.96633374635E+02  0.96633374635E+02  0.00000000000E+00 0. -1.
          1   -1    0    0  501    0 -0.00000000000E+00 -0.00000000000E+00 -0.14472219940E+04  0.14472219940E+04  0.00000000000E+00 0. -1.
         25    2    1    2    0    0 -0.11754960303E+02  0.76305405712E+02 -0.11314142574E+04  0.11409138365E+04  0.12500186608E+03 0.  0.
          2    1    1    2  501    0  0.15175142334E+02  0.27989147749E+02 -0.28023570172E+03  0.28203851839E+03  0.00000000000E+00 0. -1.
          1    1    1    2  502    0 -0.34201820319E+01 -0.10429455346E+03  0.61061339712E+02  0.12090301375E+03  0.00000000000E+00 0. -1.
         22    1    3    3    0    0 -0.23601432938E+02 -0.26109257392E+02 -0.14879654476E+03  0.15290236326E+03  0.00000000000E+00 0.  1.
         22    1    3    3    0    0  0.11846472636E+02  0.10241466310E+03 -0.98261771265E+03  0.98801147329E+03  0.00000000000E+00 0.  1.
</event>
<event>
 7    1  0.6681656E-006  0.7972230E+02  0.7818608E-02  0.1447006E+00
          2   -1    0    0  502    0  0.00000000000E+00  0.00000000000E+00  0.17391066454E+04  0.17391066454E+04  0.00000000000E+00 0. -1.
          1   -1    0    0  501    0 -0.00000000000E+00 -0.00000000000E+00 -0.24146216842E+03  0.24146216842E+03  0.00000000000E+00 0. -1.
         25    2    1    2    0    0  0.94970779361E+00 -0.10155072695E+03 -0.11240950982E+03  0.19640598277E+03  0.12500384026E+03 0.  0.
          2    1    1    2  501    0 -0.87306580107E+01  0.71569427771E+02 -0.71958728242E+02  0.10186493975E+03  0.00000000000E+00 0. -1.
          1    1    1    2  502    0  0.77809502171E+01  0.29981299176E+02  0.16820127151E+04  0.16822978913E+04  0.00000000000E+00 0. -1.
         22    1    3    3    0    0 -0.99066228773E+01 -0.12893566939E+03 -0.10348583709E+03  0.16562568187E+03  0.00000000000E+00 0. -1.
         22    1    3    3    0    0  0.10856330671E+02  0.27384942440E+02 -0.89236727315E+01  0.30780300894E+02  0.00000000000E+00 0. -1.
</event>
<event>
 7    1  0.6681656E-006  0.6189769E+02  0.7818608E-02  0.1421275E+00
          2   -1    0    0  502    0  0.00000000000E+00  0.00000000000E+00  0.95632654054E+03  0.95632654054E+03  0.00000000000E+00 0. -1.
          1   -1    0    0  501    0 -0.00000000000E+00 -0.00000000000E+00 -0.18169300619E+03  0.18169300619E+03  0.00000000000E+00 0. -1.
         25    2    1    2    0    0 -0.34853297677E+02 -0.31232746616E+02 -0.39526325550E+02  0.13920337992E+03  0.12500005500E+03 0.  0.
          2    1    1    2  501    0 -0.26754778579E+02  0.40370469353E+02 -0.84824480759E+02  0.97676944611E+02  0.00000000000E+00 0. -1.
          1    1    1    2  502    0  0.61608076256E+02 -0.91377227368E+01  0.89898434065E+03  0.90113922220E+03  0.00000000000E+00 0. -1.
         22    1    3    3    0    0 -0.21866619318E+02  0.41403183181E+02  0.13041788859E+02  0.48605152757E+02  0.00000000000E+00 0.  1.
         22    1    3    3    0    0 -0.12986678359E+02 -0.72635929797E+02 -0.52568114409E+02  0.90598227161E+02  0.00000000000E+00 0.  1.
</event>
<event>
 7    1  0.6681656E-006  0.2156071E+03  0.7818608E-02  0.1319976E+00
          2   -1    0    0  502    0  0.00000000000E+00  0.00000000000E+00  0.18394289901E+04  0.18394289901E+04  0.00000000000E+00 0. -1.
          1   -1    0    0  501    0 -0.00000000000E+00 -0.00000000000E+00 -0.13683430887E+03  0.13683430887E+03  0.00000000000E+00 0. -1.
         25    2    1    2    0    0  0.15704162246E+03  0.10023234613E+03 -0.36458438675E+01  0.22437585394E+03  0.12499054868E+03 0.  0.
          2    1    1    2  501    0  0.30864010321E+02  0.90814086693E+01  0.32244984059E+00  0.32173950494E+02  0.00000000000E+00 0. -1.
          1    1    1    2  502    0 -0.18790563278E+03 -0.10931375480E+03  0.17059180753E+04  0.17197134946E+04  0.00000000000E+00 0. -1.
         22    1    3    3    0    0  0.26612139347E+02  0.22494592110E+02  0.52056223596E+02  0.62642342308E+02  0.00000000000E+00 0. -1.
         22    1    3    3    0    0  0.13042948311E+03  0.77737754024E+02 -0.55702067464E+02  0.16173351163E+03  0.00000000000E+00 0. -1.
</event>
<event>
 7    1  0.6681656E-006  0.7873057E+02  0.7818608E-02  0.1383069E+00
          2   -1    0    0  502    0  0.00000000000E+00  0.00000000000E+00  0.43103191741E+03  0.43103191741E+03  0.00000000000E+00 0. -1.
          1   -1    0    0  501    0 -0.00000000000E+00 -0.00000000000E+00 -0.66286039557E+02  0.66286039557E+02  0.00000000000E+00 0. -1.
         25    2    1    2    0    0 -0.68090258355E+02  0.59563555346E+01  0.12412839179E+03  0.18895583532E+03  0.12499875440E+03 0.  0.
          2    1    1    2  501    0 -0.21299854570E+01 -0.51436492091E+02 -0.22085388555E+01  0.51527926414E+02  0.00000000000E+00 0. -1.
          1    1    1    2  502    0  0.70220243812E+02  0.45480136556E+02  0.24282602492E+03  0.25683419523E+03  0.00000000000E+00 0. -1.
         22    1    3    3    0    0 -0.50622501942E+02 -0.43359881151E+02  0.15570141688E+02  0.68448128598E+02  0.00000000000E+00 0.  1.
         22    1    3    3    0    0 -0.17467756412E+02  0.49316236686E+02  0.10855825010E+03  0.12050770673E+03  0.00000000000E+00 0.  1.
</event>
<event>
 7    1  0.6681656E-006  0.1216580E+03  0.7818608E-02  0.1330941E+00
          2   -1    0    0  502    0  0.00000000000E+00  0.00000000000E+00  0.19278838578E+03  0.19278838578E+03  0.00000000000E+00 0. -1.
          1   -1    0    0  501    0 -0.00000000000E+00 -0.00000000000E+00 -0.75120987256E+03  0.75120987256E+03  0.00000000000E+00 0. -1.
         25    2    1    2    0    0  0.99540324876E+02 -0.75624945205E+02  0.11547406915E+02  0.17716355978E+03  0.12500470268E+03 0.  0.
          2    1    1    2  501    0 -0.40091816744E+02 -0.32704512339E+02 -0.62813329729E+03  0.63026056362E+03  0.00000000000E+00 0. -1.
          1    1    1    2  502    0 -0.59448508131E+02  0.10832945754E+03  0.58164403592E+02  0.13657413495E+03  0.00000000000E+00 0. -1.
         22    1    3    3    0    0  0.12643415254E+03 -0.43145398745E+02  0.16894766153E+02  0.13465717019E+03  0.00000000000E+00 0. -1.
         22    1    3    3    0    0 -0.26893827663E+02 -0.32479546460E+02 -0.53473592380E+01  0.42506389584E+02  0.00000000000E+00 0. -1.
</event>
<event>
 7    1  0.6681656E-006  0.1149334E+03  0.7818608E-02  0.1294219E+00
          2   -1    0    0  502    0  0.00000000000E+00  0.00000000000E+00  0.12550169149E+03  0.12550169149E+03  0.00000000000E+00 0. -1.
          1   -1    0    0  501    0 -0.00000000000E+00 -0.00000000000E+00 -0.22229825104E+04  0.22229825104E+04  0.00000000000E+00 0. -1.
         25    2    1    2    0    0 -0.16693829695E+02 -0.12507077389E+03 -0.26880261891E+03  0.32218221247E+03  0.12500059068E+03 0.  0.
          2    1    1    2  501    0  0.80477614827E+02  0.83148983963E+02 -0.19107342472E+04  0.19142350335E+04  0.00000000000E+00 0. -1.
          1    1    1    2  502    0 -0.63783785132E+02  0.41921789929E+02  0.82056047228E+02  0.11206695589E+03  0.00000000000E+00 0. -1.
         22    1    3    3    0    0 -0.28157775237E+02 -0.44769245611E+02 -0.22267193097E+03  0.22886663038E+03  0.00000000000E+00 0.  1.
         22    1    3    3    0    0  0.11463945542E+02 -0.80301528282E+02 -0.46130687937E+02  0.93315582093E+02  0.00000000000E+00 0.  1.
</event>
<event>
 7    1  0.6681656E-006  0.6072924E+02  0.7818608E-02  0.1394961E+00
          2   -1    0    0  502    0  0.00000000000E+00  0.00000000000E+00  0.12104710356E+04  0.12104710356E+04  0.00000000000E+00 0. -1.
          1   -1    0    0  501    0 -0.00000000000E+00 -0.00000000000E+00 -0.23214969798E+04  0.23214969798E+04  0.00000000000E+00 0. -1.
         25    2    1    2    0    0 -0.48162143434E+02 -0.33987796623E+02  0.10106251174E+03  0.17120938641E+03  0.12499704131E+03 0.  0.
          2    1    1    2  501    0  0.54331839555E+02 -0.27131016575E+02 -0.22851416847E+04  0.22859485033E+04  0.00000000000E+00 0. -1.
          1    1    1    2  502    0 -0.61696961219E+01  0.61118813198E+02  0.10730532287E+04  0.10748101256E+04  0.00000000000E+00 0. -1.
         22    1    3    3    0    0 -0.33207369679E+02 -0.73198621166E+02  0.10120797657E+03  0.12924326699E+03  0.00000000000E+00 0. -1.
         22    1    3    3    0    0 -0.14954773755E+02  0.39210824543E+02 -0.14546482068E+00  0.41966119423E+02  0.00000000000E+00 0. -1.
</event>
<event>
 7    1  0.6681656E-006  0.1681085E+03  0.7818608E-02  0.1188594E+00
          2   -1    0    0  502    0  0.00000000000E+00  0.00000000000E+00  0.64288777337E+03  0.64288777337E+03  0.00000000000E+00 0. -1.
          1   -1    0    0  501    0 -0.00000000000E+00 -0.00000000000E+00 -0.85034519184E+03  0.85034519184E+03  0.00000000000E+00 0. -1.
         25    2    1    2    0    0 -0.71057657710E+01 -0.78674428521E+02  0.62958321724E+00  0.14786868896E+03  0.12499838074E+03 0.  0.
          2    1    1    2  501    0  0.13840155545E+03 -0.63935975304E+02 -0.75233432948E+03  0.76762604359E+03  0.00000000000E+00 0. -1.
          1    1    1    2  502    0 -0.13129578967E+03  0.14261040382E+03  0.54424732780E+03  0.57773823266E+03  0.00000000000E+00 0. -1.
         22    1    3    3    0    0 -0.22196579622E+01 -0.35709363583E+02  0.62718301399E+02  0.72205753644E+02  0.00000000000E+00 0.  1.
         22    1    3    3    0    0 -0.48861078087E+01 -0.42965064938E+02 -0.62088718182E+02  0.75662935312E+02  0.00000000000E+00 0.  1.
</event>
<event>
 7    1  0.6681656E-006  0.9077195E+02  0.7818608E-02  0.1328862E+00
          2   -1    0    0  502    0  0.00000000000E+00  0.00000000000E+00  0.68525119116E+03  0.68525119116E+03  0.00000000000E+00 0. -1.
          1   -1    0    0  501    0 -0.00000000000E+00 -0.00000000000E+00 -0.39273926897E+04  0.39273926897E+04  0.00000000000E+00 0. -1.
         25    2    1    2    0    0  0.36666393263E+02 -0.14207104415E+03 -0.62108663650E+03  0.65030897742E+03  0.12499820037E+03 0.  0.
          2    1    1    2  501    0 -0.47590731258E+02  0.52181369326E+02 -0.32882573933E+04  0.32890157277E+04  0.00000000000E+00 0. -1.
          1    1    1    2  502    0  0.10924337995E+02  0.89889674822E+02  0.66720253118E+03  0.67331917574E+03  0.00000000000E+00 0. -1.
         22    1    3    3    0    0  0.84845770937E+01  0.13879802749E+02 -0.19546681965E+03  0.19614258731E+03  0.00000000000E+00 0. -1.
         22    1    3    3    0    0  0.28181816169E+02 -0.15595084690E+03 -0.42561981685E+03  0.45416639011E+03  0.00000000000E+00 0. -1.
</event>
<event>
 7    1  0.6681656E-006  0.1131070E+03  0.7818608E-02  0.1358769E+00
          2   -1    0    0  502    0  0.00000000000E+00  0.00000000000E+00  0.25496337088E+04  0.25496337088E+04  0.00000000000E+00 0. -1.
          1   -1    0    0  501    0 -0.00000000000E+00 -0.00000000000E+00 -0.29110178606E+03  0.29110178606E+03  0.00000000000E+00 0. -1.
         25    2    1    2    0    0 -0.20071112941E+02 -0.13134193819E+03  0.25275401030E+03  0.31171258587E+03  0.12500636848E+03 0.  0.
          2    1    1    2  501    0  0.50995972900E+02  0.10031447455E+03 -0.24929891579E+03  0.27352062532E+03  0.00000000000E+00 0. -1.
          1    1    1    2  502    0 -0.30924859959E+02  0.31027463631E+02  0.22550768282E+04  0.22555022836E+04  0.00000000000E+00 0. -1.
         22    1    3    3    0    0  0.23403267069E+02 -0.58609892816E+02  0.20489995389E+03  0.21439874895E+03  0.00000000000E+00 0.  1.
         22    1    3    3    0    0 -0.43474380010E+02 -0.72732045369E+02  0.47854056413E+02  0.97313836919E+02  0.00000000000E+00 0.  1.
</event>
<event>
 7    1  0.6681656E-006  0.4027226E+02  0.7818608E-02  0.1555219E+00
          2   -1    0    0  502    0  0.00000000000E+00  0.00000000000E+00  0.16608494085E+03  0.16608494085E+03  0.00000000000E+00 0. -1.
          1   -1    0    0  501    0 -0.00000000000E+00 -0.00000000000E+00 -0.11979513463E+04  0.11979513463E+04  0.00000000000E+00 0. -1.
         25    2    1    2    0    0 -0.20513805193E+02 -0.52548459359E+02  0.67657923620E+01  0.13732980414E+03  0.12502616676E+03 0.  0.
          2    1    1    2  501    0  0.31182660962E+02  0.25415492469E+02 -0.11300429966E+04  0.11307588071E+04  0.00000000000E+00 0. -1.
          1    1    1    2  502    0 -0.10668855769E+02  0.27132966889E+02  0.91410798809E+02  0.95947675921E+02  0.00000000000E+00 0. -1.
         22    1    3    3    0    0  0.43324879691E+02 -0.22999905585E+02 -0.30462263457E+02  0.57740716587E+02  0.00000000000E+00 0.  1.
         22    1    3    3    0    0 -0.63838684883E+02 -0.29548553774E+02  0.37228055819E+02  0.79589087555E+02  0.00000000000E+00 0.  1.
</event>
<event>
 7    1  0.6681656E-006  0.3809382E+02  0.7818608E-02  0.1581385E+00
          2   -1    0    0  502    0  0.00000000000E+00  0.00000000000E+00  0.43518400829E+03  0.43518400829E+03  0.00000000000E+00 0. -1.
          1   -1    0    0  501    0 -0.00000000000E+00 -0.00000000000E+00 -0.53912928277E+03  0.53912928277E+03  0.00000000000E+00 0. -1.
         25    2    1    2    0    0  0.53466317525E+02 -0.20341581818E+02 -0.13639867878E+03  0.19365614317E+03  0.12500270058E+03 0.  0.
          2    1    1    2  501    0 -0.27784829469E+02  0.25315587109E+02 -0.37273486817E+03  0.37462535639E+03  0.00000000000E+00 0. -1.
          1    1    1    2  502    0 -0.25681488056E+02 -0.49740052910E+01  0.40518827248E+03  0.40603179151E+03  0.00000000000E+00 0. -1.
         22    1    3    3    0    0  0.83871088477E+01  0.42377089049E+02 -0.81744063503E+01  0.43965693333E+02  0.00000000000E+00 0. -1.
         22    1    3    3    0    0  0.45079208677E+02 -0.62718670867E+02 -0.12822427243E+03  0.14969044983E+03  0.00000000000E+00 0. -1.
</event>
<event>
 7    1  0.6681656E-006  0.5338410E+02  0.7818608E-02  0.1508276E+00
          2   -1    0    0  502    0  0.00000000000E+00  0.00000000000E+00  0.21051499797E+03  0.21051499797E+03  0.00000000000E+00 0. -1.
          1   -1    0    0  501    0 -0.00000000000E+00 -0.00000000000E+00 -0.62122731181E+03  0.62122731181E+03  0.00000000000E+00 0. -1.
         25    2    1    2    0    0  0.25011166002E+02  0.55034010260E+02 -0.36562907660E+02  0.14358371359E+03  0.12500054352E+03 0.  0.
          2    1    1    2  501    0 -0.29901124156E+02 -0.18506356672E+01 -0.52617367991E+03  0.52702584710E+03  0.00000000000E+00 0. -1.
          1    1    1    2  502    0  0.48899581538E+01 -0.53183374593E+02  0.15202427373E+03  0.16113274909E+03  0.00000000000E+00 0. -1.
         22    1    3    3    0    0  0.82754569171E+01 -0.11344043189E+02  0.39102648718E+02  0.41547414358E+02  0.00000000000E+00 0.  1.
         22    1    3    3    0    0  0.16735709085E+02  0.66378053448E+02 -0.75665556378E+02  0.10203629923E+03  0.00000000000E+00 0.  1.
</event>
<event>
 7    1  0.6681656E-006  0.1210109E+03  0.7818608E-02  0.1316011E+00
          2   -1    0    0  502    0  0.00000000000E+00  0.00000000000E+00  0.41354994682E+03  0.41354994682E+03  0.00000000000E+00 0. -1.
          1   -1    0    0  501    0 -0.00000000000E+00 -0.00000000000E+00 -0.92108071358E+03  0.92108071358E+03  0.00000000000E+00 0. -1.
         25    2    1    2    0    0  0.74050578600E+02  0.24612722758E+02 -0.90386238715E+01  0.14763490872E+03  0.12500038096E+03 0.  0.
          2    1    1    2  501    0 -0.94799899737E+02 -0.80265859666E+02 -0.83555603324E+03  0.84473872523E+03  0.00000000000E+00 0. -1.
          1    1    1    2  502    0  0.20749321137E+02  0.55653136908E+02  0.33706389035E+03  0.34225702645E+03  0.00000000000E+00 0. -1.
         22    1    3    3    0    0  0.38159244913E+02  0.33918834525E+02  0.54117090165E+02  0.74399427120E+02  0.00000000000E+00 0. -1.
         22    1    3    3    0    0  0.35891333687E+02 -0.93061117673E+01 -0.63155714036E+02  0.73235481602E+02  0.00000000000E+00 0. -1.
</event>
<event>
 7    1  0.6681656E-006  0.9103733E+02  0.7818608E-02  0.1476722E+00
          2   -1    0    0  502    0  0.00000000000E+00  0.00000000000E+00  0.12629190710E+04  0.12629190710E+04  0.00000000000E+00 0. -1.
          1   -1    0    0  501    0 -0.00000000000E+00 -0.00000000000E+00 -0.85118613608E+02  0.85118613608E+02  0.00000000000E+00 0. -1.
         25    2    1    2    0    0  0.14741484924E+02  0.82325993817E+02  0.22107294313E+03  0.26738060737E+03  0.12499704947E+03 0.  0.
          2    1    1    2  501    0 -0.19735721336E+02  0.94244496961E+01 -0.57891971369E+02  0.61885372244E+02  0.00000000000E+00 0. -1.
          1    1    1    2  502    0  0.49942364116E+01 -0.91750443513E+02  0.10146194857E+04  0.10187717050E+04  0.00000000000E+00 0. -1.
         22    1    3    3    0    0  0.27668861092E+02 -0.19822032362E+02  0.15365800771E+02  0.37344165200E+02  0.00000000000E+00 0.  1.
         22    1    3    3    0    0 -0.12927376168E+02  0.10214802618E+03  0.20570714236E+03  0.23003644217E+03  0.00000000000E+00 0.  1.
</event>
<event>
 7    1  0.6681656E-006  0.1323688E+03  0.7818608E-02  0.1257545E+00
          2   -1    0    0  502    0  0.00000000000E+00  0.00000000000E+00  0.45204123621E+03  0.45204123621E+03  0.00000000000E+00 0. -1.
          1   -1    0    0  501    0 -0.00000000000E+00 -0.00000000000E+00 -0.87053131981E+03  0.87053131981E+03  0.00000000000E+00 0. -1.
         25    2    1    2    0    0  0.49806639408E+02  0.27418720885E+02 -0.10448181698E+03  0.17254764158E+03  0.12499500371E+03 0.  0.
          2    1    1    2  501    0 -0.11656279426E+03 -0.93844097383E+02 -0.71890804731E+03  0.73431762890E+03  0.00000000000E+00 0. -1.
          1    1    1    2  502    0  0.66756154847E+02  0.66425376498E+02  0.40489978069E+03  0.41570728555E+03  0.00000000000E+00 0. -1.
         22    1    3    3    0    0 -0.18290603100E+02 -0.21133267190E+02 -0.80991024314E+02  0.85677926932E+02  0.00000000000E+00 0. -1.
         22    1    3    3    0    0  0.68097242508E+02  0.48551988075E+02 -0.23490792662E+02  0.86869714648E+02  0.00000000000E+00 0. -1.
</event>
<event>
 7    1  0.6681656E-006  0.1732120E+03  0.7818608E-02  0.1213082E+00
          2   -1    0    0  502    0  0.00000000000E+00  0.00000000000E+00  0.29189868691E+04  0.29189868691E+04  0.00000000000E+00 0. -1.
          1   -1    0    0  501    0 -0.00000000000E+00 -0.00000000000E+00 -0.65611247097E+03  0.65611247097E+03  0.00000000000E+00 0. -1.
         25    2    1    2    0    0  0.23128040712E+03  0.36399294795E+02  0.27863562128E+03  0.38480908811E+03  0.12499875787E+03 0.  0.
          2    1    1    2  501    0 -0.16308873482E+03  0.54273665671E+02 -0.58950256595E+03  0.61404954318E+03  0.00000000000E+00 0. -1.
          1    1    1    2  502    0 -0.68191672295E+02 -0.90672960466E+02  0.25737413428E+04  0.25762407088E+04  0.00000000000E+00 0. -1.
         22    1    3    3    0    0  0.23158589662E+03  0.37623957070E+02  0.29019752089E+03  0.37317849722E+03  0.00000000000E+00 0. -1.
         22    1    3    3    0    0 -0.30548950482E+00 -0.12246622752E+01 -0.11561899616E+02  0.11630590882E+02  0.00000000000E+00 0. -1.
</event>
<event>
 7    1  0.6681656E-006  0.1470967E+03  0.7818608E-02  0.1363013E+00
          2   -1    0    0  502    0  0.00000000000E+00  0.00000000000E+00  0.16460509006E+04  0.16460509006E+04  0.00000000000E+00 0. -1.
          1   -1    0    0  501    0 -0.00000000000E+00 -0.00000000000E+00 -0.89492556552E+02  0.89492556552E+02  0.00000000000E+00 0. -1.
         25    2    1    2    0    0 -0.13165042927E+03 -0.30177541757E+02  0.32315434166E+03  0.37188904165E+03  0.12502084312E+03 0.  0.
          2    1    1    2  501    0  0.15063129028E+03  0.37889553733E+01  0.22541531782E+02  0.15235571027E+03  0.00000000000E+00 0. -1.
          1    1    1    2  502    0 -0.18980861012E+02  0.26388586383E+02  0.12108624706E+04  0.12112987052E+04  0.00000000000E+00 0. -1.
         22    1    3    3    0    0 -0.11033375314E+02  0.40096242663E+02  0.49217295010E+02  0.64434355545E+02  0.00000000000E+00 0.  1.
         22    1    3    3    0    0 -0.12061705396E+03 -0.70273784419E+02  0.27393704665E+03  0.30745468610E+03  0.00000000000E+00 0.  1.
</event>
<event>
 7    1  0.6681656E-006  0.8570055E+02  0.7818608E-02  0.1365040E+00
          2   -1    0    0  502    0  0.00000000000E+00  0.00000000000E+00  0.93367021959E+03  0.93367021959E+03  0.00000000000E+00 0. -1.
          1   -1    0    0  501    0 -0.00000000000E+00 -0.00000000000E+00 -0.66505968838E+02  0.66505968838E+02  0.00000000000E+00 0. -1.
         25    2    1    2    0    0 -0.33627825859E+01  0.87788566711E+02  0.79441322351E+02  0.17220318075E+03  0.12499948405E+03 0.  0.
          2    1    1    2  501    0 -0.50366791029E+02 -0.76727036045E+02  0.91525646736E+02  0.12961788345E+03  0.00000000000E+00 0. -1.
          1    1    1    2  502    0  0.53729573615E+02 -0.11061530666E+02  0.69619728166E+03  0.69835512423E+03  0.00000000000E+00 0. -1.
         22    1    3    3    0    0  0.28037982261E+02  0.10924877820E+03  0.46912543687E+02  0.12215650103E+03  0.00000000000E+00 0.  1.
         22    1    3    3    0    0 -0.31400764847E+02 -0.21460211490E+02  0.32528778664E+02  0.50046679726E+02  0.00000000000E+00 0.  1.
</event>
<event>
 7    1  0.6681656E-006  0.3806368E+02  0.7818608E-02  0.1619417E+00
          2   -1    0    0  502    0  0.00000000000E+00  0.00000000000E+00  0.15720520847E+04  0.15720520847E+04  0.00000000000E+00 0. -1.
          1   -1    0    0  501    0 -0.00000000000E+00 -0.00000000000E+00 -0.35823928068E+03  0.35823928068E+03  0.00000000000E+00 0. -1.
         25    2    1    2    0    0  0.13733524806E+02 -0.14555840176E+02  0.30606753358E+02  0.13023285139E+03  0.12499335999E+03 0.  0.
          2    1    1    2  501    0  0.20750439523E+02 -0.17828505369E+01 -0.30783026064E+03  0.30853399919E+03  0.00000000000E+00 0. -1.
          1    1    1    2  502    0 -0.34483964329E+02  0.16338690713E+02  0.14910363113E+04  0.14915245148E+04  0.00000000000E+00 0. -1.
         22    1    3    3    0    0 -0.35692894929E+02 -0.38682557757E+02 -0.19205369038E+02  0.56028289488E+02  0.00000000000E+00 0. -1.
         22    1    3    3    0    0  0.49426419735E+02  0.24126717581E+02  0.49812122396E+02  0.74204561899E+02  0.00000000000E+00 0. -1.
</event>
<event>
 7    1  0.6681656E-006  0.1968184E+03  0.7818608E-02  0.1291670E+00
          2   -1    0    0  502    0  0.00000000000E+00  0.00000000000E+00  0.12231155489E+04  0.12231155489E+04  0.00000000000E+00 0. -1.
          1   -1    0    0  501    0 -0.00000000000E+00 -0.00000000000E+00 -0.60671530877E+03  0.60671530877E+03  0.00000000000E+00 0. -1.
         25    2    1    2    0    0 -0.14438013537E+03  0.10200427394E+03  0.26242915199E+03  0.34023055334E+03  0.12504908725E+03 0.  0.
          2    1    1    2  501    0  0.13363471380E+03 -0.14636458763E+03 -0.54992647632E+03  0.58455107442E+03  0.00000000000E+00 0. -1.
          1    1    1    2  502    0  0.10745421568E+02  0.44360313697E+02  0.90389756451E+03  0.90504922995E+03  0.00000000000E+00 0. -1.
         22    1    3    3    0    0 -0.11915150736E+03  0.41817114283E+02  0.87786457845E+02  0.15379276619E+03  0.00000000000E+00 0. -1.
         22    1    3    3    0    0 -0.25228628014E+02  0.60187159654E+02  0.17464269415E+03  0.18643778715E+03  0.00000000000E+00 0. -1.
</event>
<event>
 7    1  0.6681656E-006  0.5346280E+02  0.7818608E-02  0.1462292E+00
          2   -1    0    0  502    0  0.00000000000E+00  0.00000000000E+00  0.16396597199E+04  0.16396597199E+04  0.00000000000E+00 0. -1.
          1   -1    0    0  501    0 -0.00000000000E+00 -0.00000000000E+00 -0.26173343880E+02  0.26173343880E+02  0.00000000000E+00 0. -1.
         25    2    1    2    0    0  0.43646485294E+02  0.81510089731E+02  0.72295899213E+03  0.73948877178E+03  0.12500011549E+03 0.  0.
          2    1    1    2  501    0 -0.21032369759E+02 -0.46952131470E+02  0.20570511123E+02  0.55407663325E+02  0.00000000000E+00 0. -1.
          1    1    1    2  502    0 -0.22614115536E+02 -0.34557958261E+02  0.86995687279E+03  0.87093662871E+03  0.00000000000E+00 0. -1.
         22    1    3    3    0    0 -0.79342041446E+01  0.59150205946E+02  0.12107191041E+03  0.13498187267E+03  0.00000000000E+00 0.  1.
         22    1    3    3    0    0  0.51580689439E+02  0.22359883785E+02  0.60188708172E+03  0.60450689911E+03  0.00000000000E+00 0.  1.
</event>
<event>
 7    1  0.6681656E-006  0.6817281E+02  0.7818608E-02  0.1428908E+00
          2   -1    0    0  502    0  0.00000000000E+00  0.00000000000E+00  0.77123254595E+02  0.77123254595E+02  0.00000000000E+00 0. -1.
          1   -1    0    0  501    0 -0.00000000000E+00 -0.00000000000E+00 -0.31299925148E+03  0.31299925148E+03  0.00000000000E+00 0. -1.
         25    2    1    2    0    0  0.43448897005E+02 -0.55025949843E+02 -0.18683713890E+03  0.23547600382E+03  0.12500068038E+03 0.  0.
          2    1    1    2  501    0 -0.68202300837E+02  0.21736166547E+02 -0.76600465787E+02  0.10484105176E+03  0.00000000000E+00 0. -1.
          1    1    1    2  502    0  0.24753403832E+02  0.33289783296E+02  0.27561607812E+02  0.49805450489E+02  0.00000000000E+00 0. -1.
         22    1    3    3    0    0  0.71487460881E+02 -0.25826117867E+02 -0.45794667521E+02  0.88738926073E+02  0.00000000000E+00 0.  1.
         22    1    3    3    0    0 -0.28038563877E+02 -0.29199831976E+02 -0.14104247138E+03  0.14673707775E+03  0.00000000000E+00 0.  1.
</event>
<event>
 7    1  0.6681656E-006  0.1441586E+03  0.7818608E-02  0.1271762E+00
          2   -1    0    0  502    0  0.00000000000E+00  0.00000000000E+00  0.96968743179E+03  0.96968743179E+03  0.00000000000E+00 0. -1.
          1   -1    0    0  501    0 -0.00000000000E+00 -0.00000000000E+00 -0.61110885186E+03  0.61110885186E+03  0.00000000000E+00 0. -1.
         25    2    1    2    0    0 -0.45752736575E+02 -0.65690730122E+02  0.83829869702E+02  0.17047397729E+03  0.12500137980E+03 0.  0.
          2    1    1    2  501    0 -0.53021115620E+02 -0.53432854600E+02 -0.55813325388E+03  0.56318650352E+03  0.00000000000E+00 0. -1.
          1    1    1    2  502    0  0.98773852195E+02  0.11912358472E+03  0.83288196411E+03  0.84713580284E+03  0.00000000000E+00 0. -1.
         22    1    3    3    0    0  0.54180239008E+01 -0.40501723229E+02  0.10259392100E+03  0.11043213841E+03  0.00000000000E+00 0.  1.
         22    1    3    3    0    0 -0.51170760476E+02 -0.25189006893E+02 -0.18764051294E+02  0.60041838887E+02  0.00000000000E+00 0.  1.
</event>
<event>
 7    1  0.6681656E-006  0.9543284E+02  0.7818608E-02  0.1291288E+00
          2   -1    0    0  502    0  0.00000000000E+00  0.00000000000E+00  0.30491937120E+04  0.30491937120E+04  0.00000000000E+00 0. -1.
          1   -1    0    0  501    0 -0.00000000000E+00 -0.00000000000E+00 -0.78100071227E+02  0.78100071227E+02  0.00000000000E+00 0. -1.
         25    2    1    2    0    0 -0.19127640486E+02  0.58152521597E+02  0.84773276784E+02  0.16297168364E+03  0.12500271522E+03 0.  0.
          2    1    1    2  501    0 -0.40379474294E+02 -0.13152521380E+03  0.85664576275E+02  0.16207345075E+03  0.00000000000E+00 0. -1.
          1    1    1    2  502    0  0.59507114779E+02  0.73372692205E+02  0.28006557877E+04  0.28022486488E+04  0.00000000000E+00 0. -1.
         22    1    3    3    0    0  0.32626701930E+01 -0.11874156493E+02  0.88505326511E+02  0.89357895175E+02  0.00000000000E+00 0. -1.
         22    1    3    3    0    0 -0.22390310679E+02  0.70026678090E+02 -0.37320497270E+01  0.73613788463E+02  0.00000000000E+00 0. -1.
</event>
<event>
 7    1  0.6681656E-006  0.1580183E+03  0.7818608E-02  0.1197593E+00
          2   -1    0    0  502    0  0.00000000000E+00  0.00000000000E+00  0.14829448956E+04  0.14829448956E+04  0.00000000000E+00 0. -1.
          1   -1    0    0  501    0 -0.00000000000E+00 -0.00000000000E+00 -0.52904544294E+03  0.52904544294E+03  0.00000000000E+00 0. -1.
         25    2    1    2    0    0 -0.98673391261E+02  0.25564745635E+02  0.28141947790E+03  0.32436194969E+03  0.12499502993E+03 0.  0.
          2    1    1    2  501    0  0.10891820392E+03  0.12099788640E+03 -0.48977545980E+03  0.51612369126E+03  0.00000000000E+00 0. -1.
          1    1    1    2  502    0 -0.10244812658E+02 -0.14656263204E+03  0.11622554345E+04  0.11715046976E+04  0.00000000000E+00 0. -1.
         22    1    3    3    0    0  0.66345565867E+01 -0.27823680727E+02  0.13600454880E+02  0.31672494743E+02  0.00000000000E+00 0.  1.
         22    1    3    3    0    0 -0.10530794785E+03  0.53388426362E+02  0.26781902302E+03  0.29268945495E+03  0.00000000000E+00 0.  1.
</event>
<event>
 7    1  0.6681656E-006  0.1040657E+03  0.7818608E-02  0.1302544E+00
          2   -1    0    0  502    0  0.00000000000E+00  0.00000000000E+00  0.79868712161E+03  0.79868712161E+03  0.00000000000E+00 0. -1.
          1   -1    0    0  501    0 -0.00000000000E+00 -0.00000000000E+00 -0.83536924353E+03  0.83536924353E+03  0.00000000000E+00 0. -1.
         25    2    1    2    0    0 -0.11667992938E+03 -0.10789028564E+03 -0.44935489639E+03  0.49274661926E+03  0.12499955289E+03 0.  0.
          2    1    1    2  501    0  0.83019726505E+02  0.37465533026E+02 -0.35661979346E+03  0.36806740992E+03  0.00000000000E+00 0. -1.
          1    1    1    2  502    0  0.33660202870E+02  0.70424752616E+02  0.76929256794E+03  0.77324233596E+03  0.00000000000E+00 0. -1.
         22    1    3    3    0    0 -0.13344227657E+03 -0.71275831756E+02 -0.40745053112E+03  0.43462975126E+03  0.00000000000E+00 0.  1.
         22    1    3    3    0    0  0.16762347198E+02 -0.36614453887E+02 -0.41904365275E+02  0.58116868000E+02  0.00000000000E+00 0.  1.
</event>
<event>
 7    1  0.6681656E-006  0.1303716E+03  0.7818608E-02  0.1252545E+00
          2   -1    0    0  502    0  0.00000000000E+00  0.00000000000E+00  0.82417620537E+03  0.82417620537E+03  0.00000000000E+00 0. -1.
          1   -1    0    0  501    0 -0.00000000000E+00 -0.00000000000E+00 -0.12069077067E+04  0.12069077067E+04  0.00000000000E+00 0. -1.
         25    2    1    2    0    0 -0.64262611015E+02 -0.62390332140E+02 -0.83682894657E+02  0.17507073233E+03  0.12499879096E+03 0.  0.
          2    1    1    2  501    0  0.71150691621E+02 -0.70938229045E+02 -0.10694349598E+04  0.10741442112E+04  0.00000000000E+00 0. -1.
          1    1    1    2  502    0 -0.68880806059E+01  0.13332856118E+03  0.77038635312E+03  0.78186896853E+03  0.00000000000E+00 0. -1.
         22    1    3    3    0    0 -0.44399989229E+02  0.21494236162E+02 -0.73145701933E+02  0.88225024472E+02  0.00000000000E+00 0.  1.
         22    1    3    3    0    0 -0.19862621786E+02 -0.83884568302E+02 -0.10537192723E+02  0.86845707861E+02  0.00000000000E+00 0.  1.
</event>
<event>
 7    1  0.6681656E-006  0.2121025E+03  0.7818608E-02  0.1268095E+00
          2   -1    0    0  502    0  0.00000000000E+00  0.00000000000E+00  0.36536453590E+03  0.36536453590E+03  0.00000000000E+00 0. -1.
          1   -1    0    0  501    0 -0.00000000000E+00 -0.00000000000E+00 -0.21551265907E+04  0.21551265907E+04  0.00000000000E+00 0. -1.
         25    2    1    2    0    0 -0.24755855082E+03 -0.33301953273E+02 -0.50512604153E+03  0.57721020322E+03  0.12500017878E+03 0.  0.
          2    1    1    2  501    0  0.20555677563E+03  0.96388182127E+00 -0.16052280570E+04  0.16183360689E+04  0.00000000000E+00 0. -1.
          1    1    1    2  502    0  0.42001775194E+02  0.32338071452E+02  0.32059204368E+03  0.32494485449E+03  0.00000000000E+00 0. -1.
         22    1    3    3    0    0 -0.10060689323E+03 -0.75591659059E+02 -0.24636109136E+03  0.27663989810E+03  0.00000000000E+00 0. -1.
         22    1    3    3    0    0 -0.14695165759E+03  0.42289705785E+02 -0.25876495017E+03  0.30057030512E+03  0.00000000000E+00 0. -1.
</event>
<event>
 7    1  0.6681656E-006  0.4131826E+02  0.7818608E-02  0.1502216E+00
          2   -1    0    0  502    0  0.00000000000E+00  0.00000000000E+00  0.33267850776E+03  0.33267850776E+03  0.00000000000E+00 0. -1.
          1   -1    0    0  501    0 -0.00000000000E+00 -0.00000000000E+00 -0.60674025567E+02  0.60674025567E+02  0.00000000000E+00 0. -1.
         25    2    1    2    0    0 -0.12220381902E+01  0.12972818783E+02  0.71077642711E+02  0.14436773608E+03  0.12498089663E+03 0.  0.
          2    1    1    2  501    0 -0.28376576443E+02 -0.40382482620E+02  0.57578882527E+01  0.49690323709E+02  0.00000000000E+00 0. -1.
          1    1    1    2  502    0  0.29598614633E+02  0.27409663837E+02  0.19516895123E+03  0.19929447354E+03  0.00000000000E+00 0. -1.
         22    1    3    3    0    0 -0.59212710858E+02  0.27989859158E+02  0.32480871980E+02  0.73106664453E+02  0.00000000000E+00 0.  1.
         22    1    3    3    0    0  0.57990672668E+02 -0.15017040376E+02  0.38596770730E+02  0.71261071624E+02  0.00000000000E+00 0.  1.
</event>
<event>
 7    1  0.6681656E-006  0.8478835E+02  0.7818608E-02  0.1362575E+00
          2   -1    0    0  502    0  0.00000000000E+00  0.00000000000E+00  0.11083057564E+04  0.11083057564E+04  0.00000000000E+00 0. -1.
          1   -1    0    0  501    0 -0.00000000000E+00 -0.00000000000E+00 -0.38083828626E+03  0.38083828626E+03  0.00000000000E+00 0. -1.
         25    2    1    2    0    0 -0.63582251429E+02  0.90103258682E+02 -0.80914183325E+02  0.18526469872E+03  0.12495840750E+03 0.  0.
          2    1    1    2  501    0  0.56306290350E+02 -0.57646797108E+01 -0.24279223454E+03  0.24930242482E+03  0.00000000000E+00 0. -1.
          1    1    1    2  502    0  0.72759610782E+01 -0.84338578971E+02  0.10511738880E+04  0.10545769191E+04  0.00000000000E+00 0. -1.
         22    1    3    3    0    0 -0.38126345317E+02  0.65823793990E+02 -0.11394944306E+03  0.13700680872E+03  0.00000000000E+00 0.  1.
         22    1    3    3    0    0 -0.25455906112E+02  0.24279464692E+02  0.33035259731E+02  0.48257889999E+02  0.00000000000E+00 0.  1.
</event>
<event>
 7    1  0.6681656E-006  0.1205264E+03  0.7818608E-02  0.1348535E+00
          2   -1    0    0  502    0  0.00000000000E+00  0.00000000000E+00  0.32653431646E+03  0.32653431646E+03  0.00000000000E+00 0. -1.
          1   -1    0    0  501    0 -0.00000000000E+00 -0.00000000000E+00 -0.35903484739E+03  0.35903484739E+03  0.00000000000E+00 0. -1.
         25    2    1    2    0    0  0.58535436103E+02 -0.54629810573E+02 -0.15532849994E+03  0.21485782654E+03  0.12500451691E+03 0.  0.
          2    1    1    2  501    0  0.40828040698E+02 -0.18537934227E+02 -0.15785587774E+03  0.16410076798E+03  0.00000000000E+00 0. -1.
          1    1    1    2  502    0 -0.99363476801E+02  0.73167744800E+02  0.28068384676E+03  0.30661056934E+03  0.00000000000E+00 0. -1.
         22    1    3    3    0    0  0.34914978760E+02 -0.63674927462E+02 -0.17460393930E+02  0.74688804283E+02  0.00000000000E+00 0. -1.
         22    1    3    3    0    0  0.23620457343E+02  0.90451168884E+01 -0.13786810601E+03  0.14016902226E+03  0.00000000000E+00 0. -1.
</event>
<event>
 7    1  0.6681656E-006  0.1390318E+03  0.7818608E-02  0.1233815E+00
          2   -1    0    0  502    0  0.00000000000E+00  0.00000000000E+00  0.73845817433E+03  0.73845817433E+03  0.00000000000E+00 0. -1.
          1   -1    0    0  501    0 -0.00000000000E+00 -0.00000000000E+00 -0.25385536608E+03  0.25385536608E+03  0.00000000000E+00 0. -1.
         25    2    1    2    0    0  0.79982929588E+01 -0.68153063591E+02  0.12363216864E+03  0.18872847018E+03  0.12499883827E+03 0.  0.
          2    1    1    2  501    0  0.90484773236E+02  0.12525198874E+03 -0.18776294505E+03  0.24316759324E+03  0.00000000000E+00 0. -1.
          1    1    1    2  502    0 -0.98483066195E+02 -0.57098925146E+02  0.54873358466E+03  0.56041747699E+03  0.00000000000E+00 0. -1.
         22    1    3    3    0    0 -0.50384564366E+01  0.23106322035E+02 -0.10578421484E+02  0.25907357301E+02  0.00000000000E+00 0. -1.
         22    1    3    3    0    0  0.13036749395E+02 -0.91259385626E+02  0.13421059012E+03  0.16282111288E+03  0.00000000000E+00 0. -1.
</event>
<event>
 7    1  0.6681656E-006  0.6284026E+02  0.7818608E-02  0.1453277E+00
          2   -1    0    0  502    0  0.00000000000E+00  0.00000000000E+00  0.17691099590E+04  0.17691099590E+04  0.00000000000E+00 0. -1.
          1   -1    0    0  501    0 -0.00000000000E+00 -0.00000000000E+00 -0.24754770788E+04  0.24754770788E+04  0.00000000000E+00 0. -1.
         25    2    1    2    0    0 -0.52148673054E+02  0.36882921005E+02 -0.62325753789E+02  0.15358822695E+03  0.12500003964E+03 0.  0.
          2    1    1    2  501    0  0.30321778347E+02  0.22102101574E+02 -0.23667975452E+04  0.23670949565E+04  0.00000000000E+00 0. -1.
          1    1    1    2  502    0  0.21826894707E+02 -0.58985022579E+02  0.17227561792E+04  0.17239038544E+04  0.00000000000E+00 0. -1.
         22    1    3    3    0    0 -0.77184636059E+02 -0.59500210147E+01 -0.68783076892E+02  0.10355666304E+03  0.00000000000E+00 0.  1.
         22    1    3    3    0    0  0.25035963005E+02  0.42832942020E+02  0.64573231029E+01  0.50031563910E+02  0.00000000000E+00 0.  1.
</event>
<event>
 7    1  0.6681656E-006  0.4415297E+02  0.7818608E-02  0.1589759E+00
          2   -1    0    0  502    0  0.00000000000E+00  0.00000000000E+00  0.93819622935E+02  0.93819622935E+02  0.00000000000E+00 0. -1.
          1   -1    0    0  501    0 -0.00000000000E+00 -0.00000000000E+00 -0.39937538845E+03  0.39937538845E+03  0.00000000000E+00 0. -1.
         25    2    1    2    0    0 -0.48793452594E+02 -0.39466047832E+02 -0.19928534932E+03  0.24346817895E+03  0.12499493493E+03 0.  0.
          2    1    1    2  501    0  0.35424315204E+02  0.22705254043E+02 -0.17382848653E+03  0.17884840899E+03  0.00000000000E+00 0. -1.
          1    1    1    2  502    0  0.13369137390E+02  0.16760793789E+02  0.67558070335E+02  0.70878423448E+02  0.00000000000E+00 0. -1.
         22    1    3    3    0    0  0.30098600663E+02  0.11024290560E+02 -0.12296443714E+02  0.34331665737E+02  0.00000000000E+00 0. -1.
         22    1    3    3    0    0 -0.78892053257E+02 -0.50490338392E+02 -0.18698890560E+03  0.20913651321E+03  0.00000000000E+00 0. -1.
</event>
<event>
 7    1  0.6681656E-006  0.3611787E+02  0.7818608E-02  0.1544548E+00
          2   -1    0    0  502    0  0.00000000000E+00  0.00000000000E+00  0.85714950740E+03  0.85714950740E+03  0.00000000000E+00 0. -1.
          1   -1    0    0  501    0 -0.00000000000E+00 -0.00000000000E+00 -0.85178086511E+02  0.85178086511E+02  0.00000000000E+00 0. -1.
         25    2    1    2    0    0 -0.56715043599E+02  0.26490390065E+02  0.10616383576E+02  0.14019860795E+03  0.12499842053E+03 0.  0.
          2    1    1    2  501    0  0.20754355403E+02 -0.27952767521E+02 -0.47863626968E+01  0.35142705476E+02  0.00000000000E+00 0. -1.
          1    1    1    2  502    0  0.35960688195E+02  0.14623774564E+01  0.76614140001E+03  0.76698628049E+03  0.00000000000E+00 0. -1.
         22    1    3    3    0    0 -0.92200224096E+02  0.41592771894E+02  0.98452341367E+01  0.10162562980E+03  0.00000000000E+00 0. -1.
         22    1    3    3    0    0  0.35485180497E+02 -0.15102381829E+02  0.77114943950E+00  0.38572978149E+02  0.00000000000E+00 0. -1.
</event>
<event>
 7    1  0.1185136E-005  0.7497461E+02  0.7818608E-02  0.1365127E+00
          2   -1    0    0  502    0  0.00000000000E+00  0.00000000000E+00  0.17626508771E+04  0.17626508771E+04  0.00000000000E+00 0. -1.
          1   -1    0    0  501    0 -0.00000000000E+00 -0.00000000000E+00 -0.77110413004E+03  0.77110413004E+03  0.00000000000E+00 0. -1.
         25    2    1    2    0    0 -0.90565670282E+02 -0.91882826838E+02 -0.11355715082E+03  0.21251898903E+03  0.12499799877E+03 0.  0.
          2    1    1    2  501    0  0.24014894340E+02  0.57874409447E+02 -0.60563382700E+03  0.60886656570E+03  0.00000000000E+00 0. -1.
          1    1    1    2  502    0  0.66550775942E+02  0.34008417391E+02  0.17107377249E+04  0.17123694524E+04  0.00000000000E+00 0. -1.
         22    1    3    3    0    0 -0.62978995418E+02 -0.11363547657E+03 -0.48681070357E+02  0.13874156554E+03  0.00000000000E+00 0. -1.
         22    1    3    3    0    0 -0.27586674864E+02  0.21752649730E+02 -0.64876080462E+02  0.73777423488E+02  0.00000000000E+00 0. -1.
</event>
<event>
 7    1  0.6681656E-006  0.9764115E+02  0.7818608E-02  0.1325831E+00
          2   -1    0    0  502    0  0.00000000000E+00  0.00000000000E+00  0.11133134311E+04  0.11133134311E+04  0.00000000000E+00 0. -1.
          1   -1    0    0  501    0 -0.00000000000E+00 -0.00000000000E+00 -0.13211120143E+04  0.13211120143E+04  0.00000000000E+00 0. -1.
         25    2    1    2    0    0  0.62986632736E+02  0.14458393085E+03 -0.12488091461E+03  0.23683986815E+03  0.12500420531E+03 0.  0.
          2    1    1    2  501    0 -0.44549961063E+01 -0.67289495120E+02 -0.11370278223E+04  0.11390258961E+04  0.00000000000E+00 0. -1.
          1    1    1    2  502    0 -0.58531636629E+02 -0.77294435734E+02  0.10541101538E+04  0.10585596812E+04  0.00000000000E+00 0. -1.
         22    1    3    3    0    0 -0.33021661527E+02  0.68873289696E+02 -0.29941281601E+02  0.82039261988E+02  0.00000000000E+00 0.  1.
         22    1    3    3    0    0  0.96008294263E+02  0.75710641158E+02 -0.94939633011E+02  0.15480060616E+03  0.00000000000E+00 0.  1.
</event>
<event>
 7    1  0.6681656E-006  0.1605128E+03  0.7818608E-02  0.1371245E+00
          2   -1    0    0  502    0  0.00000000000E+00  0.00000000000E+00  0.16191200295E+04  0.16191200295E+04  0.00000000000E+00 0. -1.
          1   -1    0    0  501    0 -0.00000000000E+00 -0.00000000000E+00 -0.27123639729E+03  0.27123639729E+03  0.00000000000E+00 0. -1.
         25    2    1    2    0    0 -0.18338569425E+02 -0.14324816799E+03  0.94503043132E+02  0.21309844405E+03  0.12499512364E+03 0.  0.
          2    1    1    2  501    0 -0.13845506747E+00  0.16404402405E+03 -0.18004030156E+03  0.24356718002E+03  0.00000000000E+00 0. -1.
          1    1    1    2  502    0  0.18477024493E+02 -0.20795856053E+02  0.14334208906E+04  0.14336908027E+04  0.00000000000E+00 0. -1.
         22    1    3    3    0    0 -0.53555231319E+02 -0.20185504909E+02  0.61462268901E+01  0.57562084005E+02  0.00000000000E+00 0.  1.
         22    1    3    3    0    0  0.35216661894E+02 -0.12306266308E+03  0.88356816242E+02  0.15553636005E+03  0.00000000000E+00 0.  1.
</event>
<event>
 7    1  0.6681656E-006  0.8216982E+02  0.7818608E-02  0.1424202E+00
          2   -1    0    0  502    0  0.00000000000E+00  0.00000000000E+00  0.84010329902E+03  0.84010329902E+03  0.00000000000E+00 0. -1.
          1   -1    0    0  501    0 -0.00000000000E+00 -0.00000000000E+00 -0.62534591284E+03  0.62534591284E+03  0.00000000000E+00 0. -1.
         25    2    1    2    0    0 -0.42462695811E+02  0.95639551275E+02 -0.35143188985E+02  0.16676436313E+03  0.12500121909E+03 0.  0.
          2    1    1    2  501    0  0.53073510275E+02 -0.61580213967E+02 -0.52082632265E+03  0.52713279030E+03  0.00000000000E+00 0. -1.
          1    1    1    2  502    0 -0.10610814464E+02 -0.34059337309E+02  0.77072689782E+03  0.77155205843E+03  0.00000000000E+00 0. -1.
         22    1    3    3    0    0 -0.50276176191E+02  0.61621825874E+02  0.36169590777E+02  0.87368086928E+02  0.00000000000E+00 0.  1.
         22    1    3    3    0    0  0.78134803806E+01  0.34017725402E+02 -0.71312779762E+02  0.79396276201E+02  0.00000000000E+00 0.  1.
</event>
<event>
 7    1  0.6681656E-006  0.1124369E+03  0.7818608E-02  0.1325386E+00
          2   -1    0    0  502    0  0.00000000000E+00  0.00000000000E+00  0.32023376030E+03  0.32023376030E+03  0.00000000000E+00 0. -1.
          1   -1    0    0  501    0 -0.00000000000E+00 -0.00000000000E+00 -0.19197554268E+04  0.19197554268E+04  0.00000000000E+00 0. -1.
         25    2    1    2    0    0 -0.20321033609E+02  0.87995596609E+02 -0.47414345966E+03  0.49858781553E+03  0.12498647936E+03 0.  0.
          2    1    1    2  501    0  0.79111056344E+02 -0.88717194746E+02 -0.14280921988E+04  0.14330305747E+04  0.00000000000E+00 0. -1.
          1    1    1    2  502    0 -0.58790022735E+02  0.72159813690E+00  0.30271399191E+03  0.30837079689E+03  0.00000000000E+00 0. -1.
         22    1    3    3    0    0  0.42512612755E+02  0.36990075847E+02 -0.91352703684E+02  0.10733547608E+03  0.00000000000E+00 0. -1.
         22    1    3    3    0    0 -0.62833646363E+02  0.51005520763E+02 -0.38279075598E+03  0.39125233945E+03  0.00000000000E+00 0. -1.
</event>
<event>
 7    1  0.6681656E-006  0.6616424E+02  0.7818608E-02  0.1473882E+00
          2   -1    0    0  502    0  0.00000000000E+00  0.00000000000E+00  0.17930850795E+04  0.17930850795E+04  0.00000000000E+00 0. -1.
          1   -1    0    0  501    0 -0.00000000000E+00 -0.00000000000E+00 -0.12875798664E+04  0.12875798664E+04  0.00000000000E+00 0. -1.
         25    2    1    2    0    0  0.12786428550E+01  0.38009080728E+02  0.32674935058E+03  0.35190461775E+03  0.12500158696E+03 0.  0.
          2    1    1    2  501    0 -0.18046442918E+02 -0.63732648979E+02 -0.12739795879E+04  0.12757004017E+04  0.00000000000E+00 0. -1.
          1    1    1    2  502    0  0.16767800063E+02  0.25723568250E+02  0.14527354504E+04  0.14530599264E+04  0.00000000000E+00 0. -1.
         22    1    3    3    0    0  0.52656560056E+02  0.15374753908E+02  0.69188264312E+02  0.88295596114E+02  0.00000000000E+00 0.  1.
         22    1    3    3    0    0 -0.51377917201E+02  0.22634326820E+02  0.25756108627E+03  0.26360902163E+03  0.00000000000E+00 0.  1.
</event>
<event>
 7    1  0.6681656E-006  0.1816733E+03  0.7818608E-02  0.1284785E+00
          2   -1    0    0  502    0  0.00000000000E+00  0.00000000000E+00  0.45966339286E+03  0.45966339286E+03  0.00000000000E+00 0. -1.
          1   -1    0    0  501    0 -0.00000000000E+00 -0.00000000000E+00 -0.68570064393E+03  0.68570064393E+03  0.00000000000E+00 0. -1.
         25    2    1    2    0    0 -0.17167596592E+03  0.35068586909E+02 -0.38576332523E+03  0.44174590554E+03  0.12499463553E+03 0.  0.
          2    1    1    2  501    0  0.11249108369E+02  0.51538075603E+02 -0.24981878052E+03  0.25532751277E+03  0.00000000000E+00 0. -1.
          1    1    1    2  502    0  0.16042685755E+03 -0.86606662511E+02  0.40954485469E+03  0.44829061848E+03  0.00000000000E+00 0. -1.
         22    1    3    3    0    0 -0.13923994352E+03  0.75503935562E+02 -0.24501229912E+03  0.29175269129E+03  0.00000000000E+00 0. -1.
         22    1    3    3    0    0 -0.32436022393E+02 -0.40435348653E+02 -0.14075102611E+03  0.14999321425E+03  0.00000000000E+00 0. -1.
</event>
<event>
 7    1  0.6681656E-006  0.1610196E+03  0.7818608E-02  0.1330648E+00
          2   -1    0    0  502    0  0.00000000000E+00  0.00000000000E+00  0.14727621951E+04  0.14727621951E+04  0.00000000000E+00 0. -1.
          1   -1    0    0  501    0 -0.00000000000E+00 -0.00000000000E+00 -0.51001261101E+03  0.51001261101E+03  0.00000000000E+00 0. -1.
         25    2    1    2    0    0  0.11833020776E+03  0.15585334073E+03  0.31959326651E+03  0.39504336761E+03  0.12500841734E+03 0.  0.
          2    1    1    2  501    0 -0.84991739732E+02 -0.13524777155E+03 -0.45842273057E+03  0.48545541035E+03  0.00000000000E+00 0. -1.
          1    1    1    2  502    0 -0.33338468031E+02 -0.20605569179E+02  0.11015790481E+04  0.11022760282E+04  0.00000000000E+00 0. -1.
         22    1    3    3    0    0  0.12465071196E+03  0.14155563881E+03  0.32719011286E+03  0.37766277130E+03  0.00000000000E+00 0. -1.
         22    1    3    3    0    0 -0.63205041933E+01  0.14297701926E+02 -0.75968463521E+01  0.17380596311E+02  0.00000000000E+00 0. -1.
</event>
<event>
 7    1  0.6681656E-006  0.1420193E+03  0.7818608E-02  0.1311059E+00
          2   -1    0    0  502    0  0.00000000000E+00  0.00000000000E+00  0.25320566304E+04  0.25320566304E+04  0.00000000000E+00 0. -1.
          1   -1    0    0  501    0 -0.00000000000E+00 -0.00000000000E+00 -0.89871530449E+02  0.89871530449E+02  0.00000000000E+00 0. -1.
         25    2    1    2    0    0  0.42293762783E+02  0.91034246859E+02  0.36267588400E+03  0.39652729240E+03  0.12499640120E+03 0.  0.
          2    1    1    2  501    0 -0.45006821043E+02 -0.14388704282E+03  0.56510859390E+01  0.15086759030E+03  0.00000000000E+00 0. -1.
          1    1    1    2  502    0  0.27130582602E+01  0.52852795958E+02  0.20738581300E+04  0.20745332781E+04  0.00000000000E+00 0. -1.
         22    1    3    3    0    0  0.56157174281E+01 -0.12793739146E+02  0.19760687075E+03  0.19810020548E+03  0.00000000000E+00 0. -1.
         22    1    3    3    0    0  0.36678045354E+02  0.10382798600E+03  0.16506901326E+03  0.19842708693E+03  0.00000000000E+00 0. -1.
</event>
<event>
 7    1  0.6681656E-006  0.1556271E+03  0.7818608E-02  0.1325961E+00
          2   -1    0    0  502    0  0.00000000000E+00  0.00000000000E+00  0.17068281288E+03  0.17068281288E+03  0.00000000000E+00 0. -1.
          1   -1    0    0  501    0 -0.00000000000E+00 -0.00000000000E+00 -0.16308478311E+04  0.16308478311E+04  0.00000000000E+00 0. -1.
         25    2    1    2    0    0 -0.15352432254E+03 -0.20069659634E+02 -0.28918432319E+03  0.35103344420E+03  0.12499758925E+03 0.  0.
          2    1    1    2  501    0  0.95806442941E+01 -0.41161273627E+02 -0.12665055890E+04  0.12672104979E+04  0.00000000000E+00 0. -1.
          1    1    1    2  502    0  0.14394367824E+03  0.61230933261E+02  0.95524893976E+02  0.18328670182E+03  0.00000000000E+00 0. -1.
         22    1    3    3    0    0 -0.29643914219E+01  0.31448935648E+02 -0.94206589052E+02  0.99361484443E+02  0.00000000000E+00 0.  1.
         22    1    3    3    0    0 -0.15055993112E+03 -0.51518595282E+02 -0.19497773413E+03  0.25167195975E+03  0.00000000000E+00 0.  1.
</event>
<event>
 7    1  0.6681656E-006  0.5024170E+02  0.7818608E-02  0.1499886E+00
          2   -1    0    0  502    0  0.00000000000E+00  0.00000000000E+00  0.13770625887E+04  0.13770625887E+04  0.00000000000E+00 0. -1.
          1   -1    0    0  501    0 -0.00000000000E+00 -0.00000000000E+00 -0.90612213764E+02  0.90612213764E+02  0.00000000000E+00 0. -1.
         25    2    1    2    0    0 -0.93538403397E+01  0.15151656132E+02  0.18486767969E+03  0.22386943477E+03  0.12499759125E+03 0.  0.
          2    1    1    2  501    0 -0.10362234654E+02  0.32078269927E+02 -0.66524155878E+02  0.74577842714E+02  0.00000000000E+00 0. -1.
          1    1    1    2  502    0  0.19716074994E+02 -0.47229926060E+02  0.11681068511E+04  0.11692275250E+04  0.00000000000E+00 0. -1.
         22    1    3    3    0    0  0.76111827034E+01  0.82291824095E+01  0.19987250580E+03  0.20018658326E+03  0.00000000000E+00 0.  1.
         22    1    3    3    0    0 -0.16965023043E+02  0.69224737228E+01 -0.15004826102E+02  0.23682851510E+02  0.00000000000E+00 0.  1.
</event>
<event>
 7    1  0.6681656E-006  0.2473809E+03  0.7818608E-02  0.1269450E+00
          2   -1    0    0  502    0  0.00000000000E+00  0.00000000000E+00  0.32068225188E+03  0.32068225188E+03  0.00000000000E+00 0. -1.
          1   -1    0    0  501    0 -0.00000000000E+00 -0.00000000000E+00 -0.56685973193E+03  0.56685973193E+03  0.00000000000E+00 0. -1.
         25    2    1    2    0    0  0.10777712128E+01 -0.27049253298E+03 -0.14042234565E+03  0.32941412830E+03  0.12501144258E+03 0.  0.
          2    1    1    2  501    0 -0.32389328901E+02  0.31033051827E+02 -0.26505398020E+03  0.26882286240E+03  0.00000000000E+00 0. -1.
          1    1    1    2  502    0  0.31311557688E+02  0.23945948116E+03  0.15929884579E+03  0.28930499310E+03  0.00000000000E+00 0. -1.
         22    1    3    3    0    0  0.33790889796E+02 -0.25228081502E+03 -0.97783822613E+02  0.27267033177E+03  0.00000000000E+00 0. -1.
         22    1    3    3    0    0 -0.32713118583E+02 -0.18211717960E+02 -0.42638523032E+02  0.56743796532E+02  0.00000000000E+00 0. -1.
</event>
<event>
 7    1  0.6681656E-006  0.7316366E+02  0.7818608E-02  0.1357128E+00
          2   -1    0    0  502    0  0.00000000000E+00  0.00000000000E+00  0.19967397987E+04  0.19967397987E+04  0.00000000000E+00 0. -1.
          1   -1    0    0  501    0 -0.00000000000E+00 -0.00000000000E+00 -0.15138360650E+03  0.15138360650E+03  0.00000000000E+00 0. -1.
         25    2    1    2    0    0 -0.23591371864E+02  0.32769155847E+02  0.41702325068E+02  0.13781895643E+03  0.12499844173E+03 0.  0.
          2    1    1    2  501    0  0.74660903031E+02  0.19621908333E+02 -0.88100084338E+02  0.11713622236E+03  0.00000000000E+00 0. -1.
          1    1    1    2  502    0 -0.51069531167E+02 -0.52391064180E+02  0.18917539514E+04  0.18931682264E+04  0.00000000000E+00 0. -1.
         22    1    3    3    0    0  0.31225096066E+02  0.36282679776E+02  0.62811995514E+02  0.78973326234E+02  0.00000000000E+00 0.  1.
         22    1    3    3    0    0 -0.54816467930E+02 -0.35135239288E+01 -0.21109670445E+02  0.58845630195E+02  0.00000000000E+00 0.  1.
</event>
<event>
 7    1  0.6681656E-006  0.1896789E+03  0.7818608E-02  0.1187902E+00
          2   -1    0    0  502    0  0.00000000000E+00  0.00000000000E+00  0.21138066527E+03  0.21138066527E+03  0.00000000000E+00 0. -1.
          1   -1    0    0  501    0 -0.00000000000E+00 -0.00000000000E+00 -0.98653340138E+03  0.98653340138E+03  0.00000000000E+00 0. -1.
         25    2    1    2    0    0 -0.29146648772E+03 -0.55339264018E+02 -0.41594591913E+03  0.52596780803E+03  0.12496391412E+03 0.  0.
          2    1    1    2  501    0  0.16290642756E+03  0.10489670029E+02 -0.46927831693E+03  0.49686082162E+03  0.00000000000E+00 0. -1.
          1    1    1    2  502    0  0.12856006016E+03  0.44849593989E+02  0.11007149995E+03  0.17508543701E+03  0.00000000000E+00 0. -1.
         22    1    3    3    0    0 -0.64467947129E+01  0.24544809012E+02 -0.41657303997E+02  0.48778476686E+02  0.00000000000E+00 0. -1.
         22    1    3    3    0    0 -0.28501969301E+03 -0.79884073030E+02 -0.37428861513E+03  0.47718933134E+03  0.00000000000E+00 0. -1.
</event>
<event>
 7    1  0.6681656E-006  0.1477955E+03  0.7818608E-02  0.1339898E+00
          2   -1    0    0  502    0  0.00000000000E+00  0.00000000000E+00  0.43111954419E+02  0.43111954419E+02  0.00000000000E+00 0. -1.
          1   -1    0    0  501    0 -0.00000000000E+00 -0.00000000000E+00 -0.11027473818E+04  0.11027473818E+04  0.00000000000E+00 0. -1.
         25    2    1    2    0    0  0.11294599051E+03 -0.76940808250E+02 -0.58154277671E+03  0.61032297001E+03  0.12500176731E+03 0.  0.
          2    1    1    2  501    0 -0.11649631184E+02 -0.37625834387E+02 -0.29211321637E+03  0.29475676158E+03  0.00000000000E+00 0. -1.
          1    1    1    2  502    0 -0.10129635933E+03  0.11456664264E+03 -0.18597943428E+03  0.24077960460E+03  0.00000000000E+00 0. -1.
         22    1    3    3    0    0  0.91571108314E+02 -0.11151956095E+03 -0.43990644825E+03  0.46296821011E+03  0.00000000000E+00 0.  1.
         22    1    3    3    0    0  0.21374882201E+02  0.34578752705E+02 -0.14163632846E+03  0.14735475990E+03  0.00000000000E+00 0.  1.
</event>
<event>
 7    1  0.6681656E-006  0.7825552E+02  0.7818608E-02  0.1374375E+00
          2   -1    0    0  502    0  0.00000000000E+00  0.00000000000E+00  0.21685773268E+03  0.21685773268E+03  0.00000000000E+00 0. -1.
          1   -1    0    0  501    0 -0.00000000000E+00 -0.00000000000E+00 -0.79544909897E+03  0.79544909897E+03  0.00000000000E+00 0. -1.
         25    2    1    2    0    0 -0.90252863982E+02 -0.85148406802E+02 -0.31296233024E+03  0.35911981853E+03  0.12500317304E+03 0.  0.
          2    1    1    2  501    0  0.20551388280E+02  0.51668781406E+02 -0.44991375575E+03  0.45333697196E+03  0.00000000000E+00 0. -1.
          1    1    1    2  502    0  0.69701475702E+02  0.33479625396E+02  0.18428471971E+03  0.19985004116E+03  0.00000000000E+00 0. -1.
         22    1    3    3    0    0 -0.11671365766E+02 -0.77604868251E+02 -0.23664664097E+03  0.24931981277E+03  0.00000000000E+00 0.  1.
         22    1    3    3    0    0 -0.78581498216E+02 -0.75435385513E+01 -0.76315689271E+02  0.10980000576E+03  0.00000000000E+00 0.  1.
</event>
<event>
 7    1  0.6681656E-006  0.5242248E+02  0.7818608E-02  0.1525341E+00
          2   -1    0    0  502    0  0.00000000000E+00  0.00000000000E+00  0.35916089073E+03  0.35916089073E+03  0.00000000000E+00 0. -1.
          1   -1    0    0  501    0 -0.00000000000E+00 -0.00000000000E+00 -0.14055783850E+03  0.14055783850E+03  0.00000000000E+00 0. -1.
         25    2    1    2    0    0  0.52289977802E+02 -0.11902894134E+02 -0.15006637213E+02  0.13684387791E+03  0.12500050837E+03 0.  0.
          2    1    1    2  501    0 -0.19480204650E+01  0.27134705676E+02 -0.59320091229E+02  0.65260709920E+02  0.00000000000E+00 0. -1.
          1    1    1    2  502    0 -0.50341957337E+02 -0.15231811542E+02  0.29292978068E+03  0.29761414140E+03  0.00000000000E+00 0. -1.
         22    1    3    3    0    0 -0.93486988529E+01 -0.95749547500E+01 -0.59373278173E+02  0.60862665812E+02  0.00000000000E+00 0. -1.
         22    1    3    3    0    0  0.61638676655E+02 -0.23279393842E+01  0.44366640960E+02  0.75981212096E+02  0.00000000000E+00 0. -1.
</event>
<event>
 7    1  0.6681656E-006  0.1332271E+03  0.7818608E-02  0.1365213E+00
          2   -1    0    0  502    0  0.00000000000E+00  0.00000000000E+00  0.19531550841E+04  0.19531550841E+04  0.00000000000E+00 0. -1.
          1   -1    0    0  501    0 -0.00000000000E+00 -0.00000000000E+00 -0.37777468893E+02  0.37777468893E+02  0.00000000000E+00 0. -1.
         25    2    1    2    0    0 -0.49862133815E+01 -0.15919473000E+03  0.48987822488E+03  0.53006913954E+03  0.12499917239E+03 0.  0.
          2    1    1    2  501    0  0.18023684910E+02  0.30277958518E+02  0.63415701889E+01  0.35802562789E+02  0.00000000000E+00 0. -1.
          1    1    1    2  502    0 -0.13037471529E+02  0.12891677148E+03  0.14191578201E+04  0.14250608506E+04  0.00000000000E+00 0. -1.
         22    1    3    3    0    0  0.12025281218E+01 -0.12601680639E+01 -0.77499391553E+01  0.79432773050E+01  0.00000000000E+00 0.  1.
         22    1    3    3    0    0 -0.61887415033E+01 -0.15793456193E+03  0.49762816403E+03  0.52212586223E+03  0.00000000000E+00 0.  1.
</event>
<event>
 7    1  0.6681656E-006  0.6117104E+02  0.7818608E-02  0.1409018E+00
          2   -1    0    0  502    0  0.00000000000E+00  0.00000000000E+00  0.18446960840E+03  0.18446960840E+03  0.00000000000E+00 0. -1.
          1   -1    0    0  501    0 -0.00000000000E+00 -0.00000000000E+00 -0.19584629056E+04  0.19584629056E+04  0.00000000000E+00 0. -1.
         25    2    1    2    0    0 -0.14026017480E+02 -0.20028308191E+02 -0.10375073206E+04  0.10452966153E+04  0.12500284538E+03 0.  0.
          2    1    1    2  501    0  0.23687363032E+02  0.73042046353E+02 -0.91138994415E+03  0.91461897094E+03  0.00000000000E+00 0. -1.
          1    1    1    2  502    0 -0.96613455521E+01 -0.53013738162E+02  0.17490396748E+03  0.18301692783E+03  0.00000000000E+00 0. -1.
         22    1    3    3    0    0  0.19410941318E+02 -0.29371783651E+02 -0.83000050673E+02  0.90158165074E+02  0.00000000000E+00 0.  1.
         22    1    3    3    0    0 -0.33436958798E+02  0.93434754608E+01 -0.95450726990E+03  0.95513845020E+03  0.00000000000E+00 0.  1.
</event>
<event>
 7    1  0.6681656E-006  0.5614803E+02  0.7818608E-02  0.1465819E+00
          2   -1    0    0  502    0  0.00000000000E+00  0.00000000000E+00  0.34334561233E+02  0.34334561233E+02  0.00000000000E+00 0. -1.
          1   -1    0    0  501    0 -0.00000000000E+00 -0.00000000000E+00 -0.10072337646E+04  0.10072337646E+04  0.00000000000E+00 0. -1.
         25    2    1    2    0    0  0.53845247485E+02 -0.69042563389E+02 -0.42724540614E+03  0.45367911878E+03  0.12497967641E+03 0.  0.
          2    1    1    2  501    0 -0.21232617594E+02  0.48892822761E+02 -0.54694096067E+03  0.54953229808E+03  0.00000000000E+00 0. -1.
          1    1    1    2  502    0 -0.32612629891E+02  0.20149740628E+02  0.12871634531E+01  0.38356908968E+02  0.00000000000E+00 0. -1.
         22    1    3    3    0    0  0.59462510394E+01  0.32997860353E+02 -0.52036111330E+02  0.61902936696E+02  0.00000000000E+00 0. -1.
         22    1    3    3    0    0  0.47898996446E+02 -0.10204042374E+03 -0.37520929481E+03  0.39177618209E+03  0.00000000000E+00 0. -1.
</event>
<event>
 7    1  0.6681656E-006  0.4348755E+02  0.7818608E-02  0.1579017E+00
          2   -1    0    0  502    0  0.00000000000E+00  0.00000000000E+00  0.24962008748E+04  0.24962008748E+04  0.00000000000E+00 0. -1.
          1   -1    0    0  501    0 -0.00000000000E+00 -0.00000000000E+00 -0.79476541560E+03  0.79476541560E+03  0.00000000000E+00 0. -1.
         25    2    1    2    0    0 -0.24138861767E+01 -0.63022353386E+02  0.83722061172E+03  0.84884698529E+03  0.12500083145E+03 0.  0.
          2    1    1    2  501    0  0.98683199759E+01  0.21053657026E+02 -0.78850605820E+03  0.78884880937E+03  0.00000000000E+00 0. -1.
          1    1    1    2  502    0 -0.74544337992E+01  0.41968696360E+02  0.16527209057E+04  0.16532704958E+04  0.00000000000E+00 0. -1.
         22    1    3    3    0    0 -0.29347910771E+02 -0.16987582639E+02  0.71115713172E+03  0.71196512824E+03  0.00000000000E+00 0. -1.
         22    1    3    3    0    0  0.26934024594E+02 -0.46034770747E+02  0.12606348001E+03  0.13688185705E+03  0.00000000000E+00 0. -1.
</event>
<event>
 7    1  0.6681656E-006  0.3180316E+03  0.7818608E-02  0.1324911E+00
          2   -1    0    0  502    0  0.00000000000E+00  0.00000000000E+00  0.20671594579E+03  0.20671594579E+03  0.00000000000E+00 0. -1.
          1   -1    0    0  501    0 -0.00000000000E+00 -0.00000000000E+00 -0.20143822639E+04  0.20143822639E+04  0.00000000000E+00 0. -1.
         25    2    1    2    0    0  0.25859503849E+03 -0.20830864255E+03 -0.72536008596E+03  0.80748785925E+03  0.12500201614E+03 0.  0.
          2    1    1    2  501    0 -0.55922949821E+01  0.20110727439E+02 -0.10977123742E+04  0.10979108213E+04  0.00000000000E+00 0. -1.
          1    1    1    2  502    0 -0.25300274351E+03  0.18819791511E+03  0.15406142038E+02  0.31569952912E+03  0.00000000000E+00 0. -1.
         22    1    3    3    0    0  0.95521620630E+02 -0.15510477612E+03 -0.34151059920E+03  0.38705472604E+03  0.00000000000E+00 0.  1.
         22    1    3    3    0    0  0.16307341786E+03 -0.53203866430E+02 -0.38384948676E+03  0.42043313321E+03  0.00000000000E+00 0.  1.
</event>
<event>
 7    1  0.6681656E-006  0.1468741E+03  0.7818608E-02  0.1258453E+00
          2   -1    0    0  502    0  0.00000000000E+00  0.00000000000E+00  0.28704243735E+03  0.28704243735E+03  0.00000000000E+00 0. -1.
          1   -1    0    0  501    0 -0.00000000000E+00 -0.00000000000E+00 -0.70713762543E+03  0.70713762543E+03  0.00000000000E+00 0. -1.
         25    2    1    2    0    0 -0.39358752326E+02  0.15516402476E+03 -0.26412150415E+03  0.33318195624E+03  0.12500024420E+03 0.  0.
          2    1    1    2  501    0 -0.43666807069E+02 -0.14165828781E+03 -0.38738215072E+03  0.41477559142E+03  0.00000000000E+00 0. -1.
          1    1    1    2  502    0  0.83025559394E+02 -0.13505736951E+02  0.23140846679E+03  0.24622251511E+03  0.00000000000E+00 0. -1.
         22    1    3    3    0    0  0.30026588720E+02  0.12255450383E+03 -0.17231819448E+03  0.21357612832E+03  0.00000000000E+00 0. -1.
         22    1    3    3    0    0 -0.69385341046E+02  0.32609520925E+02 -0.91803309668E+02  0.11960582792E+03  0.00000000000E+00 0. -1.
</event>
<event>
 7    1  0.6681656E-006  0.1758071E+03  0.7818608E-02  0.1288162E+00
          2   -1    0    0  502    0  0.00000000000E+00  0.00000000000E+00  0.45187542928E+03  0.45187542928E+03  0.00000000000E+00 0. -1.
          1   -1    0    0  501    0 -0.00000000000E+00 -0.00000000000E+00 -0.80231423226E+03  0.80231423226E+03  0.00000000000E+00 0. -1.
         25    2    1    2    0    0  0.91273265375E+02  0.10272840437E+03 -0.26292037806E+03  0.32192599300E+03  0.12500114293E+03 0.  0.
          2    1    1    2  501    0  0.52735650803E+02  0.27083703886E+01 -0.48955254135E+03  0.49239219620E+03  0.00000000000E+00 0. -1.
          1    1    1    2  502    0 -0.14400891618E+03 -0.10543677476E+03  0.40203411643E+03  0.43987147234E+03  0.00000000000E+00 0. -1.
         22    1    3    3    0    0  0.17519329894E+02  0.93631160152E+02 -0.21030558504E+03  0.23087260594E+03  0.00000000000E+00 0. -1.
         22    1    3    3    0    0  0.73753935481E+02  0.90972442147E+01 -0.52614793017E+02  0.91053387062E+02  0.00000000000E+00 0. -1.
</event>
<event>
 7    1  0.6681656E-006  0.7607881E+02  0.7818608E-02  0.1438393E+00
          2   -1    0    0  502    0  0.00000000000E+00  0.00000000000E+00  0.12923631469E+03  0.12923631469E+03  0.00000000000E+00 0. -1.
          1   -1    0    0  501    0 -0.00000000000E+00 -0.00000000000E+00 -0.92998519813E+03  0.92998519813E+03  0.00000000000E+00 0. -1.
         25    2    1    2    0    0 -0.72404658324E+02  0.71851307880E+02 -0.11017341080E+02  0.16171220289E+03  0.12499763905E+03 0.  0.
          2    1    1    2  501    0  0.30449997010E+02 -0.16445565602E+02 -0.82069592289E+03  0.82142525941E+03  0.00000000000E+00 0. -1.
          1    1    1    2  502    0  0.41954661314E+02 -0.55405742278E+02  0.30964380525E+02  0.76084050528E+02  0.00000000000E+00 0. -1.
         22    1    3    3    0    0  0.42486580349E+01  0.29942873246E+02  0.47680281771E+02  0.56462695854E+02  0.00000000000E+00 0.  1.
         22    1    3    3    0    0 -0.76653316359E+02  0.41908434635E+02 -0.58697622851E+02  0.10524950703E+03  0.00000000000E+00 0.  1.
</event>
<event>
 7    1  0.6681656E-006  0.8810655E+02  0.7818608E-02  0.1457445E+00
          2   -1    0    0  502    0  0.00000000000E+00  0.00000000000E+00  0.12095480180E+03  0.12095480180E+03  0.00000000000E+00 0. -1.
          1   -1    0    0  501    0 -0.00000000000E+00 -0.00000000000E+00 -0.72091621571E+03  0.72091621571E+03  0.00000000000E+00 0. -1.
         25    2    1    2    0    0  0.85422662106E+02 -0.53990892246E+01  0.51915940522E+02  0.16014476761E+03  0.12499960139E+03 0.  0.
          2    1    1    2  501    0 -0.85854294031E+02 -0.20555981866E+02 -0.64970671302E+03  0.65567699452E+03  0.00000000000E+00 0. -1.
          1    1    1    2  502    0  0.43163192557E+00  0.25955071090E+02 -0.21706414092E+01  0.26049255374E+02  0.00000000000E+00 0. -1.
         22    1    3    3    0    0 -0.56814856972E+01  0.44385067044E+02  0.16013662079E+01  0.44775862135E+02  0.00000000000E+00 0. -1.
         22    1    3    3    0    0  0.91104147803E+02 -0.49784156268E+02  0.50314574315E+02  0.11536890548E+03  0.00000000000E+00 0. -1.
</event>
<event>
 7    1  0.6681656E-006  0.1089357E+03  0.7818608E-02  0.1286835E+00
          2   -1    0    0  502    0  0.00000000000E+00  0.00000000000E+00  0.58763200587E+02  0.58763200587E+02  0.00000000000E+00 0. -1.
          1   -1    0    0  501    0 -0.00000000000E+00 -0.00000000000E+00 -0.18011546578E+04  0.18011546578E+04  0.00000000000E+00 0. -1.
         25    2    1    2    0    0 -0.99293814357E+02 -0.14684594501E+03 -0.94598457362E+03  0.97053324572E+03  0.12499989753E+03 0.  0.
          2    1    1    2  501    0  0.73678967225E+02  0.44915801823E+02 -0.77789624771E+03  0.78266761251E+03  0.00000000000E+00 0. -1.
          1    1    1    2  502    0  0.25614847133E+02  0.10193014318E+03 -0.18510635885E+02  0.10671700016E+03  0.00000000000E+00 0. -1.
         22    1    3    3    0    0 -0.39689149276E+02 -0.48716728106E+02 -0.65047897542E+03  0.65350703564E+03  0.00000000000E+00 0. -1.
         22    1    3    3    0    0 -0.59604665081E+02 -0.98129216902E+02 -0.29550559819E+03  0.31702621007E+03  0.00000000000E+00 0. -1.
</event>
<event>
 7    1  0.6681656E-006  0.1119227E+03  0.7818608E-02  0.1359733E+00
          2   -1    0    0  502    0  0.00000000000E+00  0.00000000000E+00  0.16502863029E+03  0.16502863029E+03  0.00000000000E+00 0. -1.
          1   -1    0    0  501    0 -0.00000000000E+00 -0.00000000000E+00 -0.66316116766E+03  0.66316116766E+03  0.00000000000E+00 0. -1.
         25    2    1    2    0    0  0.14562397647E+03 -0.35428421756E+02 -0.84684056955E+02  0.21273605082E+03  0.12499488880E+03 0.  0.
          2    1    1    2  501    0 -0.10777539123E+03  0.13161034016E+02 -0.50360232262E+03  0.51517380283E+03  0.00000000000E+00 0. -1.
          1    1    1    2  502    0 -0.37848585244E+02  0.22267387740E+02  0.90153842208E+02  0.10027994429E+03  0.00000000000E+00 0. -1.
         22    1    3    3    0    0  0.58263224314E+02  0.41875120617E+02 -0.59929446991E+02  0.93486189627E+02  0.00000000000E+00 0. -1.
         22    1    3    3    0    0  0.87360752156E+02 -0.77303542373E+02 -0.24754609964E+02  0.11924986120E+03  0.00000000000E+00 0. -1.
</event>
<event>
 7    1  0.6681656E-006  0.3816511E+02  0.7818608E-02  0.1552070E+00
          2   -1    0    0  502    0  0.00000000000E+00  0.00000000000E+00  0.16710873635E+04  0.16710873635E+04  0.00000000000E+00 0. -1.
          1   -1    0    0  501    0 -0.00000000000E+00 -0.00000000000E+00 -0.42875941743E+03  0.42875941743E+03  0.00000000000E+00 0. -1.
         25    2    1    2    0    0 -0.14898484123E+02  0.90209855192E+01  0.47878842669E+03  0.49514082013E+03  0.12499092455E+03 0.  0.
          2    1    1    2  501    0  0.96472039267E+01  0.29871089242E+02 -0.41967173043E+03  0.42084404693E+03  0.00000000000E+00 0. -1.
          1    1    1    2  502    0  0.52512801959E+01 -0.38892074761E+02  0.11832112498E+04  0.11838619139E+04  0.00000000000E+00 0. -1.
         22    1    3    3    0    0  0.16180799752E+02  0.60715554728E+02  0.18999945015E+03  0.20011993385E+03  0.00000000000E+00 0. -1.
         22    1    3    3    0    0 -0.31079283875E+02 -0.51694569209E+02  0.28878897654E+03  0.29502088628E+03  0.00000000000E+00 0. -1.
</event>
<event>
 7    1  0.6681656E-006  0.1503266E+03  0.7818608E-02  0.1298662E+00
          2   -1    0    0  502    0  0.00000000000E+00  0.00000000000E+00  0.23388131182E+04  0.23388131182E+04  0.00000000000E+00 0. -1.
          1   -1    0    0  501    0 -0.00000000000E+00 -0.00000000000E+00 -0.39402633421E+03  0.39402633421E+03  0.00000000000E+00 0. -1.
         25    2    1    2    0    0  0.16055253991E+03 -0.99366903601E+02 -0.21550814556E+03  0.31260496707E+03  0.12500881982E+03 0.  0.
          2    1    1    2  501    0 -0.17854304326E+02  0.53079348206E+02 -0.12135745161E+03  0.13365561885E+03  0.00000000000E+00 0. -1.
          1    1    1    2  502    0 -0.14269823559E+03  0.46287555395E+02  0.22816523812E+04  0.22865788665E+04  0.00000000000E+00 0. -1.
         22    1    3    3    0    0  0.15578735610E+03 -0.66982751595E+02 -0.22187588398E+03  0.27925847744E+03  0.00000000000E+00 0. -1.
         22    1    3    3    0    0  0.47651838127E+01 -0.32384152006E+02  0.63677384231E+01  0.33346489628E+02  0.00000000000E+00 0. -1.
</event>
<event>
 7    1  0.6681656E-006  0.6859822E+02  0.7818608E-02  0.1401807E+00
          2   -1    0    0  502    0  0.00000000000E+00  0.00000000000E+00  0.92358382222E+02  0.92358382222E+02  0.00000000000E+00 0. -1.
          1   -1    0    0  501    0 -0.00000000000E+00 -0.00000000000E+00 -0.13578762863E+04  0.13578762863E+04  0.00000000000E+00 0. -1.
         25    2    1    2    0    0  0.33605369089E+02 -0.42773617387E+02 -0.32475062605E+03  0.35220321957E+03  0.12500094232E+03 0.  0.
          2    1    1    2  501    0  0.36062757137E+02  0.35854187734E+02 -0.10030427793E+04  0.10043310521E+04  0.00000000000E+00 0. -1.
          1    1    1    2  502    0 -0.69668126226E+02  0.69194296528E+01  0.62275501212E+02  0.93700396849E+02  0.00000000000E+00 0. -1.
         22    1    3    3    0    0  0.40468102851E+02 -0.92970034539E+00 -0.30078457204E+03  0.30349611277E+03  0.00000000000E+00 0.  1.
         22    1    3    3    0    0 -0.68627337622E+01 -0.41843917042E+02 -0.23966054013E+02  0.48707106802E+02  0.00000000000E+00 0.  1.
</event>
<event>
 7    1  0.6681656E-006  0.7550494E+02  0.7818608E-02  0.1348898E+00
          2   -1    0    0  502    0  0.00000000000E+00  0.00000000000E+00  0.32447041863E+03  0.32447041863E+03  0.00000000000E+00 0. -1.
          1   -1    0    0  501    0 -0.00000000000E+00 -0.00000000000E+00 -0.15075664637E+03  0.15075664637E+03  0.00000000000E+00 0. -1.
         25    2    1    2    0    0  0.32198274860E+01  0.45221272161E+01  0.15890574649E+03  0.20225572929E+03  0.12500210733E+03 0.  0.
          2    1    1    2  501    0  0.54684493842E+02 -0.52979178827E+02 -0.10599851951E+03  0.13051005093E+03  0.00000000000E+00 0. -1.
          1    1    1    2  502    0 -0.57904321328E+02  0.48457051611E+02  0.12080654527E+03  0.14246128478E+03  0.00000000000E+00 0. -1.
         22    1    3    3    0    0  0.10578489303E+02 -0.49501133444E+02  0.22570972996E+02  0.55423059011E+02  0.00000000000E+00 0.  1.
         22    1    3    3    0    0 -0.73586618170E+01  0.54023260660E+02  0.13633477349E+03  0.14683267027E+03  0.00000000000E+00 0.  1.
</event>
<event>
 7    1  0.6681656E-006  0.4486580E+02  0.7818608E-02  0.1533240E+00
          2   -1    0    0  502    0  0.00000000000E+00  0.00000000000E+00  0.72743746927E+03  0.72743746927E+03  0.00000000000E+00 0. -1.
          1   -1    0    0  501    0 -0.00000000000E+00 -0.00000000000E+00 -0.31793798472E+04  0.31793798472E+04  0.00000000000E+00 0. -1.
         25    2    1    2    0    0 -0.23168097777E+02  0.42846905255E+02 -0.22120490506E+03  0.25870738265E+03  0.12500112709E+03 0.  0.
          2    1    1    2  501    0  0.40947755092E+02 -0.18471216769E+02 -0.29389308636E+04  0.29392741495E+04  0.00000000000E+00 0. -1.
          1    1    1    2  502    0 -0.17779657314E+02 -0.24375688486E+02  0.70819339078E+03  0.70883578433E+03  0.00000000000E+00 0. -1.
         22    1    3    3    0    0  0.35497628383E+02 -0.25743559302E+02 -0.75650614123E+02  0.87440424767E+02  0.00000000000E+00 0.  1.
         22    1    3    3    0    0 -0.58665726161E+02  0.68590464557E+02 -0.14555429093E+03  0.17126695788E+03  0.00000000000E+00 0.  1.
</event>
<event>
 7    1  0.6681656E-006  0.3047603E+02  0.7818608E-02  0.1633615E+00
          2   -1    0    0  502    0  0.00000000000E+00  0.00000000000E+00  0.18256453352E+03  0.18256453352E+03  0.00000000000E+00 0. -1.
          1   -1    0    0  501    0 -0.00000000000E+00 -0.00000000000E+00 -0.11657763172E+03  0.11657763172E+03  0.00000000000E+00 0. -1.
         25    2    1    2    0    0  0.29696056536E+02 -0.42404505559E+02  0.70495142295E+02  0.15256077687E+03  0.12500091074E+03 0.  0.
          2    1    1    2  501    0 -0.22719974779E+02  0.19492572013E+02 -0.70384632326E+02  0.76486299985E+02  0.00000000000E+00 0. -1.
          1    1    1    2  502    0 -0.69760817570E+01  0.22911933546E+02  0.65876391835E+02  0.70095088392E+02  0.00000000000E+00 0. -1.
         22    1    3    3    0    0 -0.48268948255E+02 -0.87078581010E+01  0.15765925795E+02  0.51519729954E+02  0.00000000000E+00 0. -1.
         22    1    3    3    0    0  0.77965004792E+02 -0.33696647458E+02  0.54729216501E+02  0.10104104691E+03  0.00000000000E+00 0. -1.
</event>
<event>
 7    1  0.6681656E-006  0.7013638E+02  0.7818608E-02  0.1416339E+00
          2   -1    0    0  502    0  0.00000000000E+00  0.00000000000E+00  0.41040457644E+03  0.41040457644E+03  0.00000000000E+00 0. -1.
          1   -1    0    0  501    0 -0.00000000000E+00 -0.00000000000E+00 -0.15605361368E+03  0.15605361368E+03  0.00000000000E+00 0. -1.
         25    2    1    2    0    0  0.10236354834E+02  0.49795457659E+02  0.69639928261E+02  0.15185471380E+03  0.12500305569E+03 0.  0.
          2    1    1    2  501    0 -0.54622767366E+02 -0.48735562338E+02 -0.10140275343E+03  0.12506526358E+03  0.00000000000E+00 0. -1.
          1    1    1    2  502    0  0.44386412532E+02 -0.10598953210E+01  0.28611378792E+03  0.28953821273E+03  0.00000000000E+00 0. -1.
         22    1    3    3    0    0  0.39101411393E+02 -0.30320009558E+02  0.30584647028E+02  0.58169098208E+02  0.00000000000E+00 0.  1.
         22    1    3    3    0    0 -0.28865056559E+02  0.80115467217E+02  0.39055281233E+02  0.93685615597E+02  0.00000000000E+00 0.  1.
</event>
<event>
 7    1  0.6681656E-006  0.1677553E+03  0.7818608E-02  0.1266619E+00
          2   -1    0    0  502    0  0.00000000000E+00  0.00000000000E+00  0.10221670222E+04  0.10221670222E+04  0.00000000000E+00 0. -1.
          1   -1    0    0  501    0 -0.00000000000E+00 -0.00000000000E+00 -0.15270578046E+04  0.15270578046E+04  0.00000000000E+00 0. -1.
         25    2    1    2    0    0  0.16681211393E+03  0.14014913785E+03 -0.43831357924E+03  0.50517825141E+03  0.12497283608E+03 0.  0.
          2    1    1    2  501    0 -0.13874412020E+03 -0.78223714757E+02 -0.10481194132E+04  0.10601524346E+04  0.00000000000E+00 0. -1.
          1    1    1    2  502    0 -0.28067993723E+02 -0.61925423091E+02  0.98154220999E+03  0.98389414079E+03  0.00000000000E+00 0. -1.
         22    1    3    3    0    0  0.11446084698E+03  0.15428999908E+03 -0.29594249189E+03  0.35282948830E+03  0.00000000000E+00 0.  1.
         22    1    3    3    0    0  0.52351266944E+02 -0.14140861235E+02 -0.14237108735E+03  0.15234876311E+03  0.00000000000E+00 0.  1.
</event>
<event>
 7    1  0.6681656E-006  0.9240198E+02  0.7818608E-02  0.1337197E+00
          2   -1    0    0  502    0  0.00000000000E+00  0.00000000000E+00  0.28615065651E+04  0.28615065651E+04  0.00000000000E+00 0. -1.
          1   -1    0    0  501    0 -0.00000000000E+00 -0.00000000000E+00 -0.89303104075E+02  0.89303104075E+02  0.00000000000E+00 0. -1.
         25    2    1    2    0    0  0.11687026069E+03 -0.72952614143E+02  0.94314423831E+03  0.96131479785E+03  0.12499737827E+03 0.  0.
          2    1    1    2  501    0 -0.52405166432E+02  0.74937386767E+02 -0.53424889815E+02  0.10590624276E+03  0.00000000000E+00 0. -1.
          1    1    1    2  502    0 -0.64465094257E+02 -0.19847726242E+01  0.18824841125E+04  0.18835886286E+04  0.00000000000E+00 0. -1.
         22    1    3    3    0    0  0.60010112885E+02 -0.30667670229E+02  0.14349831339E+03  0.15853543955E+03  0.00000000000E+00 0.  1.
         22    1    3    3    0    0  0.56860147804E+02 -0.42284943914E+02  0.79964592491E+03  0.80277935830E+03  0.00000000000E+00 0.  1.
</event>
<event>
 7    1  0.6681656E-006  0.7120052E+02  0.7818608E-02  0.1381570E+00
          2   -1    0    0  502    0  0.00000000000E+00  0.00000000000E+00  0.20158679053E+04  0.20158679053E+04  0.00000000000E+00 0. -1.
          1   -1    0    0  501    0 -0.00000000000E+00 -0.00000000000E+00 -0.69664088129E+02  0.69664088129E+02  0.00000000000E+00 0. -1.
         25    2    1    2    0    0 -0.32522464911E+02  0.57208217249E+02  0.77195360991E+03  0.78477292950E+03  0.12500273671E+03 0.  0.
          2    1    1    2  501    0 -0.41168383209E+02 -0.40317885131E+02 -0.48717363973E+02  0.75456935997E+02  0.00000000000E+00 0. -1.
          1    1    1    2  502    0  0.73690848119E+02 -0.16890332117E+02  0.12229675713E+04  0.12253021280E+04  0.00000000000E+00 0. -1.
         22    1    3    3    0    0  0.38577068035E+02  0.11836496257E+02  0.10464987026E+03  0.11216010060E+03  0.00000000000E+00 0.  1.
         22    1    3    3    0    0 -0.71099532946E+02  0.45371720992E+02  0.66730373965E+03  0.67261282890E+03  0.00000000000E+00 0.  1.
</event>
<event>
 7    1  0.6681656E-006  0.6731450E+02  0.7818608E-02  0.1400670E+00
          2   -1    0    0  502    0  0.00000000000E+00  0.00000000000E+00  0.30452864413E+04  0.30452864413E+04  0.00000000000E+00 0. -1.
          1   -1    0    0  501    0 -0.00000000000E+00 -0.00000000000E+00 -0.17413308543E+02  0.17413308543E+02  0.00000000000E+00 0. -1.
         25    2    1    2    0    0  0.26313614266E+02 -0.14049037176E+02  0.14663592870E+04  0.14719800443E+04  0.12500364193E+03 0.  0.
          2    1    1    2  501    0  0.48129459804E+02 -0.20441570759E+02  0.37136310135E+02  0.64135857728E+02  0.00000000000E+00 0. -1.
          1    1    1    2  502    0 -0.74443074069E+02  0.34490607935E+02  0.15243775357E+04  0.15265838479E+04  0.00000000000E+00 0. -1.
         22    1    3    3    0    0  0.29073731105E+01 -0.67402945726E+02  0.93656098596E+03  0.93898780095E+03  0.00000000000E+00 0. -1.
         22    1    3    3    0    0  0.23406241155E+02  0.53353908550E+02  0.52979830103E+03  0.53299224333E+03  0.00000000000E+00 0. -1.
</event>
<event>
 7    1  0.6681656E-006  0.1207222E+03  0.7818608E-02  0.1311210E+00
          2   -1    0    0  502    0  0.00000000000E+00  0.00000000000E+00  0.11216630909E+04  0.11216630909E+04  0.00000000000E+00 0. -1.
          1   -1    0    0  501    0 -0.00000000000E+00 -0.00000000000E+00 -0.97990663044E+03  0.97990663044E+03  0.00000000000E+00 0. -1.
         25    2    1    2    0    0 -0.16958910568E+03 -0.48605765914E+02 -0.54362727764E+02  0.22294470929E+03  0.12500420786E+03 0.  0.
          2    1    1    2  501    0  0.11707236224E+03  0.15326301826E+02 -0.83617011494E+03  0.84446509380E+03  0.00000000000E+00 0. -1.
          1    1    1    2  502    0  0.52516743445E+02  0.33279464087E+02  0.10322893031E+04  0.10341599182E+04  0.00000000000E+00 0. -1.
         22    1    3    3    0    0 -0.13984721008E+03 -0.58101307272E+02  0.96297154637E+01  0.15174233257E+03  0.00000000000E+00 0.  1.
         22    1    3    3    0    0 -0.29741895601E+02  0.94955413584E+01 -0.63992443227E+02  0.71202376715E+02  0.00000000000E+00 0.  1.
</event>
<event>
 7    1  0.6681656E-006  0.5828335E+02  0.7818608E-02  0.1471310E+00
          2   -1    0    0  502    0  0.00000000000E+00  0.00000000000E+00  0.27155035585E+03  0.27155035585E+03  0.00000000000E+00 0. -1.
          1   -1    0    0  501    0 -0.00000000000E+00 -0.00000000000E+00 -0.22271224820E+04  0.22271224820E+04  0.00000000000E+00 0. -1.
         25    2    1    2    0    0 -0.67363875360E+02  0.54854655123E+02 -0.12439132389E+03  0.19658475233E+03  0.12500175399E+03 0.  0.
          2    1    1    2  501    0  0.14104933422E+02 -0.32581697016E+02 -0.20629409130E+04  0.20632464047E+04  0.00000000000E+00 0. -1.
          1    1    1    2  502    0  0.53258941938E+02 -0.22272958106E+02  0.23176011073E+03  0.23884168079E+03  0.00000000000E+00 0. -1.
         22    1    3    3    0    0 -0.74037892674E+02  0.88971281909E+02 -0.82457653490E+02  0.14211531647E+03  0.00000000000E+00 0. -1.
         22    1    3    3    0    0  0.66740173143E+01 -0.34116626786E+02 -0.41933670399E+02  0.54469435865E+02  0.00000000000E+00 0. -1.
</event>
<event>
 7    1  0.6681656E-006  0.6469322E+02  0.7818608E-02  0.1493065E+00
          2   -1    0    0  502    0  0.00000000000E+00  0.00000000000E+00  0.14672302437E+04  0.14672302437E+04  0.00000000000E+00 0. -1.
          1   -1    0    0  501    0 -0.00000000000E+00 -0.00000000000E+00 -0.53089486216E+03  0.53089486216E+03  0.00000000000E+00 0. -1.
         25    2    1    2    0    0  0.29841276168E+01 -0.70784881940E+02  0.38930552483E+03  0.41497400309E+03  0.12500090820E+03 0.  0.
          2    1    1    2  501    0  0.24522304959E+02  0.12318381668E+02 -0.51671623445E+03  0.51744444427E+03  0.00000000000E+00 0. -1.
          1    1    1    2  502    0 -0.27506432576E+02  0.58466500272E+02  0.10637460911E+04  0.10657066584E+04  0.00000000000E+00 0. -1.
         22    1    3    3    0    0  0.11470712855E+02 -0.50450257397E+02  0.38951745572E+03  0.39293848633E+03  0.00000000000E+00 0. -1.
         22    1    3    3    0    0 -0.84865852380E+01 -0.20334624543E+02 -0.21193089558E+00  0.22035516763E+02  0.00000000000E+00 0. -1.
</event>
<event>
 7    1  0.6681656E-006  0.7481278E+02  0.7818608E-02  0.1406273E+00
          2   -1    0    0  502    0  0.00000000000E+00  0.00000000000E+00  0.26471613473E+03  0.26471613473E+03  0.00000000000E+00 0. -1.
          1   -1    0    0  501    0 -0.00000000000E+00 -0.00000000000E+00 -0.18137999610E+04  0.18137999610E+04  0.00000000000E+00 0. -1.
         25    2    1    2    0    0  0.65877327813E+02 -0.33303173844E+02 -0.51270875290E+03  0.53286311436E+03  0.12499563848E+03 0.  0.
          2    1    1    2  501    0  0.82839745699E+01  0.44249225479E+02 -0.12850940042E+04  0.12858822721E+04  0.00000000000E+00 0. -1.
          1    1    1    2  502    0 -0.74161302383E+02 -0.10946051635E+02  0.24871893082E+03  0.25977070922E+03  0.00000000000E+00 0. -1.
         22    1    3    3    0    0  0.68425907172E+02 -0.48429264050E+02 -0.51053365006E+03  0.51737037626E+03  0.00000000000E+00 0. -1.
         22    1    3    3    0    0 -0.25485793588E+01  0.15126090206E+02 -0.21751028460E+01  0.15492738108E+02  0.00000000000E+00 0. -1.
</event>
<event>
 7    1  0.6681656E-006  0.1151353E+03  0.7818608E-02  0.1415372E+00
          2   -1    0    0  502    0  0.00000000000E+00  0.00000000000E+00  0.16028030762E+04  0.16028030762E+04  0.00000000000E+00 0. -1.
          1   -1    0    0  501    0 -0.00000000000E+00 -0.00000000000E+00 -0.59899525779E+02  0.59899525779E+02  0.00000000000E+00 0. -1.
         25    2    1    2    0    0 -0.30543785563E+02 -0.11469403752E+03  0.35681592195E+03  0.39626933763E+03  0.12499656279E+03 0.  0.
          2    1    1    2  501    0 -0.23782026131E+02  0.13302098213E+02 -0.32509400475E+02  0.42419237416E+02  0.00000000000E+00 0. -1.
          1    1    1    2  502    0  0.54325811693E+02  0.10139193931E+03  0.12185970289E+04  0.12240140269E+04  0.00000000000E+00 0. -1.
         22    1    3    3    0    0 -0.61988669306E+02 -0.10288025172E+03  0.33582634361E+03  0.35665988614E+03  0.00000000000E+00 0.  1.
         22    1    3    3    0    0  0.31444883743E+02 -0.11813785805E+02  0.20989578337E+02  0.39609451492E+02  0.00000000000E+00 0.  1.
</event>
<event>
 7    1  0.6681656E-006  0.1182928E+03  0.7818608E-02  0.1344153E+00
          2   -1    0    0  502    0  0.00000000000E+00  0.00000000000E+00  0.67389161023E+03  0.67389161023E+03  0.00000000000E+00 0. -1.
          1   -1    0    0  501    0 -0.00000000000E+00 -0.00000000000E+00 -0.14520075977E+03  0.14520075977E+03  0.00000000000E+00 0. -1.
         25    2    1    2    0    0 -0.62164218023E+02  0.14428038913E+03  0.12036678774E+03  0.23408183191E+03  0.12499967899E+03 0.  0.
          2    1    1    2  501    0  0.32915263444E+02 -0.34158211425E+02 -0.74832484868E+02  0.88600783105E+02  0.00000000000E+00 0. -1.
          1    1    1    2  502    0  0.29248954580E+02 -0.11012217770E+03  0.48315654759E+03  0.49640975498E+03  0.00000000000E+00 0. -1.
         22    1    3    3    0    0 -0.98397373083E+01 -0.23253147703E+02  0.15196382045E+02  0.29469634128E+02  0.00000000000E+00 0.  1.
         22    1    3    3    0    0 -0.52324480715E+02  0.16753353683E+03  0.10517040570E+03  0.20461219778E+03  0.00000000000E+00 0.  1.
</event>
<event>
 7    1  0.6681656E-006  0.5886827E+02  0.7818608E-02  0.1442974E+00
          2   -1    0    0  502    0  0.00000000000E+00  0.00000000000E+00  0.20151560440E+04  0.20151560440E+04  0.00000000000E+00 0. -1.
          1   -1    0    0  501    0 -0.00000000000E+00 -0.00000000000E+00 -0.99376102444E+03  0.99376102444E+03  0.00000000000E+00 0. -1.
         25    2    1    2    0    0  0.31603982445E+02 -0.88099221557E+01  0.60469915224E+02  0.14268379632E+03  0.12500251458E+03 0.  0.
          2    1    1    2  501    0 -0.28437791338E+02  0.51914931046E+02 -0.95149017515E+03  0.95332964993E+03  0.00000000000E+00 0. -1.
          1    1    1    2  502    0 -0.31661911077E+01 -0.43105008890E+02  0.19124152795E+04  0.19129036222E+04  0.00000000000E+00 0. -1.
         22    1    3    3    0    0  0.52867421612E+02 -0.51289522829E+01  0.90958172428E+02  0.10533118983E+03  0.00000000000E+00 0.  1.
         22    1    3    3    0    0 -0.21263439166E+02 -0.36809698729E+01 -0.30488257204E+02  0.37352606492E+02  0.00000000000E+00 0.  1.
</event>
<event>
 7    1  0.6681656E-006  0.1058720E+03  0.7818608E-02  0.1280318E+00
          2   -1    0    0  502    0  0.00000000000E+00  0.00000000000E+00  0.12620903478E+04  0.12620903478E+04  0.00000000000E+00 0. -1.
          1   -1    0    0  501    0 -0.00000000000E+00 -0.00000000000E+00 -0.41993920778E+02  0.41993920778E+02  0.00000000000E+00 0. -1.
         25    2    1    2    0    0  0.80564114033E+02  0.49462811966E+02  0.20891675451E+03  0.26117458541E+03  0.12501522911E+03 0.  0.
          2    1    1    2  501    0 -0.11291068894E+03  0.51346840452E+02  0.31186852297E+03  0.33562970268E+03  0.00000000000E+00 0. -1.
          1    1    1    2  502    0  0.32346574908E+02 -0.10080965242E+03  0.69931114953E+03  0.70727998048E+03  0.00000000000E+00 0. -1.
         22    1    3    3    0    0  0.66747725550E+01  0.55802939168E+02  0.16652453955E+03  0.17575250462E+03  0.00000000000E+00 0.  1.
         22    1    3    3    0    0  0.73889341478E+02 -0.63401272025E+01  0.42392214966E+02  0.85422080791E+02  0.00000000000E+00 0.  1.
</event>
<event>
 7    1  0.6681656E-006  0.5584497E+02  0.7818608E-02  0.1475006E+00
          2   -1    0    0  502    0  0.00000000000E+00  0.00000000000E+00  0.24268609640E+03  0.24268609640E+03  0.00000000000E+00 0. -1.
          1   -1    0    0  501    0 -0.00000000000E+00 -0.00000000000E+00 -0.24981984173E+03  0.24981984173E+03  0.00000000000E+00 0. -1.
         25    2    1    2    0    0 -0.25030476281E+02  0.57535141327E+02 -0.31048240427E+02  0.14327660210E+03  0.12500949663E+03 0.  0.
          2    1    1    2  501    0  0.47763016642E+02 -0.29504316655E+02 -0.15596684392E+03  0.16576328563E+03  0.00000000000E+00 0. -1.
          1    1    1    2  502    0 -0.22732540361E+02 -0.28030824672E+02  0.17988133902E+03  0.18346605040E+03  0.00000000000E+00 0. -1.
         22    1    3    3    0    0 -0.19722213148E+02  0.41279037020E+02  0.45689540757E+02  0.64656466988E+02  0.00000000000E+00 0.  1.
         22    1    3    3    0    0 -0.53082631332E+01  0.16256104306E+02 -0.76737781184E+02  0.78620135117E+02  0.00000000000E+00 0.  1.
</event>
<event>
 7    1  0.6681656E-006  0.8146644E+02  0.7818608E-02  0.1388896E+00
          2   -1    0    0  502    0  0.00000000000E+00  0.00000000000E+00  0.19533679098E+03  0.19533679098E+03  0.00000000000E+00 0. -1.
          1   -1    0    0  501    0 -0.00000000000E+00 -0.00000000000E+00 -0.41522996204E+03  0.41522996204E+03  0.00000000000E+00 0. -1.
         25    2    1    2    0    0  0.20909214498E+02  0.12136957226E+03 -0.30573959737E+03  0.35251890430E+03  0.12500043268E+03 0.  0.
          2    1    1    2  501    0  0.85795436892E+01 -0.46680856503E+02 -0.68924710385E+02  0.83685880741E+02  0.00000000000E+00 0. -1.
          1    1    1    2  502    0 -0.29488758187E+02 -0.74688715754E+02  0.15477113670E+03  0.17436196797E+03  0.00000000000E+00 0. -1.
         22    1    3    3    0    0  0.73554805666E+02  0.73053179388E+02 -0.16986857089E+03  0.19900353724E+03  0.00000000000E+00 0. -1.
         22    1    3    3    0    0 -0.52645591168E+02  0.48316392869E+02 -0.13587102648E+03  0.15351536707E+03  0.00000000000E+00 0. -1.
</event>
<event>
 7    1  0.6681656E-006  0.1096267E+03  0.7818608E-02  0.1262925E+00
          2   -1    0    0  502    0  0.00000000000E+00  0.00000000000E+00  0.26644576254E+04  0.26644576254E+04  0.00000000000E+00 0. -1.
          1   -1    0    0  501    0 -0.00000000000E+00 -0.00000000000E+00 -0.14723746827E+03  0.14723746827E+03  0.00000000000E+00 0. -1.
         25    2    1    2    0    0  0.60538740977E+01 -0.81445706793E+02  0.89962551607E+03  0.91193109184E+03  0.12498877774E+03 0.  0.
          2    1    1    2  501    0  0.98016240901E+02  0.53120564130E+02 -0.11712124869E+03  0.16169837571E+03  0.00000000000E+00 0. -1.
          1    1    1    2  502    0 -0.10407011500E+03  0.28325142664E+02  0.17347158897E+04  0.17380656261E+04  0.00000000000E+00 0. -1.
         22    1    3    3    0    0 -0.51990915575E+02 -0.37548078757E+02  0.60755583279E+03  0.61093125921E+03  0.00000000000E+00 0. -1.
         22    1    3    3    0    0  0.58044789672E+02 -0.43897628036E+02  0.29206968328E+03  0.30099983263E+03  0.00000000000E+00 0. -1.
</event>
<event>
 7    1  0.6681656E-006  0.1041140E+03  0.7818608E-02  0.1393439E+00
          2   -1    0    0  502    0  0.00000000000E+00  0.00000000000E+00  0.11475716547E+04  0.11475716547E+04  0.00000000000E+00 0. -1.
          1   -1    0    0  501    0 -0.00000000000E+00 -0.00000000000E+00 -0.69513834677E+03  0.69513834677E+03  0.00000000000E+00 0. -1.
         25    2    1    2    0    0 -0.41999297624E+02  0.97978738254E+02 -0.42985798629E+03  0.46018117264E+03  0.12500019649E+03 0.  0.
          2    1    1    2  501    0  0.68175490233E+01 -0.10465265884E+03 -0.23882688430E+03  0.26083891320E+03  0.00000000000E+00 0. -1.
          1    1    1    2  502    0  0.35181748601E+02  0.66739205817E+01  0.11211181785E+04  0.11216899156E+04  0.00000000000E+00 0. -1.
         22    1    3    3    0    0  0.33247326113E+02  0.41273013381E+02 -0.67756617662E+02  0.86022122528E+02  0.00000000000E+00 0.  1.
         22    1    3    3    0    0 -0.75246623737E+02  0.56705724873E+02 -0.36210136862E+03  0.37415905011E+03  0.00000000000E+00 0.  1.
</event>
<event>
 7    1  0.6681656E-006  0.8762101E+02  0.7818608E-02  0.1454006E+00
          2   -1    0    0  502    0  0.00000000000E+00  0.00000000000E+00  0.13552089164E+04  0.13552089164E+04  0.00000000000E+00 0. -1.
          1   -1    0    0  501    0 -0.00000000000E+00 -0.00000000000E+00 -0.14841454734E+03  0.14841454734E+03  0.00000000000E+00 0. -1.
         25    2    1    2    0    0  0.67246459123E+02 -0.88435858363E+02  0.53015323714E+02  0.17543587742E+03  0.12499654086E+03 0.  0.
          2    1    1    2  501    0 -0.23202067332E+02  0.13346349164E+02 -0.83584377458E+02  0.87765648858E+02  0.00000000000E+00 0. -1.
          1    1    1    2  502    0 -0.44044391791E+02  0.75089509199E+02  0.12373634228E+04  0.12404219375E+04  0.00000000000E+00 0. -1.
         22    1    3    3    0    0  0.10024544510E+02 -0.34612128814E+02 -0.39898903031E+02  0.53762565199E+02  0.00000000000E+00 0.  1.
         22    1    3    3    0    0  0.57221914613E+02 -0.53823729549E+02  0.92914226745E+02  0.12167331222E+03  0.00000000000E+00 0.  1.
</event>
<event>
 7    1  0.6681656E-006  0.1035655E+03  0.7818608E-02  0.1341867E+00
          2   -1    0    0  502    0  0.00000000000E+00  0.00000000000E+00  0.43201593869E+04  0.43201593869E+04  0.00000000000E+00 0. -1.
          1   -1    0    0  501    0 -0.00000000000E+00 -0.00000000000E+00 -0.32715567703E+02  0.32715567703E+02  0.00000000000E+00 0. -1.
         25    2    1    2    0    0  0.45762742095E+02 -0.94236150980E+02  0.70588710103E+03  0.72448713825E+03  0.12502133169E+03 0.  0.
          2    1    1    2  501    0 -0.87821992340E+02  0.58393178950E+02  0.96675770015E+02  0.14306876037E+03  0.00000000000E+00 0. -1.
          1    1    1    2  502    0  0.42059250245E+02  0.35842972030E+02  0.34848809482E+04  0.34853190560E+04  0.00000000000E+00 0. -1.
         22    1    3    3    0    0  0.24852687679E+01 -0.70357163315E+02  0.14256089937E+03  0.15899659437E+03  0.00000000000E+00 0.  1.
         22    1    3    3    0    0  0.43277473327E+02 -0.23878987665E+02  0.56332620166E+03  0.56549054388E+03  0.00000000000E+00 0.  1.
</event>
<event>
 7    1  0.6681656E-006  0.1448054E+03  0.7818608E-02  0.1246776E+00
          2   -1    0    0  502    0  0.00000000000E+00  0.00000000000E+00  0.13828741908E+04  0.13828741908E+04  0.00000000000E+00 0. -1.
          1   -1    0    0  501    0 -0.00000000000E+00 -0.00000000000E+00 -0.74133013050E+03  0.74133013050E+03  0.00000000000E+00 0. -1.
         25    2    1    2    0    0 -0.31874671596E+02 -0.19984706654E+03  0.61165628252E+03  0.65627998678E+03  0.12500067365E+03 0.  0.
          2    1    1    2  501    0  0.64175889911E+02  0.71163022374E+02 -0.70989746744E+03  0.71633590925E+03  0.00000000000E+00 0. -1.
          1    1    1    2  502    0 -0.32301218315E+02  0.12868404417E+03  0.73978524528E+03  0.75158842531E+03  0.00000000000E+00 0. -1.
         22    1    3    3    0    0  0.29254518521E+02 -0.15997786989E+03  0.46173481802E+03  0.48953834159E+03  0.00000000000E+00 0.  1.
         22    1    3    3    0    0 -0.61129190117E+02 -0.39869196651E+02  0.14992146449E+03  0.16674164519E+03  0.00000000000E+00 0.  1.
</event>
<event>
 7    1  0.6681656E-006  0.1186343E+03  0.7818608E-02  0.1268554E+00
          2   -1    0    0  502    0  0.00000000000E+00  0.00000000000E+00  0.22170661687E+04  0.22170661687E+04  0.00000000000E+00 0. -1.
          1   -1    0    0  501    0 -0.00000000000E+00 -0.00000000000E+00 -0.76782599108E+02  0.76782599108E+02  0.00000000000E+00 0. -1.
         25    2    1    2    0    0 -0.13584524985E+03 -0.28428064368E+02  0.10297639503E+04  0.10465656321E+04  0.12499496876E+03 0.  0.
          2    1    1    2  501    0  0.70387011797E+02  0.96379621071E+02 -0.12780076103E+02  0.12002788481E+03  0.00000000000E+00 0. -1.
          1    1    1    2  502    0  0.65458238048E+02 -0.67951556703E+02  0.11232996955E+04  0.11272552510E+04  0.00000000000E+00 0. -1.
         22    1    3    3    0    0  0.14954820436E+02  0.21781845404E+02  0.10701339613E+03  0.11022686784E+03  0.00000000000E+00 0. -1.
         22    1    3    3    0    0 -0.15080007028E+03 -0.50209909771E+02  0.92275055415E+03  0.93633876424E+03  0.00000000000E+00 0. -1.
</event>
<event>
 7    1  0.6681656E-006  0.3738561E+02  0.7818608E-02  0.1566152E+00
          2   -1    0    0  502    0  0.00000000000E+00  0.00000000000E+00  0.16724960395E+04  0.16724960395E+04  0.00000000000E+00 0. -1.
          1   -1    0    0  501    0 -0.00000000000E+00 -0.00000000000E+00 -0.16800498059E+02  0.16800498059E+02  0.00000000000E+00 0. -1.
         25    2    1    2    0    0 -0.46359916327E+02  0.25160414192E+02  0.65908000127E+03  0.67289806950E+03  0.12499230209E+03 0.  0.
          2    1    1    2  501    0  0.94481002410E+01 -0.27740557869E+02  0.12953229222E+02  0.32040463422E+02  0.00000000000E+00 0. -1.
          1    1    1    2  502    0  0.36911816086E+02  0.25801436764E+01  0.98366231096E+03  0.98435800465E+03  0.00000000000E+00 0. -1.
         22    1    3    3    0    0 -0.79280753344E+02  0.47108506882E+02  0.38016241027E+03  0.39118807172E+03  0.00000000000E+00 0.  1.
         22    1    3    3    0    0  0.32920837017E+02 -0.21948092690E+02  0.27891759100E+03  0.28170999778E+03  0.00000000000E+00 0.  1.
</event>
<event>
 7    1  0.6681656E-006  0.5965261E+02  0.7818608E-02  0.1400364E+00
          2   -1    0    0  502    0  0.00000000000E+00  0.00000000000E+00  0.11494985050E+03  0.11494985050E+03  0.00000000000E+00 0. -1.
          1   -1    0    0  501    0 -0.00000000000E+00 -0.00000000000E+00 -0.12779464936E+04  0.12779464936E+04  0.00000000000E+00 0. -1.
         25    2    1    2    0    0 -0.49777554411E+02 -0.65273633310E+02 -0.85840027920E+03  0.87132479143E+03  0.12496959911E+03 0.  0.
          2    1    1    2  501    0  0.58814691955E+02  0.62861352787E+01 -0.40254946993E+03  0.40687191993E+03  0.00000000000E+00 0. -1.
          1    1    1    2  502    0 -0.90371375445E+01  0.58987498031E+02  0.97953106011E+02  0.11469963276E+03  0.00000000000E+00 0. -1.
         22    1    3    3    0    0  0.14532884986E+02  0.10712240046E+02 -0.19638532153E+02  0.26676371154E+02  0.00000000000E+00 0.  1.
         22    1    3    3    0    0 -0.64310439397E+02 -0.75985873355E+02 -0.83876174705E+03  0.84464842028E+03  0.00000000000E+00 0.  1.
</event>
<event>
 7    1  0.6681656E-006  0.1051457E+03  0.7818608E-02  0.1374559E+00
          2   -1    0    0  502    0  0.00000000000E+00  0.00000000000E+00  0.16183456291E+04  0.16183456291E+04  0.00000000000E+00 0. -1.
          1   -1    0    0  501    0 -0.00000000000E+00 -0.00000000000E+00 -0.99877286002E+03  0.99877286002E+03  0.00000000000E+00 0. -1.
         25    2    1    2    0    0  0.38732412591E+02 -0.53630420635E+02 -0.46617585748E+02  0.14889775186E+03  0.12498367655E+03 0.  0.
          2    1    1    2  501    0  0.34352963730E+02 -0.22966108248E+02 -0.89875194152E+03  0.89970140637E+03  0.00000000000E+00 0. -1.
          1    1    1    2  502    0 -0.73085376321E+02  0.76596528884E+02  0.15649422963E+04  0.15685193309E+04  0.00000000000E+00 0. -1.
         22    1    3    3    0    0  0.19716797299E+02 -0.40722155855E+02  0.39318418424E+02  0.59941505658E+02  0.00000000000E+00 0. -1.
         22    1    3    3    0    0  0.19015615292E+02 -0.12908264780E+02 -0.85936004173E+02  0.88956246199E+02  0.00000000000E+00 0. -1.
</event>
<event>
 7    1  0.6681656E-006  0.1026849E+03  0.7818608E-02  0.1371226E+00
          2   -1    0    0  502    0  0.00000000000E+00  0.00000000000E+00  0.16607898954E+04  0.16607898954E+04  0.00000000000E+00 0. -1.
          1   -1    0    0  501    0 -0.00000000000E+00 -0.00000000000E+00 -0.12720497871E+04  0.12720497871E+04  0.00000000000E+00 0. -1.
         25    2    1    2    0    0  0.54965206970E+02  0.35461751535E+02 -0.10821976106E+03  0.17780549590E+03  0.12499827154E+03 0.  0.
          2    1    1    2  501    0 -0.75026241644E+02 -0.74050118537E+02 -0.11262846775E+04  0.11312071126E+04  0.00000000000E+00 0. -1.
          1    1    1    2  502    0  0.20061034674E+02  0.38588367003E+02  0.16232445469E+04  0.16238270740E+04  0.00000000000E+00 0. -1.
         22    1    3    3    0    0 -0.54535421136E+01 -0.40194052981E+02 -0.14558200545E+02  0.43095756401E+02  0.00000000000E+00 0.  1.
         22    1    3    3    0    0  0.60418749084E+02  0.75655804516E+02 -0.93661560510E+02  0.13470973950E+03  0.00000000000E+00 0.  1.
</event>
<event>
 7    1  0.6681656E-006  0.8459184E+02  0.7818608E-02  0.1327872E+00
          2   -1    0    0  502    0  0.00000000000E+00  0.00000000000E+00  0.73764621972E+03  0.73764621972E+03  0.00000000000E+00 0. -1.
          1   -1    0    0  501    0 -0.00000000000E+00 -0.00000000000E+00 -0.30740303222E+03  0.30740303222E+03  0.00000000000E+00 0. -1.
         25    2    1    2    0    0 -0.13890642732E+03  0.75187936357E+02  0.74906216655E+01  0.20156903489E+03  0.12500298033E+03 0.  0.
          2    1    1    2  501    0  0.62391046300E+02 -0.44178549139E+02 -0.20060544089E+03  0.21467866633E+03  0.00000000000E+00 0. -1.
          1    1    1    2  502    0  0.76515381020E+02 -0.31009387218E+02  0.62335800672E+03  0.62880155071E+03  0.00000000000E+00 0. -1.
         22    1    3    3    0    0 -0.90273133856E+02 -0.23643452513E+00  0.48972545709E+02  0.10270153276E+03  0.00000000000E+00 0. -1.
         22    1    3    3    0    0 -0.48633293464E+02  0.75424370882E+02 -0.41481924044E+02  0.98867502136E+02  0.00000000000E+00 0. -1.
</event>
<event>
 7    1  0.6681656E-006  0.1343558E+03  0.7818608E-02  0.1295907E+00
          2   -1    0    0  502    0  0.00000000000E+00  0.00000000000E+00  0.17894776492E+03  0.17894776492E+03  0.00000000000E+00 0. -1.
          1   -1    0    0  501    0 -0.00000000000E+00 -0.00000000000E+00 -0.16162232360E+04  0.16162232360E+04  0.00000000000E+00 0. -1.
         25    2    1    2    0    0  0.58662722836E+02  0.18459211708E+03 -0.50066704484E+03  0.55118897340E+03  0.12500491939E+03 0.  0.
          2    1    1    2  501    0 -0.30958319210E+02 -0.56330886995E+02 -0.10611353292E+04  0.10630803230E+04  0.00000000000E+00 0. -1.
          1    1    1    2  502    0 -0.27704403626E+02 -0.12826123009E+03  0.12452690296E+03  0.18090170448E+03  0.00000000000E+00 0. -1.
         22    1    3    3    0    0 -0.63648612951E+01  0.91552387030E+02 -0.35413704974E+03  0.36583521021E+03  0.00000000000E+00 0. -1.
         22    1    3    3    0    0  0.65027584131E+02  0.93039730053E+02 -0.14652999510E+03  0.18535376320E+03  0.00000000000E+00 0. -1.
</event>
<event>
 7    1  0.6681656E-006  0.5720611E+02  0.7818608E-02  0.1447712E+00
          2   -1    0    0  502    0  0.00000000000E+00  0.00000000000E+00  0.10274161047E+04  0.10274161047E+04  0.00000000000E+00 0. -1.
          1   -1    0    0  501    0 -0.00000000000E+00 -0.00000000000E+00 -0.84198994700E+03  0.84198994700E+03  0.00000000000E+00 0. -1.
         25    2    1    2    0    0  0.13108455881E+02 -0.19870421273E+02  0.44510137502E+03  0.46293187207E+03  0.12499607543E+03 0.  0.
          2    1    1    2  501    0  0.39285345884E+02 -0.17338542513E+02 -0.83071789741E+03  0.83182701839E+03  0.00000000000E+00 0. -1.
          1    1    1    2  502    0 -0.52393801765E+02  0.37208963786E+02  0.57104268004E+03  0.57464716120E+03  0.00000000000E+00 0. -1.
         22    1    3    3    0    0 -0.53133033669E+02 -0.16338235814E+02  0.13855350665E+03  0.14928875183E+03  0.00000000000E+00 0.  1.
         22    1    3    3    0    0  0.66241489551E+02 -0.35321854591E+01  0.30654786837E+03  0.31364312024E+03  0.00000000000E+00 0.  1.
</event>
<event>
 7    1  0.6681656E-006  0.6060323E+02  0.7818608E-02  0.1436024E+00
          2   -1    0    0  502    0  0.00000000000E+00  0.00000000000E+00  0.18007869189E+02  0.18007869189E+02  0.00000000000E+00 0. -1.
          1   -1    0    0  501    0 -0.00000000000E+00 -0.00000000000E+00 -0.91136857773E+03  0.91136857773E+03  0.00000000000E+00 0. -1.
         25    2    1    2    0    0 -0.22372976677E+02 -0.34849359975E+02 -0.52983851102E+03  0.54595683364E+03  0.12499995383E+03 0.  0.
          2    1    1    2  501    0  0.66235178954E+02  0.40490675381E+02 -0.23713658914E+03  0.24952025095E+03  0.00000000000E+00 0. -1.
          1    1    1    2  502    0 -0.43862202276E+02 -0.56413154054E+01 -0.12638560837E+03  0.13389936233E+03  0.00000000000E+00 0. -1.
         22    1    3    3    0    0 -0.20858722231E+02 -0.69263387265E+02 -0.47971164152E+03  0.48513478758E+03  0.00000000000E+00 0.  1.
         22    1    3    3    0    0 -0.15142544465E+01  0.34414027289E+02 -0.50126869505E+02  0.60822046062E+02  0.00000000000E+00 0.  1.
</event>
<event>
 7    1  0.6681656E-006  0.1119655E+03  0.7818608E-02  0.1312556E+00
          2   -1    0    0  502    0  0.00000000000E+00  0.00000000000E+00  0.49656058734E+03  0.49656058734E+03  0.00000000000E+00 0. -1.
          1   -1    0    0  501    0 -0.00000000000E+00 -0.00000000000E+00 -0.54609755599E+03  0.54609755599E+03  0.00000000000E+00 0. -1.
         25    2    1    2    0    0 -0.16130589999E+03  0.18170663846E+02  0.14341829817E+03  0.25008834224E+03  0.12500241709E+03 0.  0.
          2    1    1    2  501    0  0.10844563842E+03  0.21722814367E+02 -0.48277413318E+03  0.49528093121E+03  0.00000000000E+00 0. -1.
          1    1    1    2  502    0  0.52860261572E+02 -0.39893478212E+02  0.28981886635E+03  0.29728886987E+03  0.00000000000E+00 0. -1.
         22    1    3    3    0    0  0.10235642792E+01 -0.32331407494E+02  0.96203859015E+01  0.33747880219E+02  0.00000000000E+00 0.  1.
         22    1    3    3    0    0 -0.16232946427E+03  0.50502071339E+02  0.13379791227E+03  0.21634046202E+03  0.00000000000E+00 0.  1.
</event>
<event>
 7    1  0.6681656E-006  0.7211353E+02  0.7818608E-02  0.1390018E+00
          2   -1    0    0  502    0  0.00000000000E+00  0.00000000000E+00  0.27445164864E+04  0.27445164864E+04  0.00000000000E+00 0. -1.
          1   -1    0    0  501    0 -0.00000000000E+00 -0.00000000000E+00 -0.16121153222E+04  0.16121153222E+04  0.00000000000E+00 0. -1.
         25    2    1    2    0    0  0.40255375814E+01 -0.24193489835E+02 -0.13832612139E+02  0.12813183717E+03  0.12499958654E+03 0.  0.
          2    1    1    2  501    0 -0.46505955704E+02  0.56114631399E+02 -0.15400085502E+04  0.15417321396E+04  0.00000000000E+00 0. -1.
          1    1    1    2  502    0  0.42480418122E+02 -0.31921141564E+02  0.26862423266E+04  0.26867678318E+04  0.00000000000E+00 0. -1.
         22    1    3    3    0    0  0.61750098136E+02  0.26758188257E+01 -0.17848765051E+02  0.64333607392E+02  0.00000000000E+00 0.  1.
         22    1    3    3    0    0 -0.57724560554E+02 -0.26869308660E+02  0.40161529115E+01  0.63798229782E+02  0.00000000000E+00 0.  1.
</event>
<event>
 7    1  0.6681656E-006  0.8870685E+02  0.7818608E-02  0.1312559E+00
          2   -1    0    0  502    0  0.00000000000E+00  0.00000000000E+00  0.11249786058E+03  0.11249786058E+03  0.00000000000E+00 0. -1.
          1   -1    0    0  501    0 -0.00000000000E+00 -0.00000000000E+00 -0.25902813524E+04  0.25902813524E+04  0.00000000000E+00 0. -1.
         25    2    1    2    0    0  0.93727292977E+01 -0.16446415944E+03 -0.64724555009E+03  0.67947646308E+03  0.12500061588E+03 0.  0.
          2    1    1    2  501    0 -0.21307949109E+02  0.81734474142E+02 -0.19076861827E+04  0.19095552164E+04  0.00000000000E+00 0. -1.
          1    1    1    2  502    0  0.11935219811E+02  0.82729685300E+02  0.77148240929E+02  0.11374753351E+03  0.00000000000E+00 0. -1.
         22    1    3    3    0    0 -0.45589326261E+02 -0.10456254605E+03 -0.48202797715E+03  0.49534097696E+03  0.00000000000E+00 0. -1.
         22    1    3    3    0    0  0.54962055559E+02 -0.59901613393E+02 -0.16521757294E+03  0.18413548611E+03  0.00000000000E+00 0. -1.
</event>
<event>
 7    1  0.6681656E-006  0.1692487E+03  0.7818608E-02  0.1202508E+00
          2   -1    0    0  502    0  0.00000000000E+00  0.00000000000E+00  0.12482239470E+03  0.12482239470E+03  0.00000000000E+00 0. -1.
          1   -1    0    0  501    0 -0.00000000000E+00 -0.00000000000E+00 -0.13890989683E+04  0.13890989683E+04  0.00000000000E+00 0. -1.
         25    2    1    2    0    0  0.26189355485E+03 -0.44481190619E+02 -0.48354704690E+03  0.56569415519E+03  0.12500128103E+03 0.  0.
          2    1    1    2  501    0 -0.13519892168E+03  0.73796173109E+02 -0.80182519924E+03  0.81648531752E+03  0.00000000000E+00 0. -1.
          1    1    1    2  502    0 -0.12669463316E+03 -0.29314982489E+02  0.21095672490E+02  0.13174189033E+03  0.00000000000E+00 0. -1.
         22    1    3    3    0    0  0.15359640631E+03  0.34272814528E+02 -0.22567638316E+03  0.27512962720E+03  0.00000000000E+00 0. -1.
         22    1    3    3    0    0  0.10829714854E+03 -0.78754005147E+02 -0.25787066374E+03  0.29056452799E+03  0.00000000000E+00 0. -1.
</event>
<event>
 7    1  0.6681656E-006  0.1212238E+03  0.7818608E-02  0.1269837E+00
          2   -1    0    0  502    0  0.00000000000E+00  0.00000000000E+00  0.12640356374E+04  0.12640356374E+04  0.00000000000E+00 0. -1.
          1   -1    0    0  501    0 -0.00000000000E+00 -0.00000000000E+00 -0.67188802641E+02  0.67188802641E+02  0.00000000000E+00 0. -1.
         25    2    1    2    0    0 -0.35720972407E+02 -0.10664853199E+03  0.65865549211E+03  0.67978240841E+03  0.12500867269E+03 0.  0.
          2    1    1    2  501    0  0.11201503916E+03  0.56687885587E+02  0.22245083601E+02  0.12749795729E+03  0.00000000000E+00 0. -1.
          1    1    1    2  502    0 -0.76294066751E+02  0.49960646401E+02  0.51594625902E+03  0.52394407431E+03  0.00000000000E+00 0. -1.
         22    1    3    3    0    0 -0.65843613313E+02 -0.30307781524E+02  0.44578788533E+03  0.45164231615E+03  0.00000000000E+00 0.  1.
         22    1    3    3    0    0  0.30122640906E+02 -0.76340750465E+02  0.21286760678E+03  0.22814009226E+03  0.00000000000E+00 0.  1.
</event>
<event>
 7    1  0.6681656E-006  0.7192179E+02  0.7818608E-02  0.1388357E+00
          2   -1    0    0  502    0  0.00000000000E+00  0.00000000000E+00  0.87200325167E+03  0.87200325167E+03  0.00000000000E+00 0. -1.
          1   -1    0    0  501    0 -0.00000000000E+00 -0.00000000000E+00 -0.10271391385E+03  0.10271391385E+03  0.00000000000E+00 0. -1.
         25    2    1    2    0    0 -0.22619664603E+02  0.20131186484E+02  0.24743139114E+03  0.27886222727E+03  0.12499973833E+03 0.  0.
          2    1    1    2  501    0  0.14369226774E+02 -0.73492311097E+02 -0.69423186714E+02  0.10211353153E+03  0.00000000000E+00 0. -1.
          1    1    1    2  502    0  0.82504378291E+01  0.53361124613E+02  0.59128113339E+03  0.59374140672E+03  0.00000000000E+00 0. -1.
         22    1    3    3    0    0  0.60814822796E+01  0.44919598775E+02  0.22224386359E+02  0.50484434531E+02  0.00000000000E+00 0.  1.
         22    1    3    3    0    0 -0.28701146883E+02 -0.24788412291E+02  0.22520700478E+03  0.22837779274E+03  0.00000000000E+00 0.  1.
</event>
<event>
 7    1  0.6681656E-006  0.1275496E+03  0.7818608E-02  0.1252924E+00
          2   -1    0    0  502    0  0.00000000000E+00  0.00000000000E+00  0.27602081338E+03  0.27602081338E+03  0.00000000000E+00 0. -1.
          1   -1    0    0  501    0 -0.00000000000E+00 -0.00000000000E+00 -0.39215354115E+03  0.39215354115E+03  0.00000000000E+00 0. -1.
         25    2    1    2    0    0 -0.18342967229E+03 -0.99779107794E+02  0.35591979078E+02  0.24595455853E+03  0.12499816343E+03 0.  0.
          2    1    1    2  501    0  0.80024693255E+02  0.63742942047E+02 -0.25309926268E+03  0.27299514823E+03  0.00000000000E+00 0. -1.
          1    1    1    2  502    0  0.10340497903E+03  0.36036165747E+02  0.10137455583E+03  0.14922464776E+03  0.00000000000E+00 0. -1.
         22    1    3    3    0    0  0.13158485581E+01 -0.43977254013E+02  0.29305044353E+02  0.52863181445E+02  0.00000000000E+00 0. -1.
         22    1    3    3    0    0 -0.18474552084E+03 -0.55801853781E+02  0.62869347253E+01  0.19309137709E+03  0.00000000000E+00 0. -1.
</event>
<event>
 7    1  0.6681656E-006  0.8724809E+02  0.7818608E-02  0.1334087E+00
          2   -1    0    0  502    0  0.00000000000E+00  0.00000000000E+00  0.45154137168E+03  0.45154137168E+03  0.00000000000E+00 0. -1.
          1   -1    0    0  501    0 -0.00000000000E+00 -0.00000000000E+00 -0.16999062891E+03  0.16999062891E+03  0.00000000000E+00 0. -1.
         25    2    1    2    0    0  0.13635351937E+03 -0.42710672893E+02  0.63408286973E+02  0.20015510157E+03  0.12499988001E+03 0.  0.
          2    1    1    2  501    0 -0.80867414676E+02 -0.26556928034E+00 -0.80794056036E+02  0.11431224245E+03  0.00000000000E+00 0. -1.
          1    1    1    2  502    0 -0.55486104696E+02  0.42976242173E+02  0.29893651184E+03  0.30706465657E+03  0.00000000000E+00 0. -1.
         22    1    3    3    0    0  0.15228557776E+03 -0.10366283883E+02  0.59745145390E+02  0.16391412212E+03  0.00000000000E+00 0. -1.
         22    1    3    3    0    0 -0.15932058383E+02 -0.32344389009E+02  0.36631415829E+01  0.36240979443E+02  0.00000000000E+00 0. -1.
</event>
<event>
 7    1  0.6681656E-006  0.2602614E+02  0.7818608E-02  0.1646821E+00
          2   -1    0    0  502    0  0.00000000000E+00  0.00000000000E+00  0.11463743811E+03  0.11463743811E+03  0.00000000000E+00 0. -1.
          1   -1    0    0  501    0 -0.00000000000E+00 -0.00000000000E+00 -0.19415274735E+03  0.19415274735E+03  0.00000000000E+00 0. -1.
         25    2    1    2    0    0  0.92663078347E+01  0.52778281319E+01 -0.11781630701E+03  0.17210357112E+03  0.12500094825E+03 0.  0.
          2    1    1    2  501    0  0.88055433495E+01 -0.24470110584E+02 -0.43534085897E+02  0.50710359302E+02  0.00000000000E+00 0. -1.
          1    1    1    2  502    0 -0.18071851184E+02  0.19192282452E+02  0.81835083672E+02  0.85976255039E+02  0.00000000000E+00 0. -1.
         22    1    3    3    0    0  0.44324741947E+02 -0.17166955140E+02 -0.12134889601E+03  0.13032628922E+03  0.00000000000E+00 0. -1.
         22    1    3    3    0    0 -0.35058434112E+02  0.22444783272E+02  0.35325889976E+01  0.41777281907E+02  0.00000000000E+00 0. -1.
</event>
<event>
 7    1  0.9949768E-006  0.1292575E+03  0.7818608E-02  0.1325380E+00
          2   -1    0    0  502    0  0.00000000000E+00  0.00000000000E+00  0.16032810931E+04  0.16032810931E+04  0.00000000000E+00 0. -1.
          1   -1    0    0  501    0 -0.00000000000E+00 -0.00000000000E+00 -0.15779246069E+04  0.15779246069E+04  0.00000000000E+00 0. -1.
         25    2    1    2    0    0 -0.17024374961E+03 -0.21529904197E+02 -0.34744745985E+03  0.40717240093E+03  0.12499262245E+03 0.  0.
          2    1    1    2  501    0  0.12480292544E+03 -0.19446729139E+01 -0.11969529700E+04  0.12034433781E+04  0.00000000000E+00 0. -1.
          1    1    1    2  502    0  0.45440824167E+02  0.23474577111E+02  0.15697569161E+04  0.15705899210E+04  0.00000000000E+00 0. -1.
         22    1    3    3    0    0 -0.44543556283E+01  0.44580902842E+01  0.10269195375E+02  0.12048743780E+02  0.00000000000E+00 0.  1.
         22    1    3    3    0    0 -0.16578939398E+03 -0.25987994482E+02 -0.35771665523E+03  0.39512365715E+03  0.00000000000E+00 0.  1.
</event>
<event>
 7    1  0.6681656E-006  0.7774821E+02  0.7818608E-02  0.1369927E+00
          2   -1    0    0  502    0  0.00000000000E+00  0.00000000000E+00  0.17197802794E+03  0.17197802794E+03  0.00000000000E+00 0. -1.
          1   -1    0    0  501    0 -0.00000000000E+00 -0.00000000000E+00 -0.90495590050E+03  0.90495590050E+03  0.00000000000E+00 0. -1.
         25    2    1    2    0    0 -0.87971892372E+02  0.13705926267E+02 -0.35203974421E+03  0.38403623690E+03  0.12499977395E+03 0.  0.
          2    1    1    2  501    0  0.36659273911E+02  0.45024785314E+02 -0.52546942857E+03  0.52866743234E+03  0.00000000000E+00 0. -1.
          1    1    1    2  502    0  0.51312618461E+02 -0.58730711580E+02  0.14453130021E+03  0.16423025920E+03  0.00000000000E+00 0. -1.
         22    1    3    3    0    0 -0.46604722105E+02  0.64421468838E+01 -0.33568229706E+03  0.33896328110E+03  0.00000000000E+00 0.  1.
         22    1    3    3    0    0 -0.41367170267E+02  0.72637793828E+01 -0.16357447150E+02  0.45072955795E+02  0.00000000000E+00 0.  1.
</event>
<event>
 7    1  0.6681656E-006  0.1039087E+03  0.7818608E-02  0.1305539E+00
          2   -1    0    0  502    0  0.00000000000E+00  0.00000000000E+00  0.11447008007E+03  0.11447008007E+03  0.00000000000E+00 0. -1.
          1   -1    0    0  501    0 -0.00000000000E+00 -0.00000000000E+00 -0.86940104116E+03  0.86940104116E+03  0.00000000000E+00 0. -1.
         25    2    1    2    0    0  0.12296919841E+03  0.10122886759E+03 -0.17934791537E+03  0.27048088837E+03  0.12500211533E+03 0.  0.
          2    1    1    2  501    0 -0.73853210046E+02 -0.18181173832E+02 -0.60713272454E+03  0.61187825335E+03  0.00000000000E+00 0. -1.
          1    1    1    2  502    0 -0.49115988361E+02 -0.83047693754E+02  0.31549678822E+02  0.10151197951E+03  0.00000000000E+00 0. -1.
         22    1    3    3    0    0  0.69576264771E+02  0.36975831263E+02 -0.71838924115E+01  0.79118120726E+02  0.00000000000E+00 0. -1.
         22    1    3    3    0    0  0.53392933636E+02  0.64253036322E+02 -0.17216402296E+03  0.19136276765E+03  0.00000000000E+00 0. -1.
</event>
<event>
 7    1  0.6681656E-006  0.2712013E+02  0.7818608E-02  0.1682857E+00
          2   -1    0    0  502    0  0.00000000000E+00  0.00000000000E+00  0.13327091013E+03  0.13327091013E+03  0.00000000000E+00 0. -1.
          1   -1    0    0  501    0 -0.00000000000E+00 -0.00000000000E+00 -0.74677086256E+03  0.74677086256E+03  0.00000000000E+00 0. -1.
         25    2    1    2    0    0  0.56371714860E+01 -0.24067926844E+02 -0.40162232875E+03  0.42134874275E+03  0.12499290085E+03 0.  0.
          2    1    1    2  501    0  0.14789100966E+02  0.23386204850E+02 -0.33386287848E+03  0.33500754277E+03  0.00000000000E+00 0. -1.
          1    1    1    2  502    0 -0.20426272452E+02  0.68172199424E+00  0.12198525479E+03  0.12368548718E+03  0.00000000000E+00 0. -1.
         22    1    3    3    0    0 -0.22021867574E+02 -0.61849541596E+02 -0.12911859511E+03  0.14485144131E+03  0.00000000000E+00 0.  1.
         22    1    3    3    0    0  0.27659039059E+02  0.37781614752E+02 -0.27250373364E+03  0.27649730144E+03  0.00000000000E+00 0.  1.
</event>
<event>
 7    1  0.6681656E-006  0.1375517E+03  0.7818608E-02  0.1291571E+00
          2   -1    0    0  502    0  0.00000000000E+00  0.00000000000E+00  0.14025115521E+04  0.14025115521E+04  0.00000000000E+00 0. -1.
          1   -1    0    0  501    0 -0.00000000000E+00 -0.00000000000E+00 -0.16069428240E+03  0.16069428240E+03  0.00000000000E+00 0. -1.
         25    2    1    2    0    0  0.14567270572E+03  0.32082290953E+02  0.68839734982E+03  0.71537833974E+03  0.12500178857E+03 0.  0.
          2    1    1    2  501    0 -0.38544720621E+02  0.52796866691E+02 -0.13285936117E+03  0.14807030246E+03  0.00000000000E+00 0. -1.
          1    1    1    2  502    0 -0.10712798509E+03 -0.84879157644E+02  0.68627928100E+03  0.69975719227E+03  0.00000000000E+00 0. -1.
         22    1    3    3    0    0  0.58148571785E+02  0.18786702657E+02  0.80489266952E+02  0.10105799667E+03  0.00000000000E+00 0.  1.
         22    1    3    3    0    0  0.87524133932E+02  0.13295588296E+02  0.60790808286E+03  0.61432034306E+03  0.00000000000E+00 0.  1.
</event>
<event>
 7    1  0.6681656E-006  0.1151662E+03  0.7818608E-02  0.1257004E+00
          2   -1    0    0  502    0  0.00000000000E+00  0.00000000000E+00  0.20827964153E+03  0.20827964153E+03  0.00000000000E+00 0. -1.
          1   -1    0    0  501    0 -0.00000000000E+00 -0.00000000000E+00 -0.39094007987E+03  0.39094007987E+03  0.00000000000E+00 0. -1.
         25    2    1    2    0    0  0.86042480885E+00 -0.22646945900E+02  0.12167441771E+03  0.17590546964E+03  0.12499778332E+03 0.  0.
          2    1    1    2  501    0 -0.90799740531E+02  0.83907640007E+02 -0.28781698555E+03  0.31324703048E+03  0.00000000000E+00 0. -1.
          1    1    1    2  502    0  0.89939315722E+02 -0.61260694107E+02 -0.16517870495E+02  0.11006722128E+03  0.00000000000E+00 0. -1.
         22    1    3    3    0    0 -0.37404415206E+02 -0.33246436173E+02  0.12637448477E+03  0.13592250069E+03  0.00000000000E+00 0. -1.
         22    1    3    3    0    0  0.38264840015E+02  0.10599490273E+02 -0.47000670589E+01  0.39982968947E+02  0.00000000000E+00 0. -1.
</event>
<event>
 7    1  0.6681656E-006  0.6812989E+02  0.7818608E-02  0.1392176E+00
          2   -1    0    0  502    0  0.00000000000E+00  0.00000000000E+00  0.72856969657E+03  0.72856969657E+03  0.00000000000E+00 0. -1.
          1   -1    0    0  501    0 -0.00000000000E+00 -0.00000000000E+00 -0.67168975193E+02  0.67168975193E+02  0.00000000000E+00 0. -1.
         25    2    1    2    0    0  0.12562534842E+02  0.49943320582E+02  0.33207331880E+03  0.35853718871E+03  0.12499629626E+03 0.  0.
          2    1    1    2  501    0  0.42331467155E+02 -0.56452818384E+02 -0.27786084876E+02  0.75834954525E+02  0.00000000000E+00 0. -1.
          1    1    1    2  502    0 -0.54894001997E+02  0.65094978023E+01  0.35711348745E+03  0.36136652853E+03  0.00000000000E+00 0. -1.
         22    1    3    3    0    0  0.32060565899E+00  0.82301120557E+02  0.30095310047E+03  0.31200375946E+03  0.00000000000E+00 0. -1.
         22    1    3    3    0    0  0.12241929183E+02 -0.32357799975E+02  0.31120218330E+02  0.46533429255E+02  0.00000000000E+00 0. -1.
</event>
<event>
 7    1  0.6681656E-006  0.4622937E+02  0.7818608E-02  0.1482669E+00
          2   -1    0    0  502    0  0.00000000000E+00  0.00000000000E+00  0.31977083299E+03  0.31977083299E+03  0.00000000000E+00 0. -1.
          1   -1    0    0  501    0 -0.00000000000E+00 -0.00000000000E+00 -0.42442056703E+03  0.42442056703E+03  0.00000000000E+00 0. -1.
         25    2    1    2    0    0  0.92576081976E+01 -0.20890463352E+02 -0.52100537255E+02  0.13734108913E+03  0.12500397599E+03 0.  0.
          2    1    1    2  501    0 -0.37938286400E+02 -0.16310735240E+02 -0.32639901087E+03  0.32900101513E+03  0.00000000000E+00 0. -1.
          1    1    1    2  502    0  0.28680678202E+02  0.37201198592E+02  0.27384981409E+03  0.27784929576E+03  0.00000000000E+00 0. -1.
         22    1    3    3    0    0 -0.18987714261E+02 -0.61666201803E+02 -0.58788992336E+02  0.87289170906E+02  0.00000000000E+00 0.  1.
         22    1    3    3    0    0  0.28245322458E+02  0.40775738451E+02  0.66884550810E+01  0.50051918228E+02  0.00000000000E+00 0.  1.
</event>
<event>
 7    1  0.6681656E-006  0.1948452E+03  0.7818608E-02  0.1326042E+00
          2   -1    0    0  502    0  0.00000000000E+00  0.00000000000E+00  0.17065686651E+04  0.17065686651E+04  0.00000000000E+00 0. -1.
          1   -1    0    0  501    0 -0.00000000000E+00 -0.00000000000E+00 -0.18121595846E+03  0.18121595846E+03  0.00000000000E+00 0. -1.
         25    2    1    2    0    0 -0.12140184315E+03 -0.13543637285E+03  0.95703836917E+02  0.24055332436E+03  0.12500103538E+03 0.  0.
          2    1    1    2  501    0  0.15483476171E+03  0.13095990360E+03 -0.13919936834E+02  0.20326845408E+03  0.00000000000E+00 0. -1.
          1    1    1    2  502    0 -0.33432918554E+02  0.44764692527E+01  0.14435688065E+04  0.14439628451E+04  0.00000000000E+00 0. -1.
         22    1    3    3    0    0 -0.30122971083E+02  0.22952749827E+02  0.17529902428E+02  0.41731517952E+02  0.00000000000E+00 0.  1.
         22    1    3    3    0    0 -0.91278872071E+02 -0.15838912268E+03  0.78173934489E+02  0.19882180641E+03  0.00000000000E+00 0.  1.
</event>
<event>
 7    1  0.6681656E-006  0.8227278E+02  0.7818608E-02  0.1412157E+00
          2   -1    0    0  502    0  0.00000000000E+00  0.00000000000E+00  0.24616412504E+04  0.24616412504E+04  0.00000000000E+00 0. -1.
          1   -1    0    0  501    0 -0.00000000000E+00 -0.00000000000E+00 -0.11063322267E+04  0.11063322267E+04  0.00000000000E+00 0. -1.
         25    2    1    2    0    0 -0.62806139109E+02  0.65669023593E+02 -0.13077745228E+02  0.15509896736E+03  0.12501052150E+03 0.  0.
          2    1    1    2  501    0 -0.14109444469E+02 -0.36462244199E+02 -0.10211618009E+04  0.10219099742E+04  0.00000000000E+00 0. -1.
          1    1    1    2  502    0  0.76915583578E+02 -0.29206779395E+02  0.23895485698E+04  0.23909645356E+04  0.00000000000E+00 0. -1.
         22    1    3    3    0    0 -0.54402186948E+02 -0.25838270028E+02  0.81813503965E+01  0.60779508364E+02  0.00000000000E+00 0. -1.
         22    1    3    3    0    0 -0.84039521617E+01  0.91507293621E+02 -0.21259095625E+02  0.94319458992E+02  0.00000000000E+00 0. -1.
</event>
<event>
 7    1  0.6681656E-006  0.1063565E+03  0.7818608E-02  0.1283124E+00
          2   -1    0    0  502    0  0.00000000000E+00  0.00000000000E+00  0.21438626153E+04  0.21438626153E+04  0.00000000000E+00 0. -1.
          1   -1    0    0  501    0 -0.00000000000E+00 -0.00000000000E+00 -0.16074574225E+03  0.16074574225E+03  0.00000000000E+00 0. -1.
         25    2    1    2    0    0  0.10180500704E+02  0.18783070451E+03  0.21341259121E+03  0.31073042034E+03  0.12499777553E+03 0.  0.
          2    1    1    2  501    0  0.11551467955E+02 -0.98914387747E+02 -0.88615691207E+02  0.13330503833E+03  0.00000000000E+00 0. -1.
          1    1    1    2  502    0 -0.21731968659E+02 -0.88916316768E+02  0.18583199730E+04  0.18605728989E+04  0.00000000000E+00 0. -1.
         22    1    3    3    0    0  0.25994425894E+02 -0.29879895958E+01  0.59731458689E+02  0.65211083541E+02  0.00000000000E+00 0. -1.
         22    1    3    3    0    0 -0.15813925190E+02  0.19081869411E+03  0.15368113252E+03  0.24551933680E+03  0.00000000000E+00 0. -1.
</event>
<event>
 7    1  0.7592176E-006  0.1211290E+03  0.7818608E-02  0.1311664E+00
          2   -1    0    0  502    0  0.00000000000E+00  0.00000000000E+00  0.28832684432E+04  0.28832684432E+04  0.00000000000E+00 0. -1.
          1   -1    0    0  501    0 -0.00000000000E+00 -0.00000000000E+00 -0.13862577764E+04  0.13862577764E+04  0.00000000000E+00 0. -1.
         25    2    1    2    0    0 -0.10781235338E+03  0.77311968012E+02 -0.16388381413E+03  0.24512868378E+03  0.12501809124E+03 0.  0.
          2    1    1    2  501    0 -0.12166656551E+02 -0.60499181761E+02 -0.11796538158E+04  0.11812668216E+04  0.00000000000E+00 0. -1.
          1    1    1    2  502    0  0.11997900993E+03 -0.16812786251E+02  0.28405482967E+04  0.28431307143E+04  0.00000000000E+00 0. -1.
         22    1    3    3    0    0 -0.13554864376E+03  0.53461324763E+02 -0.13111831627E+03  0.19601928714E+03  0.00000000000E+00 0. -1.
         22    1    3    3    0    0  0.27736290383E+02  0.23850643249E+02 -0.32765497860E+02  0.49109396633E+02  0.00000000000E+00 0. -1.
</event>
<event>
 7    1  0.6681656E-006  0.5967338E+02  0.7818608E-02  0.1439594E+00
          2   -1    0    0  502    0  0.00000000000E+00  0.00000000000E+00  0.36705485396E+04  0.36705485396E+04  0.00000000000E+00 0. -1.
          1   -1    0    0  501    0 -0.00000000000E+00 -0.00000000000E+00 -0.67325444020E+01  0.67325444020E+01  0.00000000000E+00 0. -1.
         25    2    1    2    0    0 -0.66350970295E+01 -0.24711306133E+01  0.23602032026E+04  0.23635216354E+04  0.12500093054E+03 0.  0.
          2    1    1    2  501    0 -0.42809583124E+02 -0.41572249482E+02  0.21479487529E+03  0.22292992348E+03  0.00000000000E+00 0. -1.
          1    1    1    2  502    0  0.49444680153E+02  0.44043380095E+02  0.10888179173E+04  0.10908295251E+04  0.00000000000E+00 0. -1.
         22    1    3    3    0    0 -0.11257045326E+02  0.98204952613E+01  0.32363640800E+02  0.35645033910E+02  0.00000000000E+00 0. -1.
         22    1    3    3    0    0  0.46219482969E+01 -0.12291625875E+02  0.23278395618E+04  0.23278766015E+04  0.00000000000E+00 0. -1.
</event>
<event>
 7    1  0.6681656E-006  0.9437592E+02  0.7818608E-02  0.1348156E+00
          2   -1    0    0  502    0  0.00000000000E+00  0.00000000000E+00  0.10356070633E+04  0.10356070633E+04  0.00000000000E+00 0. -1.
          1   -1    0    0  501    0 -0.00000000000E+00 -0.00000000000E+00 -0.39114872031E+02  0.39114872031E+02  0.00000000000E+00 0. -1.
         25    2    1    2    0    0  0.14098489133E+03  0.35063769888E+02  0.29616158324E+03  0.35276331945E+03  0.12499627445E+03 0.  0.
          2    1    1    2  501    0 -0.57041405045E+02 -0.68357809499E+01  0.10163508616E+03  0.11674819283E+03  0.00000000000E+00 0. -1.
          1    1    1    2  502    0 -0.83943486283E+02 -0.28227988938E+02  0.59869552185E+03  0.60521042302E+03  0.00000000000E+00 0. -1.
         22    1    3    3    0    0  0.49800710801E+02  0.25258243202E+02  0.16168830181E+02  0.58133645295E+02  0.00000000000E+00 0. -1.
         22    1    3    3    0    0  0.91184180527E+02  0.98055266860E+01  0.27999275305E+03  0.29462967416E+03  0.00000000000E+00 0. -1.
</event>
<event>
 7    1  0.6713249E-006  0.9364780E+02  0.7818608E-02  0.1424937E+00
          2   -1    0    0  502    0  0.00000000000E+00  0.00000000000E+00  0.29167594071E+04  0.29167594071E+04  0.00000000000E+00 0. -1.
          1   -1    0    0  501    0 -0.00000000000E+00 -0.00000000000E+00 -0.13484685671E+04  0.13484685671E+04  0.00000000000E+00 0. -1.
         25    2    1    2    0    0 -0.63809226258E+02  0.10197944376E+03 -0.17980086158E+03  0.24984995110E+03  0.12500089573E+03 0.  0.
          2    1    1    2  501    0  0.26621273583E+02 -0.16129435974E+02 -0.11326699363E+04  0.11330975401E+04  0.00000000000E+00 0. -1.
          1    1    1    2  502    0  0.37187952675E+02 -0.85850007783E+02  0.28807616379E+04  0.28822804829E+04  0.00000000000E+00 0. -1.
         22    1    3    3    0    0 -0.91512049111E+02  0.41987574922E+02 -0.73398074892E+02  0.12459810985E+03  0.00000000000E+00 0. -1.
         22    1    3    3    0    0  0.27702822854E+02  0.59991868836E+02 -0.10640278669E+03  0.12525184125E+03  0.00000000000E+00 0. -1.
</event>
<event>
 7    1  0.6681656E-006  0.1390232E+03  0.7818608E-02  0.1227566E+00
          2   -1    0    0  502    0  0.00000000000E+00  0.00000000000E+00  0.12117982296E+04  0.12117982296E+04  0.00000000000E+00 0. -1.
          1   -1    0    0  501    0 -0.00000000000E+00 -0.00000000000E+00 -0.13815536014E+04  0.13815536014E+04  0.00000000000E+00 0. -1.
         25    2    1    2    0    0  0.23372235506E+03 -0.31366011478E+02  0.40981351226E+03  0.48906224847E+03  0.12499920848E+03 0.  0.
          2    1    1    2  501    0 -0.10856229513E+03  0.54386855271E+02 -0.13338414545E+04  0.13393568336E+04  0.00000000000E+00 0. -1.
          1    1    1    2  502    0 -0.12516005992E+03 -0.23020843793E+02  0.75427257040E+03  0.76493274888E+03  0.00000000000E+00 0. -1.
         22    1    3    3    0    0  0.18322226695E+03 -0.70970265518E+02  0.34974365371E+03  0.40115807483E+03  0.00000000000E+00 0.  1.
         22    1    3    3    0    0  0.50500088103E+02  0.39604254039E+02  0.60069858552E+02  0.87904173638E+02  0.00000000000E+00 0.  1.
</event>
<event>
 7    1  0.6681656E-006  0.6734443E+02  0.7818608E-02  0.1407050E+00
          2   -1    0    0  502    0  0.00000000000E+00  0.00000000000E+00  0.24690788961E+03  0.24690788961E+03  0.00000000000E+00 0. -1.
          1   -1    0    0  501    0 -0.00000000000E+00 -0.00000000000E+00 -0.33588821031E+04  0.33588821031E+04  0.00000000000E+00 0. -1.
         25    2    1    2    0    0  0.45909124460E+02  0.12394846029E+02 -0.93507363111E+02  0.16318847180E+03  0.12500228180E+03 0.  0.
          2    1    1    2  501    0 -0.12901476350E+02  0.48003186202E+02 -0.32247527876E+04  0.32251358569E+04  0.00000000000E+00 0. -1.
          1    1    1    2  502    0 -0.33007648110E+02 -0.60398032231E+02  0.20628593724E+03  0.21746566404E+03  0.00000000000E+00 0. -1.
         22    1    3    3    0    0 -0.13483813557E+02 -0.38177903565E+02  0.11805174879E+01  0.40506285564E+02  0.00000000000E+00 0.  1.
         22    1    3    3    0    0  0.59392938017E+02  0.50572749594E+02 -0.94687880599E+02  0.12268218624E+03  0.00000000000E+00 0.  1.
</event>
<event>
 7    1  0.6681656E-006  0.2694290E+03  0.7818608E-02  0.1190661E+00
          2   -1    0    0  502    0  0.00000000000E+00  0.00000000000E+00  0.11736666859E+04  0.11736666859E+04  0.00000000000E+00 0. -1.
          1   -1    0    0  501    0 -0.00000000000E+00 -0.00000000000E+00 -0.38966208017E+03  0.38966208017E+03  0.00000000000E+00 0. -1.
         25    2    1    2    0    0  0.51976552469E+00 -0.26325045487E+03 -0.12379505220E+03  0.31662557460E+03  0.12500186955E+03 0.  0.
          2    1    1    2  501    0  0.92570528117E+02  0.86656896088E+01 -0.13796974598E+03  0.16637321797E+03  0.00000000000E+00 0. -1.
          1    1    1    2  502    0 -0.93090293641E+02  0.25458476527E+03  0.10457694039E+04  0.10803299735E+04  0.00000000000E+00 0. -1.
         22    1    3    3    0    0  0.25728705387E+02 -0.14462989840E+03 -0.12863313119E+03  0.19525945875E+03  0.00000000000E+00 0. -1.
         22    1    3    3    0    0 -0.25208939863E+02 -0.11862055648E+03  0.48380789854E+01  0.12136611585E+03  0.00000000000E+00 0. -1.
</event>
<event>
 7    1  0.6681656E-006  0.5571284E+02  0.7818608E-02  0.1440118E+00
          2   -1    0    0  502    0  0.00000000000E+00  0.00000000000E+00  0.11435334888E+04  0.11435334888E+04  0.00000000000E+00 0. -1.
          1   -1    0    0  501    0 -0.00000000000E+00 -0.00000000000E+00 -0.18922740291E+03  0.18922740291E+03  0.00000000000E+00 0. -1.
         25    2    1    2    0    0  0.17594372033E+02 -0.98060665602E+02  0.32868882709E+03  0.36549603801E+03  0.12500221070E+03 0.  0.
          2    1    1    2  501    0  0.74556931842E+00  0.55164780599E+02 -0.16566432777E+03  0.17460921622E+03  0.00000000000E+00 0. -1.
          1    1    1    2  502    0 -0.18339941352E+02  0.42895885004E+02  0.79128158657E+03  0.79265563749E+03  0.00000000000E+00 0. -1.
         22    1    3    3    0    0 -0.50679748398E+02 -0.54952061842E+02  0.20065717156E+03  0.21412955540E+03  0.00000000000E+00 0.  1.
         22    1    3    3    0    0  0.68274120431E+02 -0.43108603760E+02  0.12803165554E+03  0.15136648261E+03  0.00000000000E+00 0.  1.
</event>
<event>
 7    1  0.6681656E-006  0.6391263E+02  0.7818608E-02  0.1398046E+00
          2   -1    0    0  502    0  0.00000000000E+00  0.00000000000E+00  0.52349867078E+03  0.52349867078E+03  0.00000000000E+00 0. -1.
          1   -1    0    0  501    0 -0.00000000000E+00 -0.00000000000E+00 -0.67670297696E+03  0.67670297696E+03  0.00000000000E+00 0. -1.
         25    2    1    2    0    0  0.10618897560E+03  0.35060232967E+02 -0.47828902416E+03  0.50684389466E+03  0.12500009779E+03 0.  0.
          2    1    1    2  501    0 -0.42470261170E+02 -0.36853864297E+02 -0.17778417087E+03  0.18646485408E+03  0.00000000000E+00 0. -1.
          1    1    1    2  502    0 -0.63718714426E+02  0.17936313304E+01  0.50286888885E+03  0.50689289900E+03  0.00000000000E+00 0. -1.
         22    1    3    3    0    0  0.87415675530E+02  0.45893310064E+02 -0.47471904443E+03  0.48487716732E+03  0.00000000000E+00 0. -1.
         22    1    3    3    0    0  0.18773300067E+02 -0.10833077097E+02 -0.35699797238E+01  0.21966727340E+02  0.00000000000E+00 0. -1.
</event>
<event>
 7    1  0.6681656E-006  0.9540378E+02  0.7818608E-02  0.1324658E+00
          2   -1    0    0  502    0  0.00000000000E+00  0.00000000000E+00  0.15078753938E+04  0.15078753938E+04  0.00000000000E+00 0. -1.
          1   -1    0    0  501    0 -0.00000000000E+00 -0.00000000000E+00 -0.30259158694E+03  0.30259158694E+03  0.00000000000E+00 0. -1.
         25    2    1    2    0    0 -0.62659638043E+02  0.33577898617E+02  0.87222230709E+03  0.88399702256E+03  0.12500110957E+03 0.  0.
          2    1    1    2  501    0  0.25242416577E+02 -0.92430238552E+02 -0.28696259561E+03  0.30253604723E+03  0.00000000000E+00 0. -1.
          1    1    1    2  502    0  0.37417221465E+02  0.58852339935E+02  0.62002409537E+03  0.62393391094E+03  0.00000000000E+00 0. -1.
         22    1    3    3    0    0  0.24226147673E+02 -0.23717096330E+02  0.12324033317E+03  0.12781856911E+03  0.00000000000E+00 0.  1.
         22    1    3    3    0    0 -0.86885785716E+02  0.57294994948E+02  0.74898197391E+03  0.75617845344E+03  0.00000000000E+00 0.  1.
</event>
<event>
 7    1  0.6681656E-006  0.8840165E+02  0.7818608E-02  0.1321933E+00
          2   -1    0    0  502    0  0.00000000000E+00  0.00000000000E+00  0.13239617685E+04  0.13239617685E+04  0.00000000000E+00 0. -1.
          1   -1    0    0  501    0 -0.00000000000E+00 -0.00000000000E+00 -0.60260771731E+03  0.60260771731E+03  0.00000000000E+00 0. -1.
         25    2    1    2    0    0  0.16423601681E+02 -0.13296944785E+01  0.26378054232E+03  0.29236055782E+03  0.12499207368E+03 0.  0.
          2    1    1    2  501    0 -0.65218461524E+02  0.61036049474E+02 -0.58349307868E+03  0.59029062328E+03  0.00000000000E+00 0. -1.
          1    1    1    2  502    0  0.48794859843E+02 -0.59706354995E+02  0.10410665875E+04  0.10439183047E+04  0.00000000000E+00 0. -1.
         22    1    3    3    0    0 -0.24236859884E+02 -0.52746410466E+02  0.15296138657E+03  0.16360560802E+03  0.00000000000E+00 0. -1.
         22    1    3    3    0    0  0.40660461565E+02  0.51416715987E+02  0.11081915575E+03  0.12875494980E+03  0.00000000000E+00 0. -1.
</event>
<event>
 7    1  0.6681656E-006  0.2678230E+02  0.7818608E-02  0.1670719E+00
          2   -1    0    0  502    0  0.00000000000E+00  0.00000000000E+00  0.43775065316E+03  0.43775065316E+03  0.00000000000E+00 0. -1.
          1   -1    0    0  501    0 -0.00000000000E+00 -0.00000000000E+00 -0.79687858038E+02  0.79687858038E+02  0.00000000000E+00 0. -1.
         25    2    1    2    0    0 -0.10483825561E+02 -0.32550094589E+02  0.36560169005E+01  0.12964228603E+03  0.12499734642E+03 0.  0.
          2    1    1    2  501    0  0.22661575357E+02  0.14091111832E+02 -0.54703881426E+01  0.27240256547E+02  0.00000000000E+00 0. -1.
          1    1    1    2  502    0 -0.12177749796E+02  0.18458982758E+02  0.35987716637E+03  0.36055596862E+03  0.00000000000E+00 0. -1.
         22    1    3    3    0    0  0.22744665543E+02 -0.27532185928E+02 -0.52917531343E+02  0.63840474592E+02  0.00000000000E+00 0.  1.
         22    1    3    3    0    0 -0.33228491105E+02 -0.50179086609E+01  0.56573548243E+02  0.65801811443E+02  0.00000000000E+00 0.  1.
</event>
<event>
 7    1  0.6681656E-006  0.5077103E+02  0.7818608E-02  0.1510704E+00
          2   -1    0    0  502    0  0.00000000000E+00  0.00000000000E+00  0.13512708353E+03  0.13512708353E+03  0.00000000000E+00 0. -1.
          1   -1    0    0  501    0 -0.00000000000E+00 -0.00000000000E+00 -0.82182749611E+03  0.82182749611E+03  0.00000000000E+00 0. -1.
         25    2    1    2    0    0  0.80000506296E+02  0.14463306563E+02 -0.31987157570E+02  0.15250347349E+03  0.12499945173E+03 0.  0.
          2    1    1    2  501    0 -0.49373121483E+02 -0.97649469402E+01 -0.72546657361E+03  0.72721029196E+03  0.00000000000E+00 0. -1.
          1    1    1    2  502    0 -0.30627384813E+02 -0.46983596233E+01  0.70753318599E+02  0.77240814188E+02  0.00000000000E+00 0. -1.
         22    1    3    3    0    0  0.22597785985E+02  0.11400856591E+02  0.47845638262E+02  0.54128038604E+02  0.00000000000E+00 0. -1.
         22    1    3    3    0    0  0.57402720311E+02  0.30624499725E+01 -0.79832795832E+02  0.98375434887E+02  0.00000000000E+00 0. -1.
</event>
<event>
 7    1  0.6681656E-006  0.2692309E+02  0.7818608E-02  0.1661094E+00
          2   -1    0    0  502    0  0.00000000000E+00  0.00000000000E+00  0.17871253329E+03  0.17871253329E+03  0.00000000000E+00 0. -1.
          1   -1    0    0  501    0 -0.00000000000E+00 -0.00000000000E+00 -0.17391573669E+03  0.17391573669E+03  0.00000000000E+00 0. -1.
         25    2    1    2    0    0 -0.10294447768E+02  0.46633284599E+02  0.82792470855E+02  0.15735350293E+03  0.12499957106E+03 0.  0.
          2    1    1    2  501    0  0.12612405487E+02 -0.23546947575E+02 -0.13295847650E+03  0.13561522033E+03  0.00000000000E+00 0. -1.
          1    1    1    2  502    0 -0.23179577187E+01 -0.23086337024E+02  0.54962802239E+02  0.59659546723E+02  0.00000000000E+00 0. -1.
         22    1    3    3    0    0 -0.19921439893E+02  0.79444165075E+02  0.90750924117E+02  0.12224552900E+03  0.00000000000E+00 0. -1.
         22    1    3    3    0    0  0.96269921246E+01 -0.32810880476E+02 -0.79584532615E+01  0.35107973928E+02  0.00000000000E+00 0. -1.
</event>
<event>
 7    1  0.6681656E-006  0.6226395E+02  0.7818608E-02  0.1408070E+00
          2   -1    0    0  502    0  0.00000000000E+00  0.00000000000E+00  0.33389243515E+03  0.33389243515E+03  0.00000000000E+00 0. -1.
          1   -1    0    0  501    0 -0.00000000000E+00 -0.00000000000E+00 -0.14085450501E+03  0.14085450501E+03  0.00000000000E+00 0. -1.
         25    2    1    2    0    0 -0.19019484160E+02  0.31001350623E+02  0.18567846618E+03  0.22676966434E+03  0.12500065336E+03 0.  0.
          2    1    1    2  501    0 -0.52434191239E+02  0.97604581027E+01 -0.99636370286E+02  0.11301334982E+03  0.00000000000E+00 0. -1.
          1    1    1    2  502    0  0.71453675399E+02 -0.40761808726E+02  0.10699583424E+03  0.13496392601E+03  0.00000000000E+00 0. -1.
         22    1    3    3    0    0 -0.20497274521E+01  0.77641667858E+02  0.13556817590E+03  0.15624071265E+03  0.00000000000E+00 0. -1.
         22    1    3    3    0    0 -0.16969756708E+02 -0.46640317235E+02  0.50110290281E+02  0.70528951690E+02  0.00000000000E+00 0. -1.
</event>
<event>
 7    1  0.6681656E-006  0.6994588E+02  0.7818608E-02  0.1455653E+00
          2   -1    0    0  502    0  0.00000000000E+00  0.00000000000E+00  0.16056274188E+03  0.16056274188E+03  0.00000000000E+00 0. -1.
          1   -1    0    0  501    0 -0.00000000000E+00 -0.00000000000E+00 -0.16888237877E+03  0.16888237877E+03  0.00000000000E+00 0. -1.
         25    2    1    2    0    0  0.12747961899E+02  0.70107954283E+01  0.73178092155E+02  0.14557613291E+03  0.12500286203E+03 0.  0.
          2    1    1    2  501    0  0.69536762632E+02  0.75541263029E+01 -0.42572886589E+01  0.70075321535E+02  0.00000000000E+00 0. -1.
          1    1    1    2  502    0 -0.82284724531E+02 -0.14564921731E+02 -0.77240440389E+02  0.11379366620E+03  0.00000000000E+00 0. -1.
         22    1    3    3    0    0  0.10179542171E+02 -0.58920343412E+02  0.32327563181E+02  0.67972798146E+02  0.00000000000E+00 0.  1.
         22    1    3    3    0    0  0.25684197278E+01  0.65931138840E+02  0.40850528975E+02  0.77603334762E+02  0.00000000000E+00 0.  1.
</event>
<event>
 7    1  0.6681656E-006  0.1019801E+03  0.7818608E-02  0.1348071E+00
          2   -1    0    0  502    0  0.00000000000E+00  0.00000000000E+00  0.15395460381E+04  0.15395460381E+04  0.00000000000E+00 0. -1.
          1   -1    0    0  501    0 -0.00000000000E+00 -0.00000000000E+00 -0.55889963236E+03  0.55889963236E+03  0.00000000000E+00 0. -1.
         25    2    1    2    0    0 -0.65410335449E+02  0.10569935948E+03  0.23891626407E+03  0.29691152845E+03  0.12499843164E+03 0.  0.
          2    1    1    2  501    0 -0.18865251131E+02 -0.49747615250E+02 -0.52654750936E+03  0.52922868643E+03  0.00000000000E+00 0. -1.
          1    1    1    2  502    0  0.84275586580E+02 -0.55951744233E+02  0.12682776510E+04  0.12723054556E+04  0.00000000000E+00 0. -1.
         22    1    3    3    0    0 -0.97451979381E+02  0.96413409960E+02  0.21805323682E+03  0.25756484231E+03  0.00000000000E+00 0.  1.
         22    1    3    3    0    0  0.32041643932E+02  0.92859495237E+01  0.20863027245E+02  0.39346686141E+02  0.00000000000E+00 0.  1.
</event>
<event>
 7    1  0.6681656E-006  0.1443083E+03  0.7818608E-02  0.1222759E+00
          2   -1    0    0  502    0  0.00000000000E+00  0.00000000000E+00  0.23739880656E+04  0.23739880656E+04  0.00000000000E+00 0. -1.
          1   -1    0    0  501    0 -0.00000000000E+00 -0.00000000000E+00 -0.46097095042E+03  0.46097095042E+03  0.00000000000E+00 0. -1.
         25    2    1    2    0    0  0.13291646213E+03 -0.16586596643E+03 -0.15028809189E+03  0.28877322448E+03  0.12500063955E+03 0.  0.
          2    1    1    2  501    0  0.44941131842E+01  0.12289579073E+03 -0.22336837624E+03  0.25498432096E+03  0.00000000000E+00 0. -1.
          1    1    1    2  502    0 -0.13741057531E+03  0.42970175704E+02  0.22866735833E+04  0.22912014706E+04  0.00000000000E+00 0. -1.
         22    1    3    3    0    0 -0.11467954493E+02  0.10214069442E+02 -0.23709054733E+02  0.28248194122E+02  0.00000000000E+00 0.  1.
         22    1    3    3    0    0  0.14438441662E+03 -0.17608003588E+03 -0.12657903716E+03  0.26052503036E+03  0.00000000000E+00 0.  1.
</event>
<event>
 7    1  0.6681656E-006  0.1599387E+03  0.7818608E-02  0.1192377E+00
          2   -1    0    0  502    0  0.00000000000E+00  0.00000000000E+00  0.22670636254E+03  0.22670636254E+03  0.00000000000E+00 0. -1.
          1   -1    0    0  501    0 -0.00000000000E+00 -0.00000000000E+00 -0.12377654334E+04  0.12377654334E+04  0.00000000000E+00 0. -1.
         25    2    1    2    0    0  0.13050588514E+03  0.85483824941E+02 -0.16487424496E+03  0.25913076737E+03  0.12500387019E+03 0.  0.
          2    1    1    2  501    0 -0.14591810997E+03  0.73710592992E+02 -0.98200140526E+03  0.99551600001E+03  0.00000000000E+00 0. -1.
          1    1    1    2  502    0  0.15412224824E+02 -0.15919441793E+03  0.13581657937E+03  0.20982502855E+03  0.00000000000E+00 0. -1.
         22    1    3    3    0    0  0.68670541392E+02 -0.14714929349E+02 -0.21170652102E+02  0.73350998025E+02  0.00000000000E+00 0. -1.
         22    1    3    3    0    0  0.61835343752E+02  0.10019875429E+03 -0.14370359286E+03  0.18577976935E+03  0.00000000000E+00 0. -1.
</event>
<event>
 7    1  0.6681656E-006  0.6343713E+02  0.7818608E-02  0.1445958E+00
          2   -1    0    0  502    0  0.00000000000E+00  0.00000000000E+00  0.86175549264E+03  0.86175549264E+03  0.00000000000E+00 0. -1.
          1   -1    0    0  501    0 -0.00000000000E+00 -0.00000000000E+00 -0.26337397935E+03  0.26337397935E+03  0.00000000000E+00 0. -1.
         25    2    1    2    0    0  0.42121699526E+02 -0.40679591183E+02  0.50057398486E+03  0.51925744361E+03  0.12499964687E+03 0.  0.
          2    1    1    2  501    0 -0.29210030016E+02 -0.26186314395E+02 -0.24918793616E+03  0.25225696510E+03  0.00000000000E+00 0. -1.
          1    1    1    2  502    0 -0.12911669510E+02  0.66865905577E+02  0.34699546458E+03  0.35361506328E+03  0.00000000000E+00 0. -1.
         22    1    3    3    0    0 -0.38580478781E+02 -0.97599284327E+01  0.27191187618E+03  0.27480862059E+03  0.00000000000E+00 0. -1.
         22    1    3    3    0    0  0.80702178307E+02 -0.30919662750E+02  0.22866210868E+03  0.24444882302E+03  0.00000000000E+00 0. -1.
</event>
<event>
 7    1  0.6681656E-006  0.5884050E+02  0.7818608E-02  0.1548707E+00
          2   -1    0    0  502    0  0.00000000000E+00  0.00000000000E+00  0.14640244238E+04  0.14640244238E+04  0.00000000000E+00 0. -1.
          1   -1    0    0  501    0 -0.00000000000E+00 -0.00000000000E+00 -0.17855308954E+04  0.17855308954E+04  0.00000000000E+00 0. -1.
         25    2    1    2    0    0  0.33075919993E+02 -0.68087216533E+02 -0.12370899327E+03  0.19146732053E+03  0.12500373705E+03 0.  0.
          2    1    1    2  501    0 -0.15857354111E+02  0.56409998586E+02 -0.16273397405E+04  0.16283943547E+04  0.00000000000E+00 0. -1.
          1    1    1    2  502    0 -0.17218565882E+02  0.11677217947E+02  0.14295422621E+04  0.14296936440E+04  0.00000000000E+00 0. -1.
         22    1    3    3    0    0 -0.43150432746E+02 -0.51116366289E+02 -0.69099843962E+02  0.96175002908E+02  0.00000000000E+00 0.  1.
         22    1    3    3    0    0  0.76226352739E+02 -0.16970850244E+02 -0.54609149305E+02  0.95292317622E+02  0.00000000000E+00 0.  1.
</event>
<event>
 7    1  0.6681656E-006  0.6390147E+02  0.7818608E-02  0.1460100E+00
          2   -1    0    0  502    0  0.00000000000E+00  0.00000000000E+00  0.17262640810E+04  0.17262640810E+04  0.00000000000E+00 0. -1.
          1   -1    0    0  501    0 -0.00000000000E+00 -0.00000000000E+00 -0.16798569123E+04  0.16798569123E+04  0.00000000000E+00 0. -1.
         25    2    1    2    0    0  0.69735391006E+02  0.47260545139E+02  0.26941658611E+02  0.15312297565E+03  0.12499683523E+03 0.  0.
          2    1    1    2  501    0 -0.34599019238E+02  0.59482809600E+01 -0.16159543257E+04  0.16163356263E+04  0.00000000000E+00 0. -1.
          1    1    1    2  502    0 -0.35136371768E+02 -0.53208826099E+02  0.16354198358E+04  0.16366623913E+04  0.00000000000E+00 0. -1.
         22    1    3    3    0    0 -0.13497558224E+02 -0.32338322008E+02  0.11736985029E+02  0.36955486275E+02  0.00000000000E+00 0.  1.
         22    1    3    3    0    0  0.83232949230E+02  0.79598867146E+02  0.15204673582E+02  0.11616748937E+03  0.00000000000E+00 0.  1.
</event>
<event>
 7    1  0.6681656E-006  0.6941987E+02  0.7818608E-02  0.1405491E+00
          2   -1    0    0  502    0  0.00000000000E+00  0.00000000000E+00  0.22083854368E+04  0.22083854368E+04  0.00000000000E+00 0. -1.
          1   -1    0    0  501    0 -0.00000000000E+00 -0.00000000000E+00 -0.63710660904E+03  0.63710660904E+03  0.00000000000E+00 0. -1.
         25    2    1    2    0    0  0.79795765409E+02 -0.10106296866E+02  0.41174966312E+03  0.43775850696E+03  0.12500089569E+03 0.  0.
          2    1    1    2  501    0 -0.29952329559E+02 -0.38544178090E+02 -0.62246632533E+03  0.62437738739E+03  0.00000000000E+00 0. -1.
          1    1    1    2  502    0 -0.49843435850E+02  0.48650474957E+02  0.17819954899E+04  0.17833561514E+04  0.00000000000E+00 0. -1.
         22    1    3    3    0    0  0.92973279307E+02 -0.50313393200E+02  0.27529937697E+03  0.29489865235E+03  0.00000000000E+00 0. -1.
         22    1    3    3    0    0 -0.13177513897E+02  0.40207096334E+02  0.13645028615E+03  0.14285985461E+03  0.00000000000E+00 0. -1.
</event>
<event>
 7    1  0.6681656E-006  0.7199002E+02  0.7818608E-02  0.1451608E+00
          2   -1    0    0  502    0  0.00000000000E+00  0.00000000000E+00  0.21824660616E+03  0.21824660616E+03  0.00000000000E+00 0. -1.
          1   -1    0    0  501    0 -0.00000000000E+00 -0.00000000000E+00 -0.81967761006E+03  0.81967761006E+03  0.00000000000E+00 0. -1.
         25    2    1    2    0    0  0.90116673201E+02 -0.13620433472E+02 -0.76556680164E+02  0.17260629876E+03  0.12500191238E+03 0.  0.
          2    1    1    2  501    0 -0.70258181315E+02 -0.12931930797E+02 -0.69162399915E+03  0.69530367688E+03  0.00000000000E+00 0. -1.
          1    1    1    2  502    0 -0.19858491885E+02  0.26552364269E+02  0.16674967542E+03  0.17001424058E+03  0.00000000000E+00 0. -1.
         22    1    3    3    0    0  0.11636754737E+03 -0.99643933501E+01 -0.85378256857E+02  0.14467253354E+03  0.00000000000E+00 0.  1.
         22    1    3    3    0    0 -0.26250874172E+02 -0.36560401223E+01  0.88215766935E+01  0.27933765223E+02  0.00000000000E+00 0.  1.
</event>
<event>
 7    1  0.6681656E-006  0.1024742E+03  0.7818608E-02  0.1344246E+00
          2   -1    0    0  502    0  0.00000000000E+00  0.00000000000E+00  0.36243270408E+04  0.36243270408E+04  0.00000000000E+00 0. -1.
          1   -1    0    0  501    0 -0.00000000000E+00 -0.00000000000E+00 -0.65799236753E+03  0.65799236753E+03  0.00000000000E+00 0. -1.
         25    2    1    2    0    0  0.79282072184E+02 -0.34976206238E+02  0.10113360333E+04  0.10227095128E+04  0.12500077321E+03 0.  0.
          2    1    1    2  501    0  0.27599239553E+02  0.47244276547E+02 -0.65004603520E+03  0.65234468464E+03  0.00000000000E+00 0. -1.
          1    1    1    2  502    0 -0.10688131174E+03 -0.12268070310E+02  0.26050446752E+04  0.26072652109E+04  0.00000000000E+00 0. -1.
         22    1    3    3    0    0  0.33874135832E+02  0.44094058900E+02  0.26124287007E+03  0.26709470281E+03  0.00000000000E+00 0.  1.
         22    1    3    3    0    0  0.45407936352E+02 -0.79070265137E+02  0.75009316322E+03  0.75561480996E+03  0.00000000000E+00 0.  1.
</event>
<event>
 7    1  0.6681656E-006  0.5528575E+02  0.7818608E-02  0.1479105E+00
          2   -1    0    0  502    0  0.00000000000E+00  0.00000000000E+00  0.28771783954E+02  0.28771783954E+02  0.00000000000E+00 0. -1.
          1   -1    0    0  501    0 -0.00000000000E+00 -0.00000000000E+00 -0.11267830654E+04  0.11267830654E+04  0.00000000000E+00 0. -1.
         25    2    1    2    0    0 -0.79097877305E+02  0.49080488033E+01 -0.28727053905E+03  0.32315883117E+03  0.12500681751E+03 0.  0.
          2    1    1    2  501    0  0.48968421775E+02 -0.23512582119E+02 -0.78894989828E+03  0.79081773491E+03  0.00000000000E+00 0. -1.
          1    1    1    2  502    0  0.30129455530E+02  0.18604533316E+02 -0.21790844070E+02  0.41578283222E+02  0.00000000000E+00 0. -1.
         22    1    3    3    0    0  0.24719017945E+02  0.23789248272E+02 -0.12479848348E+03  0.12942804819E+03  0.00000000000E+00 0.  1.
         22    1    3    3    0    0 -0.10381689525E+03 -0.18881199469E+02 -0.16247205557E+03  0.19373078298E+03  0.00000000000E+00 0.  1.
</event>
<event>
 7    1  0.6681656E-006  0.9635162E+02  0.7818608E-02  0.1357210E+00
          2   -1    0    0  502    0  0.00000000000E+00  0.00000000000E+00  0.11336268856E+03  0.11336268856E+03  0.00000000000E+00 0. -1.
          1   -1    0    0  501    0 -0.00000000000E+00 -0.00000000000E+00 -0.56512858945E+03  0.56512858945E+03  0.00000000000E+00 0. -1.
         25    2    1    2    0    0 -0.16720204729E+01  0.10832609948E+03 -0.76705863589E+02  0.18232673404E+03  0.12498763521E+03 0.  0.
          2    1    1    2  501    0  0.47624094906E+02 -0.83762692631E+02 -0.41780359462E+03  0.42877043598E+03  0.00000000000E+00 0. -1.
          1    1    1    2  502    0 -0.45952074433E+02 -0.24563406849E+02  0.42743557320E+02  0.67394108000E+02  0.00000000000E+00 0. -1.
         22    1    3    3    0    0 -0.55526565417E+02  0.79532973320E+02 -0.20100999449E+02  0.99059292805E+02  0.00000000000E+00 0.  1.
         22    1    3    3    0    0  0.53854544944E+02  0.28793126160E+02 -0.56604864140E+02  0.83267441233E+02  0.00000000000E+00 0.  1.
</event>
<event>
 7    1  0.6681656E-006  0.1754187E+03  0.7818608E-02  0.1291055E+00
          2   -1    0    0  502    0  0.00000000000E+00  0.00000000000E+00  0.10476444775E+04  0.10476444775E+04  0.00000000000E+00 0. -1.
          1   -1    0    0  501    0 -0.00000000000E+00 -0.00000000000E+00 -0.31636466707E+03  0.31636466707E+03  0.00000000000E+00 0. -1.
         25    2    1    2    0    0 -0.13979450728E+03  0.69394727693E+02 -0.15894774088E+03  0.25542115487E+03  0.12496979445E+03 0.  0.
          2    1    1    2  501    0 -0.33909208098E+02 -0.38769626778E+02 -0.94802423601E+02  0.10789076826E+03  0.00000000000E+00 0. -1.
          1    1    1    2  502    0  0.17370371538E+03 -0.30625100915E+02  0.98502997492E+03  0.10006972215E+04  0.00000000000E+00 0. -1.
         22    1    3    3    0    0 -0.54784524393E+02  0.35256908950E+02  0.73482813091E+01  0.65562115431E+02  0.00000000000E+00 0.  1.
         22    1    3    3    0    0 -0.85009982886E+02  0.34137818743E+02 -0.16629602219E+03  0.18985903943E+03  0.00000000000E+00 0.  1.
</event>
<event>
 7    1  0.6681656E-006  0.6782295E+02  0.7818608E-02  0.1501599E+00
          2   -1    0    0  502    0  0.00000000000E+00  0.00000000000E+00  0.47224844540E+03  0.47224844540E+03  0.00000000000E+00 0. -1.
          1   -1    0    0  501    0 -0.00000000000E+00 -0.00000000000E+00 -0.21734947860E+03  0.21734947860E+03  0.00000000000E+00 0. -1.
         25    2    1    2    0    0  0.39803099750E+01 -0.50474287748E+02 -0.82830171715E+01  0.13512059405E+03  0.12500187987E+03 0.  0.
          2    1    1    2  501    0  0.20622229581E+02 -0.13558235795E+02 -0.14169612311E+03  0.14382938996E+03  0.00000000000E+00 0. -1.
          1    1    1    2  502    0 -0.24602539556E+02  0.64032523543E+02  0.40487810708E+03  0.41064793999E+03  0.00000000000E+00 0. -1.
         22    1    3    3    0    0  0.47592116273E+02 -0.67861323390E+02  0.12414245713E+02  0.83810991166E+02  0.00000000000E+00 0.  1.
         22    1    3    3    0    0 -0.43611806298E+02  0.17387035642E+02 -0.20697262884E+02  0.51309602882E+02  0.00000000000E+00 0.  1.
</event>
<event>
 7    1  0.6681656E-006  0.8925330E+02  0.7818608E-02  0.1314700E+00
          2   -1    0    0  502    0  0.00000000000E+00  0.00000000000E+00  0.18696357818E+04  0.18696357818E+04  0.00000000000E+00 0. -1.
          1   -1    0    0  501    0 -0.00000000000E+00 -0.00000000000E+00 -0.35936240836E+03  0.35936240836E+03  0.00000000000E+00 0. -1.
         25    2    1    2    0    0  0.66191694734E+02  0.39135696847E+02  0.28274825641E+03  0.31855711852E+03  0.12497646993E+03 0.  0.
          2    1    1    2  501    0  0.17209828073E+02 -0.79647196457E+02 -0.33520282525E+03  0.34496490856E+03  0.00000000000E+00 0. -1.
          1    1    1    2  502    0 -0.83401522807E+02  0.40511499610E+02  0.15627279423E+04  0.15654761631E+04  0.00000000000E+00 0. -1.
         22    1    3    3    0    0  0.20647740947E+02 -0.12831133714E+02 -0.30715567624E+01  0.24503094897E+02  0.00000000000E+00 0.  1.
         22    1    3    3    0    0  0.45543953787E+02  0.51966830561E+02  0.28581981318E+03  0.29405402362E+03  0.00000000000E+00 0.  1.
</event>
<event>
 7    1  0.6681656E-006  0.8732597E+02  0.7818608E-02  0.1314115E+00
          2   -1    0    0  502    0  0.00000000000E+00  0.00000000000E+00  0.18888113709E+03  0.18888113709E+03  0.00000000000E+00 0. -1.
          1   -1    0    0  501    0 -0.00000000000E+00 -0.00000000000E+00 -0.45715109156E+03  0.45715109156E+03  0.00000000000E+00 0. -1.
         25    2    1    2    0    0  0.37683382031E+02 -0.91472220788E+02 -0.15049032895E+03  0.21922517714E+03  0.12500053890E+03 0.  0.
          2    1    1    2  501    0  0.45256220309E+02  0.80041516937E+02 -0.25220334959E+03  0.26844235779E+03  0.00000000000E+00 0. -1.
          1    1    1    2  502    0 -0.82939602340E+02  0.11430703851E+02  0.13442372407E+03  0.15836469373E+03  0.00000000000E+00 0. -1.
         22    1    3    3    0    0 -0.62064605446E+00 -0.35101176126E+02 -0.14683530278E+03  0.15097378550E+03  0.00000000000E+00 0. -1.
         22    1    3    3    0    0  0.38304028085E+02 -0.56371044662E+02 -0.36550261744E+01  0.68251391635E+02  0.00000000000E+00 0. -1.
</event>
<event>
 7    1  0.6681656E-006  0.2744941E+02  0.7818608E-02  0.1645426E+00
          2   -1    0    0  502    0  0.00000000000E+00  0.00000000000E+00  0.60338377742E+02  0.60338377742E+02  0.00000000000E+00 0. -1.
          1   -1    0    0  501    0 -0.00000000000E+00 -0.00000000000E+00 -0.92118054705E+03  0.92118054705E+03  0.00000000000E+00 0. -1.
         25    2    1    2    0    0  0.78152834243E+01 -0.58259515444E+01 -0.20283667881E+03  0.23845939085E+03  0.12500056979E+03 0.  0.
          2    1    1    2  501    0 -0.11950402873E+02 -0.21792180784E+02 -0.69570206229E+03  0.69614586887E+03  0.00000000000E+00 0. -1.
          1    1    1    2  502    0  0.41351194488E+01  0.27618132328E+02  0.37696571787E+02  0.46913665074E+02  0.00000000000E+00 0. -1.
         22    1    3    3    0    0 -0.47813690890E+02 -0.26781352165E+02 -0.48916269501E+02  0.73458772670E+02  0.00000000000E+00 0. -1.
         22    1    3    3    0    0  0.55628974314E+02  0.20955400621E+02 -0.15392040931E+03  0.16500061818E+03  0.00000000000E+00 0. -1.
</event>
<event>
 7    1  0.6681656E-006  0.9950954E+02  0.7818608E-02  0.1405139E+00
          2   -1    0    0  502    0  0.00000000000E+00  0.00000000000E+00  0.11159866428E+04  0.11159866428E+04  0.00000000000E+00 0. -1.
          1   -1    0    0  501    0 -0.00000000000E+00 -0.00000000000E+00 -0.21135250619E+03  0.21135250619E+03  0.00000000000E+00 0. -1.
         25    2    1    2    0    0  0.42468582950E+02 -0.66981077768E+02  0.14650378042E+03  0.20827291577E+03  0.12499681776E+03 0.  0.
          2    1    1    2  501    0 -0.76611780331E+02  0.66408186263E+02 -0.16588768130E+03  0.19441742436E+03  0.00000000000E+00 0. -1.
          1    1    1    2  502    0  0.34143197380E+02  0.57289150450E+00  0.92401803751E+03  0.92464880889E+03  0.00000000000E+00 0. -1.
         22    1    3    3    0    0  0.27659847820E+02  0.33495067120E+02  0.64370329920E+02  0.77656461913E+02  0.00000000000E+00 0. -1.
         22    1    3    3    0    0  0.14808735131E+02 -0.10047614489E+03  0.82133450499E+02  0.13061645386E+03  0.00000000000E+00 0. -1.
</event>
<event>
 7    1  0.6681656E-006  0.2074200E+03  0.7818608E-02  0.1358614E+00
          2   -1    0    0  502    0  0.00000000000E+00  0.00000000000E+00  0.18809094003E+04  0.18809094003E+04  0.00000000000E+00 0. -1.
          1   -1    0    0  501    0 -0.00000000000E+00 -0.00000000000E+00 -0.34808093232E+03  0.34808093232E+03  0.00000000000E+00 0. -1.
         25    2    1    2    0    0  0.42089261268E+02 -0.22048688329E+03  0.28794718217E+03  0.38590973148E+03  0.12500707784E+03 0.  0.
          2    1    1    2  501    0 -0.16893087878E+02  0.16933966660E+02 -0.29179641909E+03  0.29277514553E+03  0.00000000000E+00 0. -1.
          1    1    1    2  502    0 -0.25196173390E+02  0.20355291663E+03  0.15366777049E+04  0.15503054556E+04  0.00000000000E+00 0. -1.
         22    1    3    3    0    0  0.13801042071E+02 -0.18575895062E+03  0.28570384756E+03  0.34106237701E+03  0.00000000000E+00 0.  1.
         22    1    3    3    0    0  0.28288219197E+02 -0.34727932665E+02  0.22433346092E+01  0.44847354467E+02  0.00000000000E+00 0.  1.
</event>
<event>
 7    1  0.6681656E-006  0.1421196E+03  0.7818608E-02  0.1350315E+00
          2   -1    0    0  502    0  0.00000000000E+00  0.00000000000E+00  0.19144046210E+03  0.19144046210E+03  0.00000000000E+00 0. -1.
          1   -1    0    0  501    0 -0.00000000000E+00 -0.00000000000E+00 -0.40875278846E+03  0.40875278846E+03  0.00000000000E+00 0. -1.
         25    2    1    2    0    0 -0.35111950884E+02  0.14834171804E+03 -0.12262313606E+03  0.23216332667E+03  0.12500104938E+03 0.  0.
          2    1    1    2  501    0  0.36672646991E+02 -0.76050102418E+01 -0.19283834674E+03  0.19644171449E+03  0.00000000000E+00 0. -1.
          1    1    1    2  502    0 -0.15606961065E+01 -0.14073670780E+03  0.98149156448E+02  0.17158820940E+03  0.00000000000E+00 0. -1.
         22    1    3    3    0    0 -0.33438387440E+02  0.16159709329E+03 -0.13556367482E+03  0.21356323712E+03  0.00000000000E+00 0.  1.
         22    1    3    3    0    0 -0.16735634441E+01 -0.13255375256E+02  0.12940538763E+02  0.18600089550E+02  0.00000000000E+00 0.  1.
</event>
<event>
 7    1  0.6681656E-006  0.8506539E+02  0.7818608E-02  0.1363701E+00
          2   -1    0    0  502    0  0.00000000000E+00  0.00000000000E+00  0.29224418749E+02  0.29224418749E+02  0.00000000000E+00 0. -1.
          1   -1    0    0  501    0 -0.00000000000E+00 -0.00000000000E+00 -0.10549747731E+04  0.10549747731E+04  0.00000000000E+00 0. -1.
         25    2    1    2    0    0 -0.42369175626E+02  0.37122313255E+01 -0.51369856605E+03  0.53039593261E+03  0.12499880342E+03 0.  0.
          2    1    1    2  501    0 -0.45872294127E+02  0.31923503614E+02 -0.41180212082E+03  0.41557714586E+03  0.00000000000E+00 0. -1.
          1    1    1    2  502    0  0.88241469753E+02 -0.35635734940E+02 -0.10024966745E+03  0.13822611336E+03  0.00000000000E+00 0. -1.
         22    1    3    3    0    0  0.25715594503E+02  0.55705559677E+01 -0.37454288660E+03  0.37546597289E+03  0.00000000000E+00 0.  1.
         22    1    3    3    0    0 -0.68084770130E+02 -0.18583246423E+01 -0.13915567945E+03  0.15492995971E+03  0.00000000000E+00 0.  1.
</event>
<event>
 7    1  0.6681656E-006  0.3626020E+02  0.7818608E-02  0.1601557E+00
          2   -1    0    0  502    0  0.00000000000E+00  0.00000000000E+00  0.47263664826E+02  0.47263664826E+02  0.00000000000E+00 0. -1.
          1   -1    0    0  501    0 -0.00000000000E+00 -0.00000000000E+00 -0.15469911879E+04  0.15469911879E+04  0.00000000000E+00 0. -1.
         25    2    1    2    0    0  0.23822933842E+02 -0.18267634088E+02 -0.86421958016E+03  0.87372979073E+03  0.12500810311E+03 0.  0.
          2    1    1    2  501    0  0.12468197534E+02  0.20866626536E+02 -0.66997001474E+03  0.67041083875E+03  0.00000000000E+00 0. -1.
          1    1    1    2  502    0 -0.36291131377E+02 -0.25989924483E+01  0.34462071823E+02  0.50114223257E+02  0.00000000000E+00 0. -1.
         22    1    3    3    0    0 -0.38486288577E+02 -0.36565118521E+02 -0.56799457083E+03  0.57047001217E+03  0.00000000000E+00 0.  1.
         22    1    3    3    0    0  0.62309222420E+02  0.18297484433E+02 -0.29622500934E+03  0.30325977856E+03  0.00000000000E+00 0.  1.
</event>
<event>
 7    1  0.6681656E-006  0.1718117E+03  0.7818608E-02  0.1389435E+00
          2   -1    0    0  502    0  0.00000000000E+00  0.00000000000E+00  0.88498171220E+03  0.88498171220E+03  0.00000000000E+00 0. -1.
          1   -1    0    0  501    0 -0.00000000000E+00 -0.00000000000E+00 -0.92633209523E+03  0.92633209523E+03  0.00000000000E+00 0. -1.
         25    2    1    2    0    0  0.13529701983E+03 -0.11071944612E+03 -0.56906582235E+03  0.60829647396E+03  0.12499844292E+03 0.  0.
          2    1    1    2  501    0 -0.14344800784E+03  0.89847036681E+02 -0.31628029910E+03  0.35872419566E+03  0.00000000000E+00 0. -1.
          1    1    1    2  502    0  0.81509880150E+01  0.20872409443E+02  0.84399573842E+03  0.84429313781E+03  0.00000000000E+00 0. -1.
         22    1    3    3    0    0  0.23920354544E+02 -0.59901055146E+02 -0.36237681237E+03  0.36807237592E+03  0.00000000000E+00 0.  1.
         22    1    3    3    0    0  0.11137666528E+03 -0.50818390978E+02 -0.20668900998E+03  0.24022409804E+03  0.00000000000E+00 0.  1.
</event>
<event>
 7    1  0.6681656E-006  0.1380789E+03  0.7818608E-02  0.1371106E+00
          2   -1    0    0  502    0  0.00000000000E+00  0.00000000000E+00  0.19975473090E+04  0.19975473090E+04  0.00000000000E+00 0. -1.
          1   -1    0    0  501    0 -0.00000000000E+00 -0.00000000000E+00 -0.10211219576E+04  0.10211219576E+04  0.00000000000E+00 0. -1.
         25    2    1    2    0    0 -0.73822753280E+02 -0.13938547966E+03  0.43222437658E+01  0.20129937360E+03  0.12499858071E+03 0.  0.
          2    1    1    2  501    0 -0.10521000817E+02  0.30618152491E+02 -0.91984864893E+03  0.92041821997E+03  0.00000000000E+00 0. -1.
          1    1    1    2  502    0  0.84343754097E+02  0.10876732717E+03  0.18919517566E+04  0.18969516730E+04  0.00000000000E+00 0. -1.
         22    1    3    3    0    0 -0.71801858712E+02 -0.12149331728E+02 -0.88900680299E+01  0.73363113930E+02  0.00000000000E+00 0. -1.
         22    1    3    3    0    0 -0.20208945686E+01 -0.12723614793E+03  0.13212311796E+02  0.12793625967E+03  0.00000000000E+00 0. -1.
</event>
<event>
 7    1  0.6681656E-006  0.7628211E+02  0.7818608E-02  0.1378006E+00
          2   -1    0    0  502    0  0.00000000000E+00  0.00000000000E+00  0.13874912965E+04  0.13874912965E+04  0.00000000000E+00 0. -1.
          1   -1    0    0  501    0 -0.00000000000E+00 -0.00000000000E+00 -0.34583595081E+03  0.34583595081E+03  0.00000000000E+00 0. -1.
         25    2    1    2    0    0  0.96170980351E+02 -0.61012855545E+02  0.27919815939E+02  0.17139393362E+03  0.12499975343E+03 0.  0.
          2    1    1    2  501    0 -0.20942737592E+02  0.51257732240E+02 -0.27017151036E+03  0.27578723390E+03  0.00000000000E+00 0. -1.
          1    1    1    2  502    0 -0.75228242759E+02  0.97551233056E+01  0.12839070401E+04  0.12861460798E+04  0.00000000000E+00 0. -1.
         22    1    3    3    0    0 -0.10482901087E+02 -0.49236042693E+02 -0.19625474682E+02  0.54029976603E+02  0.00000000000E+00 0.  1.
         22    1    3    3    0    0  0.10665388144E+03 -0.11776812852E+02  0.47545290621E+02  0.11736395702E+03  0.00000000000E+00 0.  1.
</event>
<event>
 7    1  0.6681656E-006  0.8392212E+02  0.7818608E-02  0.1391549E+00
          2   -1    0    0  502    0  0.00000000000E+00  0.00000000000E+00  0.10045496073E+04  0.10045496073E+04  0.00000000000E+00 0. -1.
          1   -1    0    0  501    0 -0.00000000000E+00 -0.00000000000E+00 -0.25592391374E+02  0.25592391374E+02  0.00000000000E+00 0. -1.
         25    2    1    2    0    0 -0.78422639498E+02  0.85548842279E+02  0.42857855655E+03  0.46127532382E+03  0.12500652153E+03 0.  0.
          2    1    1    2  501    0  0.42225622406E+02 -0.58641533110E+02  0.15607606660E+03  0.17199293927E+03  0.00000000000E+00 0. -1.
          1    1    1    2  502    0  0.36197017091E+02 -0.26907309169E+02  0.39430259278E+03  0.39687373559E+03  0.00000000000E+00 0. -1.
         22    1    3    3    0    0 -0.67034730084E+02  0.91187658567E+02  0.18166564722E+03  0.21403563136E+03  0.00000000000E+00 0.  1.
         22    1    3    3    0    0 -0.11387909413E+02 -0.56388162882E+01  0.24691290933E+03  0.24723969245E+03  0.00000000000E+00 0.  1.
</event>
<event>
 7    1  0.6681656E-006  0.7429279E+02  0.7818608E-02  0.1394908E+00
          2   -1    0    0  502    0  0.00000000000E+00  0.00000000000E+00  0.15267202460E+04  0.15267202460E+04  0.00000000000E+00 0. -1.
          1   -1    0    0  501    0 -0.00000000000E+00 -0.00000000000E+00 -0.40448478408E+03  0.40448478408E+03  0.00000000000E+00 0. -1.
         25    2    1    2    0    0 -0.30414774346E+02 -0.29234074183E+02 -0.92834092430E+02  0.16131922744E+03  0.12500413926E+03 0.  0.
          2    1    1    2  501    0  0.78729744249E+02  0.18026412877E+02 -0.27110683945E+03  0.28288202946E+03  0.00000000000E+00 0. -1.
          1    1    1    2  502    0 -0.48314969902E+02  0.11207661306E+02  0.14861763938E+04  0.14870037732E+04  0.00000000000E+00 0. -1.
         22    1    3    3    0    0  0.91759728561E+01 -0.66571228130E+02 -0.19449812724E+02  0.69958717166E+02  0.00000000000E+00 0.  1.
         22    1    3    3    0    0 -0.39590747202E+02  0.37337153947E+02 -0.73384279706E+02  0.91360510270E+02  0.00000000000E+00 0.  1.
</event>
<event>
 7    1  0.6681656E-006  0.1163149E+03  0.7818608E-02  0.1367846E+00
          2   -1    0    0  502    0  0.00000000000E+00  0.00000000000E+00  0.90855078147E+02  0.90855078147E+02  0.00000000000E+00 0. -1.
          1   -1    0    0  501    0 -0.00000000000E+00 -0.00000000000E+00 -0.11247506103E+04  0.11247506103E+04  0.00000000000E+00 0. -1.
         25    2    1    2    0    0 -0.51172705280E+02  0.76033972801E+02 -0.19818010875E+03  0.25159437060E+03  0.12499824410E+03 0.  0.
          2    1    1    2  501    0  0.90503494085E+02 -0.79524970196E+02 -0.88931456904E+03  0.89743830207E+03  0.00000000000E+00 0. -1.
          1    1    1    2  502    0 -0.39330788805E+02  0.34909973951E+01  0.53599145658E+02  0.66573015750E+02  0.00000000000E+00 0. -1.
         22    1    3    3    0    0 -0.57097084851E+02 -0.39270388197E+01 -0.14364231636E+03  0.15462410479E+03  0.00000000000E+00 0.  1.
         22    1    3    3    0    0  0.59243795709E+01  0.79961011620E+02 -0.54537792391E+02  0.96970265812E+02  0.00000000000E+00 0.  1.
</event>
<event>
 7    1  0.6681656E-006  0.4437404E+02  0.7818608E-02  0.1536615E+00
          2   -1    0    0  502    0  0.00000000000E+00  0.00000000000E+00  0.22940374942E+03  0.22940374942E+03  0.00000000000E+00 0. -1.
          1   -1    0    0  501    0 -0.00000000000E+00 -0.00000000000E+00 -0.11163847850E+04  0.11163847850E+04  0.00000000000E+00 0. -1.
         25    2    1    2    0    0  0.71419622396E+02  0.11650482900E+02  0.26863110639E+02  0.14691226242E+03  0.12500035968E+03 0.  0.
          2    1    1    2  501    0 -0.28674693642E+02 -0.82510170263E+01 -0.10529186684E+04  0.10533413690E+04  0.00000000000E+00 0. -1.
          1    1    1    2  502    0 -0.42744928754E+02 -0.33994658741E+01  0.13907452213E+03  0.14553490306E+03  0.00000000000E+00 0. -1.
         22    1    3    3    0    0  0.58899956051E+02 -0.36236690396E+02  0.56430842544E+02  0.89256610645E+02  0.00000000000E+00 0.  1.
         22    1    3    3    0    0  0.12519666345E+02  0.47887173296E+02 -0.29567731904E+02  0.57655651775E+02  0.00000000000E+00 0.  1.
</event>
<event>
 7    1  0.6681656E-006  0.8885715E+02  0.7818608E-02  0.1465765E+00
          2   -1    0    0  502    0  0.00000000000E+00  0.00000000000E+00  0.26650637953E+02  0.26650637953E+02  0.00000000000E+00 0. -1.
          1   -1    0    0  501    0 -0.00000000000E+00 -0.00000000000E+00 -0.20071128002E+04  0.20071128002E+04  0.00000000000E+00 0. -1.
         25    2    1    2    0    0 -0.83625641862E+02  0.13674685117E+02 -0.41387097428E+03  0.44056409310E+03  0.12500916681E+03 0.  0.
          2    1    1    2  501    0  0.88973064424E+02  0.99611384163E+01 -0.15664090282E+04  0.15689654789E+04  0.00000000000E+00 0. -1.
          1    1    1    2  502    0 -0.53474225620E+01 -0.23635823533E+02 -0.18215971257E+00  0.24233866062E+02  0.00000000000E+00 0. -1.
         22    1    3    3    0    0 -0.61932948991E+02 -0.44574980446E+02 -0.13715219181E+03  0.15695012829E+03  0.00000000000E+00 0. -1.
         22    1    3    3    0    0 -0.21692692870E+02  0.58249665563E+02 -0.27671878247E+03  0.28361396481E+03  0.00000000000E+00 0. -1.
</event>
<event>
 7    1  0.6681656E-006  0.9414336E+02  0.7818608E-02  0.1459305E+00
          2   -1    0    0  502    0  0.00000000000E+00  0.00000000000E+00  0.27586119365E+03  0.27586119365E+03  0.00000000000E+00 0. -1.
          1   -1    0    0  501    0 -0.00000000000E+00 -0.00000000000E+00 -0.67401981350E+03  0.67401981350E+03  0.00000000000E+00 0. -1.
         25    2    1    2    0    0 -0.30817056517E+01 -0.11603798218E+03 -0.72167969858E+02  0.18522494975E+03  0.12500302363E+03 0.  0.
          2    1    1    2  501    0  0.68555103424E+01  0.92369638296E+02 -0.54071876377E+03  0.54859450379E+03  0.00000000000E+00 0. -1.
          1    1    1    2  502    0 -0.37738046907E+01  0.23668343889E+02  0.21472811378E+03  0.21606155361E+03  0.00000000000E+00 0. -1.
         22    1    3    3    0    0  0.11307827580E+02  0.35769879026E+01  0.26801945715E+02  0.29308805863E+02  0.00000000000E+00 0.  1.
         22    1    3    3    0    0 -0.14389533231E+02 -0.11961497009E+03 -0.98969915573E+02  0.15591614389E+03  0.00000000000E+00 0.  1.
</event>
<event>
 7    1  0.6681656E-006  0.6772037E+02  0.7818608E-02  0.1414471E+00
          2   -1    0    0  502    0  0.00000000000E+00  0.00000000000E+00  0.85241189650E+03  0.85241189650E+03  0.00000000000E+00 0. -1.
          1   -1    0    0  501    0 -0.00000000000E+00 -0.00000000000E+00 -0.23405889402E+03  0.23405889402E+03  0.00000000000E+00 0. -1.
         25    2    1    2    0    0  0.21321510098E+02 -0.12666837404E+02  0.30055979601E+02  0.13093288950E+03  0.12500001632E+03 0.  0.
          2    1    1    2  501    0 -0.60466889244E+02  0.38046206622E+02 -0.17593330707E+03  0.18988493113E+03  0.00000000000E+00 0. -1.
          1    1    1    2  502    0  0.39145379146E+02 -0.25379369218E+02  0.76423032995E+03  0.76565296989E+03  0.00000000000E+00 0. -1.
         22    1    3    3    0    0  0.70801907538E+02  0.32469160248E+01  0.34384303136E+02  0.78776474134E+02  0.00000000000E+00 0. -1.
         22    1    3    3    0    0 -0.49480397440E+02 -0.15913753429E+02 -0.43283235359E+01  0.52156415365E+02  0.00000000000E+00 0. -1.
</event>
<event>
 7    1  0.6681656E-006  0.5714385E+02  0.7818608E-02  0.1535869E+00
          2   -1    0    0  502    0  0.00000000000E+00  0.00000000000E+00  0.13191656426E+04  0.13191656426E+04  0.00000000000E+00 0. -1.
          1   -1    0    0  501    0 -0.00000000000E+00 -0.00000000000E+00 -0.66776379544E+02  0.66776379544E+02  0.00000000000E+00 0. -1.
         25    2    1    2    0    0 -0.48489301375E+02  0.66465712439E+01  0.23596577927E+03  0.27147739239E+03  0.12499894534E+03 0.  0.
          2    1    1    2  501    0  0.49644575744E+02 -0.29901448124E+02 -0.31717053030E+02  0.66065512589E+02  0.00000000000E+00 0. -1.
          1    1    1    2  502    0 -0.11552743688E+01  0.23254876880E+02  0.10481405368E+04  0.10483991171E+04  0.00000000000E+00 0. -1.
         22    1    3    3    0    0 -0.45740338751E+01  0.24017340990E+02  0.22040051190E+03  0.22175242975E+03  0.00000000000E+00 0. -1.
         22    1    3    3    0    0 -0.43915267500E+02 -0.17370769746E+02  0.15565267368E+02  0.49724962639E+02  0.00000000000E+00 0. -1.
</event>
<event>
 7    1  0.6681656E-006  0.1564086E+03  0.7818608E-02  0.1341487E+00
          2   -1    0    0  502    0  0.00000000000E+00  0.00000000000E+00  0.21435056987E+03  0.21435056987E+03  0.00000000000E+00 0. -1.
          1   -1    0    0  501    0 -0.00000000000E+00 -0.00000000000E+00 -0.99668360101E+03  0.99668360101E+03  0.00000000000E+00 0. -1.
         25    2    1    2    0    0 -0.14381779859E+03 -0.78770255436E+02  0.45311793415E+02  0.21110580926E+03  0.12499676694E+03 0.  0.
          2    1    1    2  501    0  0.11685147880E+03  0.10367992861E+03 -0.90283741412E+03  0.91625279920E+03  0.00000000000E+00 0. -1.
          1    1    1    2  502    0  0.26966319792E+02 -0.24909673170E+02  0.75192589578E+02  0.83675562430E+02  0.00000000000E+00 0. -1.
         22    1    3    3    0    0 -0.15531049107E+02  0.92519619462E+01 -0.32471256621E+02  0.37164429132E+02  0.00000000000E+00 0.  1.
         22    1    3    3    0    0 -0.12828674948E+03 -0.88022217382E+02  0.77783050036E+02  0.17394138012E+03  0.00000000000E+00 0.  1.
</event>
<event>
 7    1  0.6681656E-006  0.6582151E+02  0.7818608E-02  0.1513650E+00
          2   -1    0    0  502    0  0.00000000000E+00  0.00000000000E+00  0.72591639135E+03  0.72591639135E+03  0.00000000000E+00 0. -1.
          1   -1    0    0  501    0 -0.00000000000E+00 -0.00000000000E+00 -0.46972620826E+02  0.46972620826E+02  0.00000000000E+00 0. -1.
         25    2    1    2    0    0 -0.18227517461E+02  0.47073748254E+02  0.53446821756E+03  0.55120776321E+03  0.12500216989E+03 0.  0.
          2    1    1    2  501    0  0.52236871669E+01 -0.66563317580E+02 -0.81538653051E+01  0.67264014705E+02  0.00000000000E+00 0. -1.
          1    1    1    2  502    0  0.13003830294E+02  0.19489569326E+02  0.15262941827E+03  0.15441723426E+03  0.00000000000E+00 0. -1.
         22    1    3    3    0    0  0.35258328115E+02  0.66248421998E+02  0.24581866785E+03  0.25701910548E+03  0.00000000000E+00 0. -1.
         22    1    3    3    0    0 -0.53485845576E+02 -0.19174673744E+02  0.28864954971E+03  0.29418865774E+03  0.00000000000E+00 0. -1.
</event>
<event>
 7    1  0.6681656E-006  0.6523511E+02  0.7818608E-02  0.1478052E+00
          2   -1    0    0  502    0  0.00000000000E+00  0.00000000000E+00  0.24031487804E+03  0.24031487804E+03  0.00000000000E+00 0. -1.
          1   -1    0    0  501    0 -0.00000000000E+00 -0.00000000000E+00 -0.15672566988E+04  0.15672566988E+04  0.00000000000E+00 0. -1.
         25    2    1    2    0    0 -0.53460566291E+00 -0.38419356192E+02 -0.49554819027E+02  0.13984774298E+03  0.12500151357E+03 0.  0.
          2    1    1    2  501    0  0.12940295420E+02 -0.27325269393E+02 -0.14666611979E+04  0.14669727983E+04  0.00000000000E+00 0. -1.
          1    1    1    2  502    0 -0.12405689757E+02  0.65744625585E+02  0.18927419618E+03  0.20075103554E+03  0.00000000000E+00 0. -1.
         22    1    3    3    0    0 -0.11890682962E+02  0.37951513219E+02 -0.48379655955E+02  0.62628242888E+02  0.00000000000E+00 0.  1.
         22    1    3    3    0    0  0.11356077300E+02 -0.76370869411E+02 -0.11751630728E+01  0.77219500092E+02  0.00000000000E+00 0.  1.
</event>
<event>
 7    1  0.6681656E-006  0.2366049E+03  0.7818608E-02  0.1281789E+00
          2   -1    0    0  502    0  0.00000000000E+00  0.00000000000E+00  0.19151394987E+04  0.19151394987E+04  0.00000000000E+00 0. -1.
          1   -1    0    0  501    0 -0.00000000000E+00 -0.00000000000E+00 -0.22202034278E+03  0.22202034278E+03  0.00000000000E+00 0. -1.
         25    2    1    2    0    0  0.12795031294E+03  0.16208504168E+03  0.35511023289E+03  0.42938378671E+03  0.12499726186E+03 0.  0.
          2    1    1    2  501    0  0.90606481945E+01  0.40672168379E+02 -0.17255721301E+03  0.17751707633E+03  0.00000000000E+00 0. -1.
          1    1    1    2  502    0 -0.13701096113E+03 -0.20275721006E+03  0.15105661360E+04  0.15302589784E+04  0.00000000000E+00 0. -1.
         22    1    3    3    0    0 -0.68702222194E+01  0.82203062590E+02  0.96017242323E+02  0.12658536359E+03  0.00000000000E+00 0. -1.
         22    1    3    3    0    0  0.13482053516E+03  0.79881979087E+02  0.25909299057E+03  0.30279842312E+03  0.00000000000E+00 0. -1.
</event>
<event>
 7    1  0.6681656E-006  0.2700537E+03  0.7818608E-02  0.1270869E+00
          2   -1    0    0  502    0  0.00000000000E+00  0.00000000000E+00  0.21161585987E+04  0.21161585987E+04  0.00000000000E+00 0. -1.
          1   -1    0    0  501    0 -0.00000000000E+00 -0.00000000000E+00 -0.89175095057E+02  0.89175095057E+02  0.00000000000E+00 0. -1.
         25    2    1    2    0    0  0.10830610146E+02  0.29174547270E+03  0.84413872257E+03  0.90190998890E+03  0.12505487663E+03 0.  0.
          2    1    1    2  501    0  0.17338286821E+02 -0.26260338631E+03  0.22940943822E+03  0.34912726195E+03  0.00000000000E+00 0. -1.
          1    1    1    2  502    0 -0.28168896967E+02 -0.29142086385E+02  0.95343534290E+03  0.95429644296E+03  0.00000000000E+00 0. -1.
         22    1    3    3    0    0  0.88338101024E+01  0.27399157294E+03  0.63039292837E+03  0.68741884058E+03  0.00000000000E+00 0.  1.
         22    1    3    3    0    0  0.19968000436E+01  0.17753899754E+02  0.21374579420E+03  0.21449114832E+03  0.00000000000E+00 0.  1.
</event>
<event>
 7    1  0.6681656E-006  0.8727925E+02  0.7818608E-02  0.1324987E+00
          2   -1    0    0  502    0  0.00000000000E+00  0.00000000000E+00  0.71795464721E+03  0.71795464721E+03  0.00000000000E+00 0. -1.
          1   -1    0    0  501    0 -0.00000000000E+00 -0.00000000000E+00 -0.12830122691E+03  0.12830122691E+03  0.00000000000E+00 0. -1.
         25    2    1    2    0    0  0.79715706265E+02  0.40427842651E+02  0.37468507523E+03  0.40497355818E+03  0.12500269171E+03 0.  0.
          2    1    1    2  501    0 -0.19274114366E+02 -0.86517790190E+02 -0.90394468688E+02  0.12660165668E+03  0.00000000000E+00 0. -1.
          1    1    1    2  502    0 -0.60441591899E+02  0.46089947538E+02  0.30536281375E+03  0.31468065927E+03  0.00000000000E+00 0. -1.
         22    1    3    3    0    0  0.39677735217E+02  0.15075121802E+02  0.19620669948E+02  0.46760588731E+02  0.00000000000E+00 0.  1.
         22    1    3    3    0    0  0.40037971048E+02  0.25352720850E+02  0.35506440528E+03  0.35821296945E+03  0.00000000000E+00 0.  1.
</event>
<event>
 7    1  0.6681656E-006  0.2164074E+03  0.7818608E-02  0.1240523E+00
          2   -1    0    0  502    0  0.00000000000E+00  0.00000000000E+00  0.78470056010E+03  0.78470056010E+03  0.00000000000E+00 0. -1.
          1   -1    0    0  501    0 -0.00000000000E+00 -0.00000000000E+00 -0.54657057736E+03  0.54657057736E+03  0.00000000000E+00 0. -1.
         25    2    1    2    0    0  0.14818604790E+03 -0.40656053558E+02  0.26702966091E+03  0.33247914842E+03  0.12500209936E+03 0.  0.
          2    1    1    2  501    0 -0.21064722813E+03  0.68282773720E+02 -0.48734125201E+03  0.53529084413E+03  0.00000000000E+00 0. -1.
          1    1    1    2  502    0  0.62461180230E+02 -0.27626720162E+02  0.45844157384E+03  0.46350114490E+03  0.00000000000E+00 0. -1.
         22    1    3    3    0    0  0.11467174835E+03 -0.67597422528E+02  0.11974995538E+03  0.17905047673E+03  0.00000000000E+00 0. -1.
         22    1    3    3    0    0  0.33514299542E+02  0.26941368970E+02  0.14727970553E+03  0.15342867169E+03  0.00000000000E+00 0. -1.
</event>
<event>
 7    1  0.6681656E-006  0.1280280E+03  0.7818608E-02  0.1318216E+00
          2   -1    0    0  502    0  0.00000000000E+00  0.00000000000E+00  0.43287474963E+03  0.43287474963E+03  0.00000000000E+00 0. -1.
          1   -1    0    0  501    0 -0.00000000000E+00 -0.00000000000E+00 -0.36207852504E+04  0.36207852504E+04  0.00000000000E+00 0. -1.
         25    2    1    2    0    0  0.71789300526E+02  0.19259645549E+02 -0.11243055759E+04  0.11336722778E+04  0.12500067115E+03 0.  0.
          2    1    1    2  501    0  0.48356766877E+02  0.26288041071E+02 -0.24818451398E+04  0.24824553845E+04  0.00000000000E+00 0. -1.
          1    1    1    2  502    0 -0.12014606740E+03 -0.45547686620E+02  0.41824021490E+03  0.43753233781E+03  0.00000000000E+00 0. -1.
         22    1    3    3    0    0  0.16770239469E+02  0.39248646909E+01 -0.14832242035E+02  0.22729735996E+02  0.00000000000E+00 0. -1.
         22    1    3    3    0    0  0.55019061057E+02  0.15334780858E+02 -0.11094733339E+04  0.11109425418E+04  0.00000000000E+00 0. -1.
</event>
<event>
 7    1  0.6681656E-006  0.1715584E+03  0.7818608E-02  0.1178079E+00
          2   -1    0    0  502    0  0.00000000000E+00  0.00000000000E+00  0.76085422964E+03  0.76085422964E+03  0.00000000000E+00 0. -1.
          1   -1    0    0  501    0 -0.00000000000E+00 -0.00000000000E+00 -0.18874359080E+04  0.18874359080E+04  0.00000000000E+00 0. -1.
         25    2    1    2    0    0  0.13493583062E+03  0.62483961432E+02 -0.14936935226E+03  0.24505615287E+03  0.12501756213E+03 0.  0.
          2    1    1    2  501    0  0.73225514766E+01 -0.16785700064E+03 -0.16749661479E+04  0.16833719699E+04  0.00000000000E+00 0. -1.
          1    1    1    2  502    0 -0.14225838210E+03  0.10537303921E+03  0.69775382179E+03  0.71986201489E+03  0.00000000000E+00 0. -1.
         22    1    3    3    0    0  0.89351555634E+02  0.20634598598E+02 -0.15789199645E+03  0.18259071635E+03  0.00000000000E+00 0.  1.
         22    1    3    3    0    0  0.45584274987E+02  0.41849362834E+02  0.85226441857E+01  0.62465436520E+02  0.00000000000E+00 0.  1.
</event>
<event>
 7    1  0.6681656E-006  0.1442205E+03  0.7818608E-02  0.1384137E+00
          2   -1    0    0  502    0  0.00000000000E+00  0.00000000000E+00  0.17347826374E+04  0.17347826374E+04  0.00000000000E+00 0. -1.
          1   -1    0    0  501    0 -0.00000000000E+00 -0.00000000000E+00 -0.16806205776E+03  0.16806205776E+03  0.00000000000E+00 0. -1.
         25    2    1    2    0    0  0.11113923594E+03  0.76347701884E+02  0.36638059341E+02  0.18747909636E+03  0.12500065133E+03 0.  0.
          2    1    1    2  501    0 -0.10802650664E+03 -0.10403423285E+03 -0.31737183403E+02  0.15329741208E+03  0.00000000000E+00 0. -1.
          1    1    1    2  502    0 -0.31127292973E+01  0.27686530962E+02  0.15618197037E+04  0.15620681867E+04  0.00000000000E+00 0. -1.
         22    1    3    3    0    0  0.82111271267E+02  0.71204490447E+02 -0.31566656175E+02  0.11317594316E+03  0.00000000000E+00 0.  1.
         22    1    3    3    0    0  0.29027964672E+02  0.51432114371E+01  0.68204715516E+02  0.74303153200E+02  0.00000000000E+00 0.  1.
</event>
<event>
 7    1  0.6681656E-006  0.6405144E+02  0.7818608E-02  0.1429930E+00
          2   -1    0    0  502    0  0.00000000000E+00  0.00000000000E+00  0.25901420963E+03  0.25901420963E+03  0.00000000000E+00 0. -1.
          1   -1    0    0  501    0 -0.00000000000E+00 -0.00000000000E+00 -0.17763932380E+04  0.17763932380E+04  0.00000000000E+00 0. -1.
         25    2    1    2    0    0  0.37170762113E+02 -0.41179235996E+02  0.40215757953E+02  0.14254879642E+03  0.12500182855E+03 0.  0.
          2    1    1    2  501    0  0.29060563711E+02  0.32787359639E+02 -0.17182893733E+04  0.17188478401E+04  0.00000000000E+00 0. -1.
          1    1    1    2  502    0 -0.66231325825E+02  0.83918763565E+01  0.16069458692E+03  0.17401081109E+03  0.00000000000E+00 0. -1.
         22    1    3    3    0    0 -0.39303583215E+02 -0.17193667259E+02  0.45109968900E+02  0.62251932833E+02  0.00000000000E+00 0. -1.
         22    1    3    3    0    0  0.76474345328E+02 -0.23985568737E+02 -0.48942109464E+01  0.80296863586E+02  0.00000000000E+00 0. -1.
</event>
<event>
 7    1  0.6681656E-006  0.1515672E+03  0.7818608E-02  0.1212180E+00
          2   -1    0    0  502    0  0.00000000000E+00  0.00000000000E+00  0.18869140810E+04  0.18869140810E+04  0.00000000000E+00 0. -1.
          1   -1    0    0  501    0 -0.00000000000E+00 -0.00000000000E+00 -0.51956152887E+03  0.51956152887E+03  0.00000000000E+00 0. -1.
         25    2    1    2    0    0  0.22016212262E+03 -0.15140815118E+03  0.55773594762E+03  0.63094371378E+03  0.12499917685E+03 0.  0.
          2    1    1    2  501    0 -0.11869046384E+03  0.55212300688E+02 -0.47020932791E+03  0.48809080754E+03  0.00000000000E+00 0. -1.
          1    1    1    2  502    0 -0.10147165877E+03  0.96195850496E+02  0.12798259324E+04  0.12874410886E+04  0.00000000000E+00 0. -1.
         22    1    3    3    0    0  0.19361354623E+02 -0.78351221115E+02  0.17147478816E+03  0.18951880877E+03  0.00000000000E+00 0. -1.
         22    1    3    3    0    0  0.20080076799E+03 -0.73056930069E+02  0.38626115947E+03  0.44142490502E+03  0.00000000000E+00 0. -1.
</event>
<event>
 7    1  0.6681656E-006  0.1220617E+03  0.7818608E-02  0.1273707E+00
          2   -1    0    0  502    0  0.00000000000E+00  0.00000000000E+00  0.19073228942E+04  0.19073228942E+04  0.00000000000E+00 0. -1.
          1   -1    0    0  501    0 -0.00000000000E+00 -0.00000000000E+00 -0.55322785957E+03  0.55322785957E+03  0.00000000000E+00 0. -1.
         25    2    1    2    0    0 -0.29355482241E+02 -0.36099547985E+02  0.82372829600E+02  0.15676436917E+03  0.12499945073E+03 0.  0.
          2    1    1    2  501    0  0.31595572024E+02  0.12332384217E+03 -0.50709469750E+03  0.52283083540E+03  0.00000000000E+00 0. -1.
          1    1    1    2  502    0 -0.22400897832E+01 -0.87224294187E+02  0.17788169025E+04  0.17809555492E+04  0.00000000000E+00 0. -1.
         22    1    3    3    0    0 -0.75594047301E+02 -0.25182622052E+02  0.73563912750E+02  0.10844479563E+03  0.00000000000E+00 0.  1.
         22    1    3    3    0    0  0.46238565060E+02 -0.10916925933E+02  0.88089168498E+01  0.48319573536E+02  0.00000000000E+00 0.  1.
</event>
<event>
 7    1  0.6681656E-006  0.7917262E+02  0.7818608E-02  0.1379538E+00
          2   -1    0    0  502    0  0.00000000000E+00  0.00000000000E+00  0.17340947467E+04  0.17340947467E+04  0.00000000000E+00 0. -1.
          1   -1    0    0  501    0 -0.00000000000E+00 -0.00000000000E+00 -0.81871840269E+02  0.81871840269E+02  0.00000000000E+00 0. -1.
         25    2    1    2    0    0  0.46005552366E+02 -0.25137940816E+02  0.31769437964E+03  0.34540242476E+03  0.12499875705E+03 0.  0.
          2    1    1    2  501    0 -0.31412766718E+02  0.75762458009E+02 -0.42605547944E+02  0.92422641555E+02  0.00000000000E+00 0. -1.
          1    1    1    2  502    0 -0.14592785648E+02 -0.50624517193E+02  0.13771340747E+04  0.13781415206E+04  0.00000000000E+00 0. -1.
         22    1    3    3    0    0  0.88251080676E+02 -0.25687172869E+02  0.19354202770E+03  0.21425825673E+03  0.00000000000E+00 0.  1.
         22    1    3    3    0    0 -0.42245528310E+02  0.54923205290E+00  0.12415235194E+03  0.13114416804E+03  0.00000000000E+00 0.  1.
</event>
<event>
 7    1  0.6681656E-006  0.6064444E+02  0.7818608E-02  0.1454727E+00
          2   -1    0    0  502    0  0.00000000000E+00  0.00000000000E+00  0.32437154094E+04  0.32437154094E+04  0.00000000000E+00 0. -1.
          1   -1    0    0  501    0 -0.00000000000E+00 -0.00000000000E+00 -0.36955149005E+02  0.36955149005E+02  0.00000000000E+00 0. -1.
         25    2    1    2    0    0 -0.12979454200E+02 -0.29150182832E+02  0.14147541618E+04  0.14206227325E+04  0.12498564060E+03 0.  0.
          2    1    1    2  501    0  0.76599095294E+01 -0.37699534887E+02 -0.22324550385E+02  0.44478249680E+02  0.00000000000E+00 0. -1.
          1    1    1    2  502    0  0.53195446708E+01  0.66849717719E+02  0.18143306490E+04  0.18155695762E+04  0.00000000000E+00 0. -1.
         22    1    3    3    0    0 -0.38210777588E+01 -0.64351700403E+01  0.21231876068E+01  0.77794584838E+01  0.00000000000E+00 0. -1.
         22    1    3    3    0    0 -0.91583764414E+01 -0.22715012792E+02  0.14126309742E+04  0.14128432741E+04  0.00000000000E+00 0. -1.
</event>
<event>
 7    1  0.6979827E-006  0.1100732E+03  0.7818608E-02  0.1303714E+00
          2   -1    0    0  502    0  0.00000000000E+00  0.00000000000E+00  0.13264525516E+04  0.13264525516E+04  0.00000000000E+00 0. -1.
          1   -1    0    0  501    0 -0.00000000000E+00 -0.00000000000E+00 -0.55238390444E+03  0.55238390444E+03  0.00000000000E+00 0. -1.
         25    2    1    2    0    0 -0.83676571465E+02 -0.31260890681E+01 -0.95102570770E+02  0.17798628455E+03  0.12499230967E+03 0.  0.
          2    1    1    2  501    0  0.96660900850E+02 -0.68717816188E+02 -0.40631825805E+03  0.42327295548E+03  0.00000000000E+00 0. -1.
          1    1    1    2  502    0 -0.12984329386E+02  0.71843905257E+02  0.12754894760E+04  0.12775772160E+04  0.00000000000E+00 0. -1.
         22    1    3    3    0    0  0.93343622342E+00 -0.45357423399E+02 -0.63980653170E+02  0.78432717284E+02  0.00000000000E+00 0.  1.
         22    1    3    3    0    0 -0.84610007688E+02  0.42231334330E+02 -0.31121917600E+02  0.99553567266E+02  0.00000000000E+00 0.  1.
</event>
<event>
 7    1  0.6681656E-006  0.9133844E+02  0.7818608E-02  0.1418548E+00
          2   -1    0    0  502    0  0.00000000000E+00  0.00000000000E+00  0.67805354627E+03  0.67805354627E+03  0.00000000000E+00 0. -1.
          1   -1    0    0  501    0 -0.00000000000E+00 -0.00000000000E+00 -0.54583260795E+03  0.54583260795E+03  0.00000000000E+00 0. -1.
         25    2    1    2    0    0  0.10594228637E+03  0.14183061510E+02 -0.26893098747E+03  0.31523643780E+03  0.12500083366E+03 0.  0.
          2    1    1    2  501    0 -0.23189429952E+02  0.24199271706E+02 -0.24944611055E+03  0.25168773606E+03  0.00000000000E+00 0. -1.
          1    1    1    2  502    0 -0.82752856419E+02 -0.38382333216E+02  0.65059803635E+03  0.65696198037E+03  0.00000000000E+00 0. -1.
         22    1    3    3    0    0  0.15547509836E+02  0.11310336170E+02  0.10238697827E+02  0.21782554937E+02  0.00000000000E+00 0.  1.
         22    1    3    3    0    0  0.90394776535E+02  0.28727253392E+01 -0.27916968530E+03  0.29345388286E+03  0.00000000000E+00 0.  1.
</event>
<event>
 7    1  0.6681656E-006  0.1477056E+03  0.7818608E-02  0.1269466E+00
          2   -1    0    0  502    0  0.00000000000E+00  0.00000000000E+00  0.31448380480E+04  0.31448380480E+04  0.00000000000E+00 0. -1.
          1   -1    0    0  501    0 -0.00000000000E+00 -0.00000000000E+00 -0.64627320830E+03  0.64627320830E+03  0.00000000000E+00 0. -1.
         25    2    1    2    0    0 -0.12094873538E+03 -0.43869098013E+01  0.33332950729E+02  0.17716202401E+03  0.12500982193E+03 0.  0.
          2    1    1    2  501    0  0.13478520551E+03 -0.69442611919E+02 -0.56387843559E+03  0.58390771368E+03  0.00000000000E+00 0. -1.
          1    1    1    2  502    0 -0.13836470131E+02  0.73829521720E+02  0.30291103246E+04  0.30300415187E+04  0.00000000000E+00 0. -1.
         22    1    3    3    0    0 -0.46769734801E+02  0.59789910816E+02  0.14823719589E+02  0.77343287951E+02  0.00000000000E+00 0.  1.
         22    1    3    3    0    0 -0.74179000575E+02 -0.64176820617E+02  0.18509231140E+02  0.99818736058E+02  0.00000000000E+00 0.  1.
</event>
<event>
 7    1  0.6681656E-006  0.1813647E+03  0.7818608E-02  0.1242877E+00
          2   -1    0    0  502    0  0.00000000000E+00  0.00000000000E+00  0.14455505376E+04  0.14455505376E+04  0.00000000000E+00 0. -1.
          1   -1    0    0  501    0 -0.00000000000E+00 -0.00000000000E+00 -0.60615502605E+02  0.60615502605E+02  0.00000000000E+00 0. -1.
         25    2    1    2    0    0 -0.89042644335E+02 -0.12301678200E+03  0.71300388800E+03  0.73963566399E+03  0.12499859990E+03 0.  0.
          2    1    1    2  501    0 -0.71381825543E+02 -0.35167073418E+02  0.28053710468E+02  0.84374751802E+02  0.00000000000E+00 0. -1.
          1    1    1    2  502    0  0.16042446988E+03  0.15818385542E+03  0.64387743655E+03  0.68215562444E+03  0.00000000000E+00 0. -1.
         22    1    3    3    0    0 -0.17457969806E+01 -0.95070762941E+02  0.47846248873E+03  0.48781948597E+03  0.00000000000E+00 0. -1.
         22    1    3    3    0    0 -0.87296847355E+02 -0.27946019060E+02  0.23454139927E+03  0.25181617802E+03  0.00000000000E+00 0. -1.
</event>
<event>
 7    1  0.6681656E-006  0.5529041E+02  0.7818608E-02  0.1447564E+00
          2   -1    0    0  502    0  0.00000000000E+00  0.00000000000E+00  0.22034087622E+03  0.22034087622E+03  0.00000000000E+00 0. -1.
          1   -1    0    0  501    0 -0.00000000000E+00 -0.00000000000E+00 -0.19741222765E+04  0.19741222765E+04  0.00000000000E+00 0. -1.
         25    2    1    2    0    0  0.12060041662E+02 -0.17203121079E+02 -0.13989751819E+03  0.18878226406E+03  0.12500414253E+03 0.  0.
          2    1    1    2  501    0  0.11749135337E+02  0.54771891320E+02 -0.18068180582E+04  0.18076862277E+04  0.00000000000E+00 0. -1.
          1    1    1    2  502    0 -0.23809176999E+02 -0.37568770242E+02  0.19293417619E+03  0.19799466091E+03  0.00000000000E+00 0. -1.
         22    1    3    3    0    0  0.37097048707E+02 -0.41544561531E+02 -0.14325546013E+03  0.15370188181E+03  0.00000000000E+00 0.  1.
         22    1    3    3    0    0 -0.25037007045E+02  0.24341440452E+02  0.33579419393E+01  0.35080382254E+02  0.00000000000E+00 0.  1.
</event>
<event>
 7    1  0.6681656E-006  0.1324589E+03  0.7818608E-02  0.1388224E+00
          2   -1    0    0  502    0  0.00000000000E+00  0.00000000000E+00  0.42671406898E+03  0.42671406898E+03  0.00000000000E+00 0. -1.
          1   -1    0    0  501    0 -0.00000000000E+00 -0.00000000000E+00 -0.10066121182E+04  0.10066121182E+04  0.00000000000E+00 0. -1.
         25    2    1    2    0    0 -0.14806742597E+03  0.50113822835E+02 -0.32157675307E+03  0.37877649060E+03  0.12499865536E+03 0.  0.
          2    1    1    2  501    0  0.12184242166E+03 -0.36936613367E+02 -0.64970742789E+03  0.66206467281E+03  0.00000000000E+00 0. -1.
          1    1    1    2  502    0  0.26225004305E+02 -0.13177209468E+02  0.39138613178E+03  0.39248502373E+03  0.00000000000E+00 0. -1.
         22    1    3    3    0    0 -0.10000669235E+03 -0.21382046904E+02 -0.23666600001E+03  0.25781645798E+03  0.00000000000E+00 0. -1.
         22    1    3    3    0    0 -0.48060733620E+02  0.71495869738E+02 -0.84910753062E+02  0.12096003262E+03  0.00000000000E+00 0. -1.
</event>
<event>
 7    1  0.6681656E-006  0.2758821E+03  0.7818608E-02  0.1288775E+00
          2   -1    0    0  502    0  0.00000000000E+00  0.00000000000E+00  0.70541873631E+03  0.70541873631E+03  0.00000000000E+00 0. -1.
          1   -1    0    0  501    0 -0.00000000000E+00 -0.00000000000E+00 -0.88961292591E+03  0.88961292591E+03  0.00000000000E+00 0. -1.
         25    2    1    2    0    0 -0.18152239288E+03  0.24462842282E+03  0.67231120991E+02  0.33606305742E+03  0.12499964227E+03 0.  0.
          2    1    1    2  501    0  0.15541002997E+03 -0.22371102247E+03 -0.73003118127E+03  0.77919472830E+03  0.00000000000E+00 0. -1.
          1    1    1    2  502    0  0.26112362910E+02 -0.20917400343E+02  0.47860587067E+03  0.47977387650E+03  0.00000000000E+00 0. -1.
         22    1    3    3    0    0 -0.71163134059E+02  0.17843556082E+03  0.27464220620E+01  0.19212231481E+03  0.00000000000E+00 0. -1.
         22    1    3    3    0    0 -0.11035925882E+03  0.66192861991E+02  0.64484698929E+02  0.14394074261E+03  0.00000000000E+00 0. -1.
</event>
<event>
 7    1  0.6681656E-006  0.9468409E+02  0.7818608E-02  0.1322193E+00
          2   -1    0    0  502    0  0.00000000000E+00  0.00000000000E+00  0.26587625813E+04  0.26587625813E+04  0.00000000000E+00 0. -1.
          1   -1    0    0  501    0 -0.00000000000E+00 -0.00000000000E+00 -0.12407976124E+02  0.12407976124E+02  0.00000000000E+00 0. -1.
         25    2    1    2    0    0  0.69175120250E+02  0.11101466941E+03  0.14187765924E+04  0.14302661262E+04  0.12499887339E+03 0.  0.
          2    1    1    2  501    0 -0.79244175557E+02 -0.39897989891E+02  0.37699067711E+03  0.38728989089E+03  0.00000000000E+00 0. -1.
          1    1    1    2  502    0  0.10069055306E+02 -0.71116679524E+02  0.85058733562E+03  0.85361454035E+03  0.00000000000E+00 0. -1.
         22    1    3    3    0    0  0.59204924176E+02 -0.73629525028E+01  0.59194123988E+03  0.59494022186E+03  0.00000000000E+00 0.  1.
         22    1    3    3    0    0  0.99701960747E+01  0.11837762192E+03  0.82683535256E+03  0.83532590432E+03  0.00000000000E+00 0.  1.
</event>
<event>
 7    1  0.6681656E-006  0.1605156E+03  0.7818608E-02  0.1340868E+00
          2   -1    0    0  502    0  0.00000000000E+00  0.00000000000E+00  0.26022324878E+03  0.26022324878E+03  0.00000000000E+00 0. -1.
          1   -1    0    0  501    0 -0.00000000000E+00 -0.00000000000E+00 -0.17320392643E+04  0.17320392643E+04  0.00000000000E+00 0. -1.
         25    2    1    2    0    0  0.13709305591E+03  0.20679863661E+02 -0.42673615597E+03  0.46578057831E+03  0.12500255028E+03 0.  0.
          2    1    1    2  501    0 -0.16692471433E+03 -0.59385840676E+00 -0.12789830309E+04  0.12898301463E+04  0.00000000000E+00 0. -1.
          1    1    1    2  502    0  0.29831658417E+02 -0.20086005254E+02  0.23390317133E+03  0.23665178852E+03  0.00000000000E+00 0. -1.
         22    1    3    3    0    0  0.45066225639E+02  0.14912113322E+02 -0.25101822758E+02  0.53697647275E+02  0.00000000000E+00 0.  1.
         22    1    3    3    0    0  0.92026830274E+02  0.57677503392E+01 -0.40163433321E+03  0.41208293103E+03  0.00000000000E+00 0.  1.
</event>
<event>
 7    1  0.6681656E-006  0.7198778E+02  0.7818608E-02  0.1364828E+00
          2   -1    0    0  502    0  0.00000000000E+00  0.00000000000E+00  0.11570698036E+04  0.11570698036E+04  0.00000000000E+00 0. -1.
          1   -1    0    0  501    0 -0.00000000000E+00 -0.00000000000E+00 -0.19945548057E+03  0.19945548057E+03  0.00000000000E+00 0. -1.
         25    2    1    2    0    0 -0.50635168839E+02  0.90027898078E+02  0.96433741488E+02  0.18866302620E+03  0.12500131281E+03 0.  0.
          2    1    1    2  501    0 -0.11778398391E+02 -0.70418266854E+02 -0.14390867042E+03  0.16064609674E+03  0.00000000000E+00 0. -1.
          1    1    1    2  502    0  0.62413567229E+02 -0.19609631224E+02  0.10050892520E+04  0.10072161612E+04  0.00000000000E+00 0. -1.
         22    1    3    3    0    0  0.93830973250E+01 -0.14570212633E+02  0.60345770722E+02  0.62784915829E+02  0.00000000000E+00 0.  1.
         22    1    3    3    0    0 -0.60018266164E+02  0.10459811071E+03  0.36087970766E+02  0.12587811037E+03  0.00000000000E+00 0.  1.
</event>
<event>
 7    1  0.6681656E-006  0.1552755E+03  0.7818608E-02  0.1330121E+00
          2   -1    0    0  502    0  0.00000000000E+00  0.00000000000E+00  0.14998512514E+04  0.14998512514E+04  0.00000000000E+00 0. -1.
          1   -1    0    0  501    0 -0.00000000000E+00 -0.00000000000E+00 -0.56578181965E+03  0.56578181965E+03  0.00000000000E+00 0. -1.
         25    2    1    2    0    0 -0.12750489110E+03  0.92710318387E+02  0.40128704288E+03  0.44889549330E+03  0.12499269070E+03 0.  0.
          2    1    1    2  501    0  0.14497967124E+03 -0.55807745698E+02 -0.53044547906E+03  0.55272598619E+03  0.00000000000E+00 0. -1.
          1    1    1    2  502    0 -0.17474780137E+02 -0.36902572689E+02  0.10632278679E+04  0.10640115916E+04  0.00000000000E+00 0. -1.
         22    1    3    3    0    0  0.21773271985E+02  0.12650541487E+01  0.81042577975E+02  0.83926010150E+02  0.00000000000E+00 0.  1.
         22    1    3    3    0    0 -0.14927816309E+03  0.91445264238E+02  0.32024446490E+03  0.36496948315E+03  0.00000000000E+00 0.  1.
</event>
<event>
 7    1  0.6681656E-006  0.5279443E+02  0.7818608E-02  0.1556010E+00
          2   -1    0    0  502    0  0.00000000000E+00  0.00000000000E+00  0.24600537251E+04  0.24600537251E+04  0.00000000000E+00 0. -1.
          1   -1    0    0  501    0 -0.00000000000E+00 -0.00000000000E+00 -0.39119362527E+03  0.39119362527E+03  0.00000000000E+00 0. -1.
         25    2    1    2    0    0  0.30721866397E+02  0.40778422534E+01  0.74594451902E+02  0.14882605068E+03  0.12499759692E+03 0.  0.
          2    1    1    2  501    0  0.22123619182E+02 -0.44191215086E+00 -0.35343306116E+03  0.35412508882E+03  0.00000000000E+00 0. -1.
          1    1    1    2  502    0 -0.52845485579E+02 -0.36359301026E+01  0.23476987091E+04  0.23482962109E+04  0.00000000000E+00 0. -1.
         22    1    3    3    0    0  0.79265597848E+02  0.18514344147E+01  0.37593897734E+02  0.87748298892E+02  0.00000000000E+00 0.  1.
         22    1    3    3    0    0 -0.48543731451E+02  0.22264078387E+01  0.37000554168E+02  0.61077751790E+02  0.00000000000E+00 0.  1.
</event>
<event>
 7    1  0.6681656E-006  0.7422560E+02  0.7818608E-02  0.1421927E+00
          2   -1    0    0  502    0  0.00000000000E+00  0.00000000000E+00  0.19683877436E+04  0.19683877436E+04  0.00000000000E+00 0. -1.
          1   -1    0    0  501    0 -0.00000000000E+00 -0.00000000000E+00 -0.21632664671E+03  0.21632664671E+03  0.00000000000E+00 0. -1.
         25    2    1    2    0    0  0.12885530841E+02  0.98479370107E+02 -0.54012528570E+02  0.16853992876E+03  0.12499652436E+03 0.  0.
          2    1    1    2  501    0 -0.30262971342E+02 -0.26439984969E+02 -0.10046086184E+03  0.10820030038E+03  0.00000000000E+00 0. -1.
          1    1    1    2  502    0  0.17377440501E+02 -0.72039385139E+02  0.19065344873E+04  0.19079741612E+04  0.00000000000E+00 0. -1.
         22    1    3    3    0    0  0.55902555245E+02  0.59349359408E+02 -0.70833962524E+02  0.10800413136E+03  0.00000000000E+00 0.  1.
         22    1    3    3    0    0 -0.43017024403E+02  0.39130010699E+02  0.16821433954E+02  0.60535797394E+02  0.00000000000E+00 0.  1.
</event>
<event>
 7    1  0.6681656E-006  0.4497818E+02  0.7818608E-02  0.1474788E+00
          2   -1    0    0  502    0  0.00000000000E+00  0.00000000000E+00  0.17923612994E+03  0.17923612994E+03  0.00000000000E+00 0. -1.
          1   -1    0    0  501    0 -0.00000000000E+00 -0.00000000000E+00 -0.62488855914E+03  0.62488855914E+03  0.00000000000E+00 0. -1.
         25    2    1    2    0    0 -0.62391868155E+02  0.18928407115E+02 -0.26394101842E+03  0.29923347013E+03  0.12499911454E+03 0.  0.
          2    1    1    2  501    0  0.40119089725E+02  0.20114055033E+02 -0.33866628544E+03  0.34162694487E+03  0.00000000000E+00 0. -1.
          1    1    1    2  502    0  0.22272778429E+02 -0.39042462148E+02  0.15695487466E+03  0.16326427407E+03  0.00000000000E+00 0. -1.
         22    1    3    3    0    0 -0.30768216949E+00  0.15010016181E+02  0.10182201164E+02  0.18140354864E+02  0.00000000000E+00 0.  1.
         22    1    3    3    0    0 -0.62084185985E+02  0.39183909347E+01 -0.27412321958E+03  0.28109311527E+03  0.00000000000E+00 0.  1.
</event>
<event>
 7    1  0.6681656E-006  0.1217681E+03  0.7818608E-02  0.1267252E+00
          2   -1    0    0  502    0  0.00000000000E+00  0.00000000000E+00  0.21559648542E+04  0.21559648542E+04  0.00000000000E+00 0. -1.
          1   -1    0    0  501    0 -0.00000000000E+00 -0.00000000000E+00 -0.24476594833E+03  0.24476594833E+03  0.00000000000E+00 0. -1.
         25    2    1    2    0    0 -0.16510640210E+03  0.11386506370E+03  0.55354196927E+03  0.60187945666E+03  0.12499916743E+03 0.  0.
          2    1    1    2  501    0  0.74142393133E+02 -0.94073010014E+02 -0.20284811724E+03  0.23557203641E+03  0.00000000000E+00 0. -1.
          1    1    1    2  502    0  0.90964008965E+02 -0.19792053691E+02  0.15605050538E+04  0.15632793094E+04  0.00000000000E+00 0. -1.
         22    1    3    3    0    0 -0.14744193276E+03  0.14091083862E+03  0.48292301732E+03  0.52422288069E+03  0.00000000000E+00 0.  1.
         22    1    3    3    0    0 -0.17664469340E+02 -0.27045774913E+02  0.70618951950E+02  0.77656575976E+02  0.00000000000E+00 0.  1.
</event>
<event>
 7    1  0.6681656E-006  0.6167481E+02  0.7818608E-02  0.1437632E+00
          2   -1    0    0  502    0  0.00000000000E+00  0.00000000000E+00  0.37296148022E+03  0.37296148022E+03  0.00000000000E+00 0. -1.
          1   -1    0    0  501    0 -0.00000000000E+00 -0.00000000000E+00 -0.70668638001E+03  0.70668638001E+03  0.00000000000E+00 0. -1.
         25    2    1    2    0    0 -0.14521007383E+02  0.14417367782E+02 -0.42953252313E+03  0.44781761796E+03  0.12499484139E+03 0.  0.
          2    1    1    2  501    0 -0.13808210245E+02  0.40652881332E+02 -0.26362663583E+03  0.26709984379E+03  0.00000000000E+00 0. -1.
          1    1    1    2  502    0  0.28329217628E+02 -0.55070249114E+02  0.35943425918E+03  0.36473039849E+03  0.00000000000E+00 0. -1.
         22    1    3    3    0    0  0.12241236221E+02  0.65524945760E+02 -0.18723800566E+03  0.19874968464E+03  0.00000000000E+00 0. -1.
         22    1    3    3    0    0 -0.26762243604E+02 -0.51107577978E+02 -0.24229451748E+03  0.24906793332E+03  0.00000000000E+00 0. -1.
</event>
<event>
 7    1  0.6681656E-006  0.8293950E+02  0.7818608E-02  0.1424922E+00
          2   -1    0    0  502    0  0.00000000000E+00  0.00000000000E+00  0.20465332446E+04  0.20465332446E+04  0.00000000000E+00 0. -1.
          1   -1    0    0  501    0 -0.00000000000E+00 -0.00000000000E+00 -0.24405414532E+02  0.24405414532E+02  0.00000000000E+00 0. -1.
         25    2    1    2    0    0 -0.15655917019E+02 -0.10809529651E+03  0.92471467935E+03  0.93949550910E+03  0.12499949015E+03 0.  0.
          2    1    1    2  501    0 -0.57719675076E+01  0.80233128947E+02  0.80088259716E+02  0.11351123263E+03  0.00000000000E+00 0. -1.
          1    1    1    2  502    0  0.21427884526E+02  0.27862167568E+02  0.10173248910E+04  0.10179319174E+04  0.00000000000E+00 0. -1.
         22    1    3    3    0    0 -0.52796172625E+02 -0.10603554841E+03  0.53222492028E+03  0.54524704413E+03  0.00000000000E+00 0. -1.
         22    1    3    3    0    0  0.37140255606E+02 -0.20597481025E+01  0.39248975907E+03  0.39424846496E+03  0.00000000000E+00 0. -1.
</event>
<event>
 7    1  0.6681656E-006  0.2717708E+02  0.7818608E-02  0.1634016E+00
          2   -1    0    0  502    0  0.00000000000E+00  0.00000000000E+00  0.95507038158E+03  0.95507038158E+03  0.00000000000E+00 0. -1.
          1   -1    0    0  501    0 -0.00000000000E+00 -0.00000000000E+00 -0.84345017527E+03  0.84345017527E+03  0.00000000000E+00 0. -1.
         25    2    1    2    0    0 -0.38130671153E+01  0.52832999900E+02 -0.38367533870E+03  0.40698592358E+03  0.12499964443E+03 0.  0.
          2    1    1    2  501    0  0.70240733459E+01 -0.25858653839E+02 -0.44752317264E+03  0.44832465651E+03  0.00000000000E+00 0. -1.
          1    1    1    2  502    0 -0.32110062306E+01 -0.26974346060E+02  0.94281871765E+03  0.94320997676E+03  0.00000000000E+00 0. -1.
         22    1    3    3    0    0  0.25432273490E+02  0.26932912591E+02 -0.21745771321E+02  0.42954171926E+02  0.00000000000E+00 0. -1.
         22    1    3    3    0    0 -0.29245340605E+02  0.25900087309E+02 -0.36192956738E+03  0.36403175166E+03  0.00000000000E+00 0. -1.
</event>
<event>
 7    1  0.6681656E-006  0.1988682E+03  0.7818608E-02  0.1230919E+00
          2   -1    0    0  502    0  0.00000000000E+00  0.00000000000E+00  0.54811327461E+04  0.54811327461E+04  0.00000000000E+00 0. -1.
          1   -1    0    0  501    0 -0.00000000000E+00 -0.00000000000E+00 -0.17651449212E+03  0.17651449212E+03  0.00000000000E+00 0. -1.
         25    2    1    2    0    0  0.95407358797E+01 -0.16017609007E+03  0.54465747920E+02  0.21056871843E+03  0.12500104806E+03 0.  0.
          2    1    1    2  501    0 -0.71623239577E+01  0.24213354866E+03  0.51340855522E+02  0.24762034996E+03  0.00000000000E+00 0. -1.
          1    1    1    2  502    0 -0.23784119220E+01 -0.81957458589E+02  0.51988116505E+04  0.51994581698E+04  0.00000000000E+00 0. -1.
         22    1    3    3    0    0 -0.13186249835E+02 -0.46745111253E+02  0.78597298485E+02  0.92393278651E+02  0.00000000000E+00 0. -1.
         22    1    3    3    0    0  0.22726985714E+02 -0.11343097882E+03 -0.24131550565E+02  0.11817543978E+03  0.00000000000E+00 0. -1.
</event>
<event>
 7    1  0.6681656E-006  0.9233995E+02  0.7818608E-02  0.1301430E+00
          2   -1    0    0  502    0  0.00000000000E+00  0.00000000000E+00  0.21640968870E+03  0.21640968870E+03  0.00000000000E+00 0. -1.
          1   -1    0    0  501    0 -0.00000000000E+00 -0.00000000000E+00 -0.59848131693E+03  0.59848131693E+03  0.00000000000E+00 0. -1.
         25    2    1    2    0    0 -0.23778977816E+02 -0.32485813865E+02  0.20792586403E+02  0.13295907388E+03  0.12500006316E+03 0.  0.
          2    1    1    2  501    0 -0.49118064961E+02  0.83322466107E+02 -0.52335122655E+03  0.53221398327E+03  0.00000000000E+00 0. -1.
          1    1    1    2  502    0  0.72897042777E+02 -0.50836652243E+02  0.12048701191E+03  0.14971794847E+03  0.00000000000E+00 0. -1.
         22    1    3    3    0    0 -0.55625025245E+02  0.43583051216E+01 -0.29363072875E+02  0.63050204644E+02  0.00000000000E+00 0.  1.
         22    1    3    3    0    0  0.31846047429E+02 -0.36844118986E+02  0.50155659278E+02  0.69908869239E+02  0.00000000000E+00 0.  1.
</event>
<event>
 7    1  0.6681656E-006  0.3079845E+02  0.7818608E-02  0.1617228E+00
          2   -1    0    0  502    0  0.00000000000E+00  0.00000000000E+00  0.24306728519E+03  0.24306728519E+03  0.00000000000E+00 0. -1.
          1   -1    0    0  501    0 -0.00000000000E+00 -0.00000000000E+00 -0.12533037569E+04  0.12533037569E+04  0.00000000000E+00 0. -1.
         25    2    1    2    0    0  0.40095520736E+01  0.35770514023E+02  0.13149999703E+02  0.13073661808E+03  0.12499413840E+03 0.  0.
          2    1    1    2  501    0  0.19275535704E+02 -0.24039816023E+02 -0.11933172673E+04  0.11937150244E+04  0.00000000000E+00 0. -1.
          1    1    1    2  502    0 -0.23285087778E+02 -0.11730698000E+02  0.16993079587E+03  0.17191939964E+03  0.00000000000E+00 0. -1.
         22    1    3    3    0    0  0.30751561458E+02  0.64951390559E+02 -0.24681538927E+02  0.75983682666E+02  0.00000000000E+00 0. -1.
         22    1    3    3    0    0 -0.26742009384E+02 -0.29180876536E+02  0.37831538629E+02  0.54752935413E+02  0.00000000000E+00 0. -1.
</event>
<event>
 7    1  0.6681656E-006  0.1433688E+03  0.7818608E-02  0.1291626E+00
          2   -1    0    0  502    0  0.00000000000E+00  0.00000000000E+00  0.68301830937E+03  0.68301830937E+03  0.00000000000E+00 0. -1.
          1   -1    0    0  501    0 -0.00000000000E+00 -0.00000000000E+00 -0.96556380147E+03  0.96556380147E+03  0.00000000000E+00 0. -1.
         25    2    1    2    0    0 -0.10716263037E+03 -0.28457538090E+02  0.11594181925E+03  0.20337812644E+03  0.12500598403E+03 0.  0.
          2    1    1    2  501    0  0.14303310638E+03 -0.22950539896E+02 -0.91424509593E+03  0.92565073987E+03  0.00000000000E+00 0. -1.
          1    1    1    2  502    0 -0.35870476015E+02  0.51408077987E+02  0.51575778458E+03  0.51955324452E+03  0.00000000000E+00 0. -1.
         22    1    3    3    0    0 -0.40641664102E+02  0.47410027450E+02  0.65768240907E+02  0.90691328559E+02  0.00000000000E+00 0. -1.
         22    1    3    3    0    0 -0.66520966264E+02 -0.75867565541E+02  0.50173578344E+02  0.11268679788E+03  0.00000000000E+00 0. -1.
</event>
<event>
 7    1  0.6681656E-006  0.7244830E+02  0.7818608E-02  0.1354846E+00
          2   -1    0    0  502    0  0.00000000000E+00  0.00000000000E+00  0.56185440926E+03  0.56185440926E+03  0.00000000000E+00 0. -1.
          1   -1    0    0  501    0 -0.00000000000E+00 -0.00000000000E+00 -0.25020415811E+03  0.25020415811E+03  0.00000000000E+00 0. -1.
         25    2    1    2    0    0  0.74843793015E+00 -0.69369704488E+00  0.12772297240E+03  0.17872046767E+03  0.12500722583E+03 0.  0.
          2    1    1    2  501    0 -0.49964055550E+02  0.53859276486E+02 -0.21535245811E+03  0.22753880927E+03  0.00000000000E+00 0. -1.
          1    1    1    2  502    0  0.49215617620E+02 -0.53165579441E+02  0.39927973686E+03  0.40579929044E+03  0.00000000000E+00 0. -1.
         22    1    3    3    0    0  0.70881092357E+01  0.55765892389E+02  0.10176016804E+03  0.11625492612E+03  0.00000000000E+00 0. -1.
         22    1    3    3    0    0 -0.63396713056E+01 -0.56459589434E+02  0.25962804357E+02  0.62465541552E+02  0.00000000000E+00 0. -1.
</event>
<event>
 7    1  0.6681656E-006  0.9459962E+02  0.7818608E-02  0.1294541E+00
          2   -1    0    0  502    0  0.00000000000E+00  0.00000000000E+00  0.13140279269E+04  0.13140279269E+04  0.00000000000E+00 0. -1.
          1   -1    0    0  501    0 -0.00000000000E+00 -0.00000000000E+00 -0.70663746698E+03  0.70663746698E+03  0.00000000000E+00 0. -1.
         25    2    1    2    0    0  0.96344881106E+02 -0.91197860919E+01  0.15834723884E+03  0.22375070939E+03  0.12500010118E+03 0.  0.
          2    1    1    2  501    0 -0.35912061476E+02  0.85196452307E+02 -0.66864734284E+03  0.67500917085E+03  0.00000000000E+00 0. -1.
          1    1    1    2  502    0 -0.60432819630E+02 -0.76076666215E+02  0.11176905639E+04  0.11219055136E+04  0.00000000000E+00 0. -1.
         22    1    3    3    0    0 -0.20758390263E+02  0.25767544915E+02  0.18008455888E+02  0.37672027032E+02  0.00000000000E+00 0. -1.
         22    1    3    3    0    0  0.11710327137E+03 -0.34887331007E+02  0.14033878295E+03  0.18607868236E+03  0.00000000000E+00 0. -1.
</event>
<event>
 7    1  0.6681656E-006  0.7140595E+02  0.7818608E-02  0.1374411E+00
          2   -1    0    0  502    0  0.00000000000E+00  0.00000000000E+00  0.92481162544E+03  0.92481162544E+03  0.00000000000E+00 0. -1.
          1   -1    0    0  501    0 -0.00000000000E+00 -0.00000000000E+00 -0.79915576840E+03  0.79915576840E+03  0.00000000000E+00 0. -1.
         25    2    1    2    0    0 -0.49622817046E+02  0.44945835267E+01  0.43561430563E+03  0.45592457197E+03  0.12499906723E+03 0.  0.
          2    1    1    2  501    0  0.33497320349E+02 -0.63243846693E+02 -0.78543019214E+03  0.78868399334E+03  0.00000000000E+00 0. -1.
          1    1    1    2  502    0  0.16125496697E+02  0.58749263166E+02  0.47547174355E+03  0.47935882852E+03  0.00000000000E+00 0. -1.
         22    1    3    3    0    0 -0.60419686992E+02 -0.10871459071E+02  0.43256392259E+03  0.43689847142E+03  0.00000000000E+00 0.  1.
         22    1    3    3    0    0  0.10796869946E+02  0.15366042598E+02  0.30503830374E+01  0.19026100558E+02  0.00000000000E+00 0.  1.
</event>
<event>
 7    1  0.6681656E-006  0.1065057E+03  0.7818608E-02  0.1418480E+00
          2   -1    0    0  502    0  0.00000000000E+00  0.00000000000E+00  0.16365734521E+04  0.16365734521E+04  0.00000000000E+00 0. -1.
          1   -1    0    0  501    0 -0.00000000000E+00 -0.00000000000E+00 -0.54675145716E+03  0.54675145716E+03  0.00000000000E+00 0. -1.
         25    2    1    2    0    0  0.85852478704E+02 -0.10303064624E+03  0.79998146936E+02  0.20002606623E+03  0.12499904597E+03 0.  0.
          2    1    1    2  501    0 -0.66598147025E+02  0.81669185885E+02 -0.48089330619E+03  0.49230431752E+03  0.00000000000E+00 0. -1.
          1    1    1    2  502    0 -0.19254331679E+02  0.21361460357E+02  0.14907171542E+04  0.14909945255E+04  0.00000000000E+00 0. -1.
         22    1    3    3    0    0 -0.47940533761E+01 -0.69164871499E+02  0.76435021172E+02  0.10319435478E+03  0.00000000000E+00 0.  1.
         22    1    3    3    0    0  0.90646532080E+02 -0.33865774743E+02  0.35631257645E+01  0.96831711450E+02  0.00000000000E+00 0.  1.
</event>
<event>
 7    1  0.6681656E-006  0.7087725E+02  0.7818608E-02  0.1446662E+00
          2   -1    0    0  502    0  0.00000000000E+00  0.00000000000E+00  0.16277773650E+04  0.16277773650E+04  0.00000000000E+00 0. -1.
          1   -1    0    0  501    0 -0.00000000000E+00 -0.00000000000E+00 -0.55465438175E+02  0.55465438175E+02  0.00000000000E+00 0. -1.
         25    2    1    2    0    0 -0.50355923653E+01  0.81373006308E+02  0.38639291617E+03  0.41421235522E+03  0.12500186482E+03 0.  0.
          2    1    1    2  501    0  0.31170302553E+02 -0.15762119458E+02 -0.33008761235E+02  0.48058407061E+02  0.00000000000E+00 0. -1.
          1    1    1    2  502    0 -0.26134710187E+02 -0.65610886850E+02  0.12189277719E+04  0.12209720409E+04  0.00000000000E+00 0. -1.
         22    1    3    3    0    0 -0.22311229971E+02  0.84819561161E+02  0.12768377762E+03  0.15490415103E+03  0.00000000000E+00 0.  1.
         22    1    3    3    0    0  0.17275637606E+02 -0.34465548528E+01  0.25870913855E+03  0.25930820419E+03  0.00000000000E+00 0.  1.
</event>
<event>
 7    1  0.6681656E-006  0.1326401E+03  0.7818608E-02  0.1373839E+00
          2   -1    0    0  502    0  0.00000000000E+00  0.00000000000E+00  0.18259253034E+04  0.18259253034E+04  0.00000000000E+00 0. -1.
          1   -1    0    0  501    0 -0.00000000000E+00 -0.00000000000E+00 -0.40942248208E+03  0.40942248208E+03  0.00000000000E+00 0. -1.
         25    2    1    2    0    0  0.90976600443E+02 -0.13016876961E+03  0.66613487296E+02  0.21279945462E+03  0.12500240312E+03 0.  0.
          2    1    1    2  501    0 -0.86504127665E+02  0.97521993347E+02 -0.32352961590E+03  0.34880498227E+03  0.00000000000E+00 0. -1.
          1    1    1    2  502    0 -0.44724727783E+01  0.32646776259E+02  0.16734189500E+04  0.16737433486E+04  0.00000000000E+00 0. -1.
         22    1    3    3    0    0  0.86921002755E+02 -0.61572543055E+02 -0.13365632750E+02  0.10735492032E+03  0.00000000000E+00 0. -1.
         22    1    3    3    0    0  0.40555976876E+01 -0.68596226551E+02  0.79979120046E+02  0.10544453430E+03  0.00000000000E+00 0. -1.
</event>
<event>
 7    1  0.6681656E-006  0.5679595E+02  0.7818608E-02  0.1415626E+00
          2   -1    0    0  502    0  0.00000000000E+00  0.00000000000E+00  0.61151704302E+03  0.61151704302E+03  0.00000000000E+00 0. -1.
          1   -1    0    0  501    0 -0.00000000000E+00 -0.00000000000E+00 -0.21476738638E+03  0.21476738638E+03  0.00000000000E+00 0. -1.
         25    2    1    2    0    0 -0.29554606633E+02 -0.53978772046E+02  0.29723463446E+03  0.32827014089E+03  0.12500269945E+03 0.  0.
          2    1    1    2  501    0 -0.30076182572E+02  0.46203895421E+02 -0.19231073935E+03  0.20005698483E+03  0.00000000000E+00 0. -1.
          1    1    1    2  502    0  0.59630789205E+02  0.77748766248E+01  0.29182576153E+03  0.29795730368E+03  0.00000000000E+00 0. -1.
         22    1    3    3    0    0 -0.73604415048E+02 -0.17786884280E+02  0.11817996061E+03  0.14035842068E+03  0.00000000000E+00 0. -1.
         22    1    3    3    0    0  0.44049808415E+02 -0.36191887766E+02  0.17905467385E+03  0.18791172020E+03  0.00000000000E+00 0. -1.
</event>
<event>
 7    1  0.6681656E-006  0.2155537E+03  0.7818608E-02  0.1185754E+00
          2   -1    0    0  502    0  0.00000000000E+00  0.00000000000E+00  0.10707168756E+04  0.10707168756E+04  0.00000000000E+00 0. -1.
          1   -1    0    0  501    0 -0.00000000000E+00 -0.00000000000E+00 -0.68846795882E+03  0.68846795882E+03  0.00000000000E+00 0. -1.
         25    2    1    2    0    0 -0.17865769002E+02 -0.13370402912E+03 -0.11306642892E+02  0.18425307697E+03  0.12500161237E+03 0.  0.
          2    1    1    2  501    0  0.11129828010E+03  0.21324985115E+03 -0.56211198491E+03  0.61141858800E+03  0.00000000000E+00 0. -1.
          1    1    1    2  502    0 -0.93432511100E+02 -0.79545822034E+02  0.95566754462E+03  0.96351316949E+03  0.00000000000E+00 0. -1.
         22    1    3    3    0    0 -0.25411194479E+02  0.11713478875E+02 -0.25619737231E+02  0.37938177710E+02  0.00000000000E+00 0.  1.
         22    1    3    3    0    0  0.75454254764E+01 -0.14541750799E+03  0.14313094338E+02  0.14631489926E+03  0.00000000000E+00 0.  1.
</event>
<event>
 7    1  0.6681656E-006  0.5862871E+02  0.7818608E-02  0.1529898E+00
          2   -1    0    0  502    0  0.00000000000E+00  0.00000000000E+00  0.11694552382E+04  0.11694552382E+04  0.00000000000E+00 0. -1.
          1   -1    0    0  501    0 -0.00000000000E+00 -0.00000000000E+00 -0.11046351661E+03  0.11046351661E+03  0.00000000000E+00 0. -1.
         25    2    1    2    0    0 -0.65514370830E+02  0.42769222724E+02  0.55717397892E+03  0.57635818747E+03  0.12499831311E+03 0.  0.
          2    1    1    2  501    0  0.22624152844E+02 -0.67234938700E+01 -0.98167649061E+02  0.10096506814E+03  0.00000000000E+00 0. -1.
          1    1    1    2  502    0  0.42890217986E+02 -0.36045728854E+02  0.59998539178E+03  0.60259549925E+03  0.00000000000E+00 0. -1.
         22    1    3    3    0    0 -0.19833755726E+02  0.41785429040E+02  0.50455230100E+03  0.50666796267E+03  0.00000000000E+00 0. -1.
         22    1    3    3    0    0 -0.45680615104E+02  0.98379368384E+00  0.52621677919E+02  0.69690224805E+02  0.00000000000E+00 0. -1.
</event>
<event>
 7    1  0.6681656E-006  0.1131288E+03  0.7818608E-02  0.1300635E+00
          2   -1    0    0  502    0  0.00000000000E+00  0.00000000000E+00  0.84032499233E+03  0.84032499233E+03  0.00000000000E+00 0. -1.
          1   -1    0    0  501    0 -0.00000000000E+00 -0.00000000000E+00 -0.12445137962E+04  0.12445137962E+04  0.00000000000E+00 0. -1.
         25    2    1    2    0    0  0.27337143517E+02 -0.18160440556E+03  0.93694562826E+02  0.24110239636E+03  0.12499685954E+03 0.  0.
          2    1    1    2  501    0 -0.54713920102E+01  0.11187897585E+03 -0.11661344988E+04  0.11715018184E+04  0.00000000000E+00 0. -1.
          1    1    1    2  502    0 -0.21865751506E+02  0.69725429709E+02  0.66825113206E+03  0.67223457375E+03  0.00000000000E+00 0. -1.
         22    1    3    3    0    0  0.25051004857E+01 -0.15352019236E+03  0.15419000980E+02  0.15431289830E+03  0.00000000000E+00 0. -1.
         22    1    3    3    0    0  0.24832043031E+02 -0.28084213204E+02  0.78275561846E+02  0.86789498067E+02  0.00000000000E+00 0. -1.
</event>
<event>
 7    1  0.6681656E-006  0.7333465E+02  0.7818608E-02  0.1358603E+00
          2   -1    0    0  502    0  0.00000000000E+00  0.00000000000E+00  0.28339477209E+03  0.28339477209E+03  0.00000000000E+00 0. -1.
          1   -1    0    0  501    0 -0.00000000000E+00 -0.00000000000E+00 -0.23689942403E+03  0.23689942403E+03  0.00000000000E+00 0. -1.
         25    2    1    2    0    0 -0.10017413441E+03  0.13649326423E+02  0.41846595663E+02  0.16612626140E+03  0.12500254334E+03 0.  0.
          2    1    1    2  501    0  0.60382570423E+02  0.41072207824E+02 -0.16015352482E+03  0.17601742124E+03  0.00000000000E+00 0. -1.
          1    1    1    2  502    0  0.39791563984E+02 -0.54721534247E+02  0.16480227722E+03  0.17815051348E+03  0.00000000000E+00 0. -1.
         22    1    3    3    0    0 -0.12496228378E+03 -0.56205094441E+01  0.17313918001E+02  0.12628117140E+03  0.00000000000E+00 0.  1.
         22    1    3    3    0    0  0.24788149372E+02  0.19269835867E+02  0.24532677662E+02  0.39845089998E+02  0.00000000000E+00 0.  1.
</event>
<event>
 7    1  0.6681656E-006  0.1009494E+03  0.7818608E-02  0.1280928E+00
          2   -1    0    0  502    0  0.00000000000E+00  0.00000000000E+00  0.91573894023E+02  0.91573894023E+02  0.00000000000E+00 0. -1.
          1   -1    0    0  501    0 -0.00000000000E+00 -0.00000000000E+00 -0.16846348721E+04  0.16846348721E+04  0.00000000000E+00 0. -1.
         25    2    1    2    0    0  0.40386421304E+02  0.75861224413E+02 -0.11697272254E+03  0.19155507265E+03  0.12499895857E+03 0.  0.
          2    1    1    2  501    0  0.78548288535E+02 -0.59377956627E+02 -0.14602223704E+04  0.14635385019E+04  0.00000000000E+00 0. -1.
          1    1    1    2  502    0 -0.11893470984E+03 -0.16483267787E+02 -0.15865885090E+02  0.12111519158E+03  0.00000000000E+00 0. -1.
         22    1    3    3    0    0  0.79882412711E+02  0.72675638593E+02 -0.64459037592E+02  0.12576929606E+03  0.00000000000E+00 0.  1.
         22    1    3    3    0    0 -0.39495991407E+02  0.31855858209E+01 -0.52513684945E+02  0.65785776584E+02  0.00000000000E+00 0.  1.
</event>
<event>
 7    1  0.6681656E-006  0.8527651E+02  0.7818608E-02  0.1339851E+00
          2   -1    0    0  502    0  0.00000000000E+00  0.00000000000E+00  0.13956987966E+03  0.13956987966E+03  0.00000000000E+00 0. -1.
          1   -1    0    0  501    0 -0.00000000000E+00 -0.00000000000E+00 -0.34621893853E+04  0.34621893853E+04  0.00000000000E+00 0. -1.
         25    2    1    2    0    0 -0.44585946903E+02 -0.80571529992E+02 -0.15072950221E+03  0.21638738283E+03  0.12499775401E+03 0.  0.
          2    1    1    2  501    0 -0.23685742677E+02  0.82272539711E+02 -0.32670890176E+04  0.32682105860E+04  0.00000000000E+00 0. -1.
          1    1    1    2  502    0  0.68271689580E+02 -0.17010097183E+01  0.95199014144E+02  0.11716129619E+03  0.00000000000E+00 0. -1.
         22    1    3    3    0    0  0.10622664683E+02  0.14396090883E+02  0.10909251462E+02  0.20954717969E+02  0.00000000000E+00 0.  1.
         22    1    3    3    0    0 -0.55208611586E+02 -0.94967620875E+02 -0.16163875367E+03  0.19543266486E+03  0.00000000000E+00 0.  1.
</event>
<event>
 7    1  0.6681656E-006  0.4649385E+02  0.7818608E-02  0.1489004E+00
          2   -1    0    0  502    0  0.00000000000E+00  0.00000000000E+00  0.20853628796E+04  0.20853628796E+04  0.00000000000E+00 0. -1.
          1   -1    0    0  501    0 -0.00000000000E+00 -0.00000000000E+00 -0.21090747917E+02  0.21090747917E+02  0.00000000000E+00 0. -1.
         25    2    1    2    0    0  0.28965326597E+02 -0.78144602064E+02  0.83726740388E+03  0.85063933838E+03  0.12500003773E+03 0.  0.
          2    1    1    2  501    0 -0.21213034719E+02  0.39638790642E+02  0.21791082458E+02  0.49960763007E+02  0.00000000000E+00 0. -1.
          1    1    1    2  502    0 -0.77522918780E+01  0.38505811422E+02  0.12052136454E+04  0.12058535262E+04  0.00000000000E+00 0. -1.
         22    1    3    3    0    0  0.72839309635E+02 -0.24949415091E+02  0.33965912607E+03  0.34827627003E+03  0.00000000000E+00 0.  1.
         22    1    3    3    0    0 -0.43873983038E+02 -0.53195186973E+02  0.49760827780E+03  0.50236306835E+03  0.00000000000E+00 0.  1.
</event>
<event>
 7    1  0.6681656E-006  0.9192234E+02  0.7818608E-02  0.1357110E+00
          2   -1    0    0  502    0  0.00000000000E+00  0.00000000000E+00  0.32128614151E+03  0.32128614151E+03  0.00000000000E+00 0. -1.
          1   -1    0    0  501    0 -0.00000000000E+00 -0.00000000000E+00 -0.57617472582E+03  0.57617472582E+03  0.00000000000E+00 0. -1.
         25    2    1    2    0    0  0.75030326238E+02  0.38826741569E+02  0.13425926834E+03  0.20196084106E+03  0.12500225785E+03 0.  0.
          2    1    1    2  501    0 -0.91504838536E+02  0.13293312432E+02 -0.53333929820E+03  0.54129534881E+03  0.00000000000E+00 0. -1.
          1    1    1    2  502    0  0.16474512298E+02 -0.52120054001E+02  0.14419144555E+03  0.15420467747E+03  0.00000000000E+00 0. -1.
         22    1    3    3    0    0  0.62468388854E+02 -0.25037968047E+02  0.11641940934E+03  0.13447184955E+03  0.00000000000E+00 0.  1.
         22    1    3    3    0    0  0.12561937383E+02  0.63864709616E+02  0.17839858997E+02  0.67488991504E+02  0.00000000000E+00 0.  1.
</event>
<event>
 7    1  0.6681656E-006  0.1809752E+03  0.7818608E-02  0.1249278E+00
          2   -1    0    0  502    0  0.00000000000E+00  0.00000000000E+00  0.12795153267E+04  0.12795153267E+04  0.00000000000E+00 0. -1.
          1   -1    0    0  501    0 -0.00000000000E+00 -0.00000000000E+00 -0.13213373369E+03  0.13213373369E+03  0.00000000000E+00 0. -1.
         25    2    1    2    0    0 -0.33327736440E+02 -0.12734546427E+03  0.19224814150E+03  0.26440911871E+03  0.12500091544E+03 0.  0.
          2    1    1    2  501    0  0.35555771528E+02  0.20208782426E+03  0.16741751759E+02  0.20587371822E+03  0.00000000000E+00 0. -1.
          1    1    1    2  502    0 -0.22280350883E+01 -0.74742359981E+02  0.93839169971E+03  0.94136622342E+03  0.00000000000E+00 0. -1.
         22    1    3    3    0    0  0.36521786511E+02 -0.44518498130E+02  0.12302969736E+03  0.13583830092E+03  0.00000000000E+00 0.  1.
         22    1    3    3    0    0 -0.69849522951E+02 -0.82826966144E+02  0.69218444142E+02  0.12857081779E+03  0.00000000000E+00 0.  1.
</event>
<event>
 7    1  0.6681656E-006  0.5043587E+02  0.7818608E-02  0.1448771E+00
          2   -1    0    0  502    0  0.00000000000E+00  0.00000000000E+00  0.23198759941E+02  0.23198759941E+02  0.00000000000E+00 0. -1.
          1   -1    0    0  501    0 -0.00000000000E+00 -0.00000000000E+00 -0.14337536794E+04  0.14337536794E+04  0.00000000000E+00 0. -1.
         25    2    1    2    0    0  0.31421749477E+02 -0.21765241255E+02 -0.99852341468E+03  0.10070426263E+04  0.12499915757E+03 0.  0.
          2    1    1    2  501    0 -0.70459304344E+01  0.63493345385E+02 -0.39269735384E+03  0.39785960056E+03  0.00000000000E+00 0. -1.
          1    1    1    2  502    0 -0.24375819042E+02 -0.41728104129E+02 -0.19334150909E+02  0.52050212483E+02  0.00000000000E+00 0. -1.
         22    1    3    3    0    0 -0.25496203821E+02 -0.51508098397E+02 -0.65881729799E+03  0.66131941809E+03  0.00000000000E+00 0.  1.
         22    1    3    3    0    0  0.56917953298E+02  0.29742857141E+02 -0.33970611670E+03  0.34572320819E+03  0.00000000000E+00 0.  1.
</event>
<event>
 7    1  0.6681656E-006  0.1089771E+03  0.7818608E-02  0.1353016E+00
          2   -1    0    0  502    0  0.00000000000E+00  0.00000000000E+00  0.12087964064E+03  0.12087964064E+03  0.00000000000E+00 0. -1.
          1   -1    0    0  501    0 -0.00000000000E+00 -0.00000000000E+00 -0.41267027011E+03  0.41267027011E+03  0.00000000000E+00 0. -1.
         25    2    1    2    0    0 -0.10981750558E+03  0.63657334230E+02 -0.19409655031E+03  0.26345443804E+03  0.12499051704E+03 0.  0.
          2    1    1    2  501    0  0.43112093950E+02  0.20489693018E+02 -0.14507595583E+03  0.15272692338E+03  0.00000000000E+00 0. -1.
          1    1    1    2  502    0  0.66705411629E+02 -0.84147027249E+02  0.47381876664E+02  0.11736854933E+03  0.00000000000E+00 0. -1.
         22    1    3    3    0    0 -0.12651806617E+03  0.49944576239E+02 -0.10515888250E+03  0.17192926549E+03  0.00000000000E+00 0. -1.
         22    1    3    3    0    0  0.16700560589E+02  0.13712757991E+02 -0.88937667806E+02  0.91525172551E+02  0.00000000000E+00 0. -1.
</event>
<event>
 7    1  0.6681656E-006  0.1726991E+03  0.7818608E-02  0.1205372E+00
          2   -1    0    0  502    0  0.00000000000E+00  0.00000000000E+00  0.12368253393E+04  0.12368253393E+04  0.00000000000E+00 0. -1.
          1   -1    0    0  501    0 -0.00000000000E+00 -0.00000000000E+00 -0.74577925825E+03  0.74577925825E+03  0.00000000000E+00 0. -1.
         25    2    1    2    0    0 -0.50772833593E+02  0.97138399116E+02 -0.11770289278E+03  0.20369890471E+03  0.12500209437E+03 0.  0.
          2    1    1    2  501    0 -0.11656204547E+03 -0.41014763046E+02 -0.57192051228E+03  0.58511707683E+03  0.00000000000E+00 0. -1.
          1    1    1    2  502    0  0.16733487906E+03 -0.56123636070E+02  0.11806694861E+04  0.11937886160E+04  0.00000000000E+00 0. -1.
         22    1    3    3    0    0 -0.45771165230E+02  0.55874370159E+02  0.66971935655E+01  0.72538246524E+02  0.00000000000E+00 0. -1.
         22    1    3    3    0    0 -0.50016683632E+01  0.41264028957E+02 -0.12440008635E+03  0.13116065819E+03  0.00000000000E+00 0. -1.
</event>
<event>
 7    1  0.6681656E-006  0.6808297E+02  0.7818608E-02  0.1373408E+00
          2   -1    0    0  502    0  0.00000000000E+00  0.00000000000E+00  0.20407067769E+04  0.20407067769E+04  0.00000000000E+00 0. -1.
          1   -1    0    0  501    0 -0.00000000000E+00 -0.00000000000E+00 -0.62176572031E+03  0.62176572031E+03  0.00000000000E+00 0. -1.
         25    2    1    2    0    0  0.19851072626E+02 -0.21588025655E+01  0.28932231554E+02  0.12984959314E+03  0.12500046921E+03 0.  0.
          2    1    1    2  501    0 -0.34429346391E+02 -0.60595022368E+02 -0.56864998942E+03  0.57290483250E+03  0.00000000000E+00 0. -1.
          1    1    1    2  502    0  0.14578273765E+02  0.62753824934E+02  0.19586588145E+04  0.19597180716E+04  0.00000000000E+00 0. -1.
         22    1    3    3    0    0  0.57427698281E+02 -0.38476715768E+02 -0.19394892780E+01  0.69153161929E+02  0.00000000000E+00 0.  1.
         22    1    3    3    0    0 -0.37576625655E+02  0.36317913203E+02  0.30871720832E+02  0.60696431214E+02  0.00000000000E+00 0.  1.
</event>
<event>
 7    1  0.6681656E-006  0.7780488E+02  0.7818608E-02  0.1417542E+00
          2   -1    0    0  502    0  0.00000000000E+00  0.00000000000E+00  0.15288083591E+04  0.15288083591E+04  0.00000000000E+00 0. -1.
          1   -1    0    0  501    0 -0.00000000000E+00 -0.00000000000E+00 -0.77918151807E+03  0.77918151807E+03  0.00000000000E+00 0. -1.
         25    2    1    2    0    0 -0.94421123354E+02 -0.36424246321E+02 -0.13477567877E+03  0.20984228790E+03  0.12500891148E+03 0.  0.
          2    1    1    2  501    0  0.57454378667E+02  0.50769786585E+02 -0.60418579413E+03  0.60903123950E+03  0.00000000000E+00 0. -1.
          1    1    1    2  502    0  0.36966744687E+02 -0.14345540264E+02  0.14885883139E+04  0.14891163497E+04  0.00000000000E+00 0. -1.
         22    1    3    3    0    0 -0.37276093586E+02  0.29340427634E+02 -0.10917375429E+03  0.11903477002E+03  0.00000000000E+00 0.  1.
         22    1    3    3    0    0 -0.57145029769E+02 -0.65764673955E+02 -0.25601924481E+02  0.90807517887E+02  0.00000000000E+00 0.  1.
</event>
<event>
 7    1  0.6681656E-006  0.5583083E+02  0.7818608E-02  0.1447984E+00
          2   -1    0    0  502    0  0.00000000000E+00  0.00000000000E+00  0.48415219864E+03  0.48415219864E+03  0.00000000000E+00 0. -1.
          1   -1    0    0  501    0 -0.00000000000E+00 -0.00000000000E+00 -0.97226067200E+03  0.97226067200E+03  0.00000000000E+00 0. -1.
         25    2    1    2    0    0 -0.12425171633E+02 -0.42905319935E+02  0.77208996394E+02  0.15356444479E+03  0.12500223282E+03 0.  0.
          2    1    1    2  501    0 -0.31342805741E+02  0.46441880161E+02 -0.93193143008E+03  0.93361416552E+03  0.00000000000E+00 0. -1.
          1    1    1    2  502    0  0.43767977373E+02 -0.35365602265E+01  0.36661396032E+03  0.36923426033E+03  0.00000000000E+00 0. -1.
         22    1    3    3    0    0 -0.17821302660E+02 -0.33640226731E+02 -0.28347917024E+02  0.47464387520E+02  0.00000000000E+00 0. -1.
         22    1    3    3    0    0  0.53961310272E+01 -0.92650932032E+01  0.10555691342E+03  0.10610005727E+03  0.00000000000E+00 0. -1.
</event>
<event>
 7    1  0.6681656E-006  0.6631199E+02  0.7818608E-02  0.1513551E+00
          2   -1    0    0  502    0  0.00000000000E+00  0.00000000000E+00  0.11841542796E+04  0.11841542796E+04  0.00000000000E+00 0. -1.
          1   -1    0    0  501    0 -0.00000000000E+00 -0.00000000000E+00 -0.58583494495E+02  0.58583494495E+02  0.00000000000E+00 0. -1.
         25    2    1    2    0    0 -0.76958227723E+02  0.63203789176E+01  0.74370524270E+02  0.16468075764E+03  0.12500504410E+03 0.  0.
          2    1    1    2  501    0  0.15283947074E+02  0.17549271581E+02 -0.14636941342E+01  0.23317769441E+02  0.00000000000E+00 0. -1.
          1    1    1    2  502    0  0.61674280648E+02 -0.23869650499E+02  0.10526639550E+04  0.10547392470E+04  0.00000000000E+00 0. -1.
         22    1    3    3    0    0  0.10959285338E+02 -0.23338479174E+02  0.66780860207E+02  0.71585430328E+02  0.00000000000E+00 0.  1.
         22    1    3    3    0    0 -0.87917513061E+02  0.29658858091E+02  0.75896640629E+01  0.93095327308E+02  0.00000000000E+00 0.  1.
</event>
<event>
 7    1  0.6681656E-006  0.1610339E+03  0.7818608E-02  0.1199221E+00
          2   -1    0    0  502    0  0.00000000000E+00  0.00000000000E+00  0.58162415056E+03  0.58162415056E+03  0.00000000000E+00 0. -1.
          1   -1    0    0  501    0 -0.00000000000E+00 -0.00000000000E+00 -0.91718378717E+03  0.91718378717E+03  0.00000000000E+00 0. -1.
         25    2    1    2    0    0 -0.85902386024E+02 -0.81517272429E+01  0.12891139030E+02  0.15245058401E+03  0.12501731287E+03 0.  0.
          2    1    1    2  501    0 -0.28210433208E+02 -0.13879764526E+03 -0.82380370831E+03  0.83589064159E+03  0.00000000000E+00 0. -1.
          1    1    1    2  502    0  0.11411281923E+03  0.14694937250E+03  0.47535293267E+03  0.51046671213E+03  0.00000000000E+00 0. -1.
         22    1    3    3    0    0  0.22524798846E+02  0.28897566475E+02 -0.30441150785E+01  0.36765507583E+02  0.00000000000E+00 0. -1.
         22    1    3    3    0    0 -0.10842718487E+03 -0.37049293718E+02  0.15935254108E+02  0.11568507642E+03  0.00000000000E+00 0. -1.
</event>
<event>
 7    1  0.6681656E-006  0.6435397E+02  0.7818608E-02  0.1496424E+00
          2   -1    0    0  502    0  0.00000000000E+00  0.00000000000E+00  0.23802715967E+03  0.23802715967E+03  0.00000000000E+00 0. -1.
          1   -1    0    0  501    0 -0.00000000000E+00 -0.00000000000E+00 -0.16325782478E+03  0.16325782478E+03  0.00000000000E+00 0. -1.
         25    2    1    2    0    0  0.49369547235E+02  0.30002127111E+02  0.15960012799E+03  0.21079318250E+03  0.12499634038E+03 0.  0.
          2    1    1    2  501    0 -0.36431116811E+02 -0.53646685985E+02 -0.12575432224E+03  0.14148972666E+03  0.00000000000E+00 0. -1.
          1    1    1    2  502    0 -0.12938430424E+02  0.23644558874E+02  0.40923529135E+02  0.49002075293E+02  0.00000000000E+00 0. -1.
         22    1    3    3    0    0  0.79410877201E+02  0.24361271759E+02  0.49867827560E+02  0.96883224581E+02  0.00000000000E+00 0. -1.
         22    1    3    3    0    0 -0.30041329966E+02  0.56408553517E+01  0.10973230043E+03  0.11390995792E+03  0.00000000000E+00 0. -1.
</event>
<event>
 7    1  0.6681656E-006  0.6391599E+02  0.7818608E-02  0.1394310E+00
          2   -1    0    0  502    0  0.00000000000E+00  0.00000000000E+00  0.26047402829E+03  0.26047402829E+03  0.00000000000E+00 0. -1.
          1   -1    0    0  501    0 -0.00000000000E+00 -0.00000000000E+00 -0.77370597397E+03  0.77370597397E+03  0.00000000000E+00 0. -1.
         25    2    1    2    0    0  0.68684461730E+02  0.66238408084E+02 -0.43636807611E+03  0.46383859431E+03  0.12499624689E+03 0.  0.
          2    1    1    2  501    0 -0.57827264341E+02 -0.33760316296E+01 -0.31680890052E+03  0.32206097177E+03  0.00000000000E+00 0. -1.
          1    1    1    2  502    0 -0.10857197389E+02 -0.62862376455E+02  0.23994503095E+03  0.24828043618E+03  0.00000000000E+00 0. -1.
         22    1    3    3    0    0  0.96986682336E+02  0.79048576857E+02 -0.32616395138E+03  0.34933940120E+03  0.00000000000E+00 0.  1.
         22    1    3    3    0    0 -0.28302220606E+02 -0.12810168772E+02 -0.11020412473E+03  0.11449919311E+03  0.00000000000E+00 0.  1.
</event>
<event>
 7    1  0.6681656E-006  0.4984927E+02  0.7818608E-02  0.1489123E+00
          2   -1    0    0  502    0  0.00000000000E+00  0.00000000000E+00  0.76332882427E+03  0.76332882427E+03  0.00000000000E+00 0. -1.
          1   -1    0    0  501    0 -0.00000000000E+00 -0.00000000000E+00 -0.78871875976E+02  0.78871875976E+02  0.00000000000E+00 0. -1.
         25    2    1    2    0    0  0.18148918613E+02  0.38182981754E+02  0.21901322217E+02  0.13376253457E+03  0.12500169758E+03 0.  0.
          2    1    1    2  501    0  0.14360419471E+02 -0.55005759934E+02  0.13603257007E+02  0.58454288761E+02  0.00000000000E+00 0. -1.
          1    1    1    2  502    0 -0.32509338084E+02  0.16822778180E+02  0.64895236907E+03  0.64998387692E+03  0.00000000000E+00 0. -1.
         22    1    3    3    0    0 -0.20124472602E+02  0.57503756118E+02 -0.28779986322E+02  0.67379254804E+02  0.00000000000E+00 0.  1.
         22    1    3    3    0    0  0.38273391215E+02 -0.19320774365E+02  0.50681308539E+02  0.66383279765E+02  0.00000000000E+00 0.  1.
</event>
<event>
 7    1  0.6681656E-006  0.9406060E+02  0.7818608E-02  0.1421796E+00
          2   -1    0    0  502    0  0.00000000000E+00  0.00000000000E+00  0.16765212645E+04  0.16765212645E+04  0.00000000000E+00 0. -1.
          1   -1    0    0  501    0 -0.00000000000E+00 -0.00000000000E+00 -0.12424454844E+03  0.12424454844E+03  0.00000000000E+00 0. -1.
         25    2    1    2    0    0 -0.75121271922E+02 -0.78068300635E+01  0.46097177362E+03  0.48355366175E+03  0.12500006251E+03 0.  0.
          2    1    1    2  501    0  0.93205515096E+02 -0.18281807865E+02 -0.92735957815E+02  0.13274581129E+03  0.00000000000E+00 0. -1.
          1    1    1    2  502    0 -0.18084243174E+02  0.26088637928E+02  0.11840409002E+04  0.11844663399E+04  0.00000000000E+00 0. -1.
         22    1    3    3    0    0  0.16244928664E+02  0.15168969115E+01  0.28127407711E+03  0.28174688132E+03  0.00000000000E+00 0.  1.
         22    1    3    3    0    0 -0.91366200586E+02 -0.93237269750E+01  0.17969769652E+03  0.20180678043E+03  0.00000000000E+00 0.  1.
</event>
<event>
 7    1  0.6681656E-006  0.1579673E+03  0.7818608E-02  0.1341509E+00
          2   -1    0    0  502    0  0.00000000000E+00  0.00000000000E+00  0.11522860417E+04  0.11522860417E+04  0.00000000000E+00 0. -1.
          1   -1    0    0  501    0 -0.00000000000E+00 -0.00000000000E+00 -0.99188040479E+03  0.99188040479E+03  0.00000000000E+00 0. -1.
         25    2    1    2    0    0 -0.11091282877E+03  0.15668294031E+03 -0.25474730377E+02  0.23049389678E+03  0.12500910044E+03 0.  0.
          2    1    1    2  501    0  0.15029341768E+02 -0.33088185782E+02 -0.85768189641E+03  0.85845148062E+03  0.00000000000E+00 0. -1.
          1    1    1    2  502    0  0.95883487003E+02 -0.12359475453E+03  0.10435622637E+04  0.10552210691E+04  0.00000000000E+00 0. -1.
         22    1    3    3    0    0 -0.81119482574E+01  0.11688441424E+03 -0.27046824572E+02  0.12024683245E+03  0.00000000000E+00 0.  1.
         22    1    3    3    0    0 -0.10280088051E+03  0.39798526076E+02  0.15720941948E+01  0.11024706433E+03  0.00000000000E+00 0.  1.
</event>
<event>
 7    1  0.6681656E-006  0.1158681E+03  0.7818608E-02  0.1294029E+00
          2   -1    0    0  502    0  0.00000000000E+00  0.00000000000E+00  0.21704908265E+04  0.21704908265E+04  0.00000000000E+00 0. -1.
          1   -1    0    0  501    0 -0.00000000000E+00 -0.00000000000E+00 -0.30528419037E+03  0.30528419037E+03  0.00000000000E+00 0. -1.
         25    2    1    2    0    0 -0.81797205739E+02  0.51220906940E+02  0.52457166890E+02  0.16640552730E+03  0.12499872393E+03 0.  0.
          2    1    1    2  501    0  0.39805394578E+02 -0.11438081953E+03 -0.23279801901E+03  0.26241638471E+03  0.00000000000E+00 0. -1.
          1    1    1    2  502    0  0.41991811161E+02  0.63159912590E+02  0.20455474883E+04  0.20469531049E+04  0.00000000000E+00 0. -1.
         22    1    3    3    0    0 -0.10477978094E+03  0.62268923237E+02  0.17500135835E+02  0.12313600631E+03  0.00000000000E+00 0.  1.
         22    1    3    3    0    0  0.22982575202E+02 -0.11048016297E+02  0.34957031054E+02  0.43269520995E+02  0.00000000000E+00 0.  1.
</event>
<event>
 7    1  0.6681656E-006  0.3229738E+02  0.7818608E-02  0.1623875E+00
          2   -1    0    0  502    0  0.00000000000E+00  0.00000000000E+00  0.47898443137E+03  0.47898443137E+03  0.00000000000E+00 0. -1.
          1   -1    0    0  501    0 -0.00000000000E+00 -0.00000000000E+00 -0.28944815989E+03  0.28944815989E+03  0.00000000000E+00 0. -1.
         25    2    1    2    0    0  0.13893919195E+02  0.70907540517E+01  0.15058816490E+01  0.12598607838E+03  0.12500761770E+03 0.  0.
          2    1    1    2  501    0 -0.10894367425E+02 -0.30815130793E+02 -0.22568558775E+03  0.22804000536E+03  0.00000000000E+00 0. -1.
          1    1    1    2  502    0 -0.29995517696E+01  0.23724376742E+02  0.41371597758E+03  0.41440650751E+03  0.00000000000E+00 0. -1.
         22    1    3    3    0    0  0.50380158333E+02 -0.37325678715E+02 -0.18087641469E+02  0.65257408921E+02  0.00000000000E+00 0. -1.
         22    1    3    3    0    0 -0.36486239138E+02  0.44416432767E+02  0.19593523118E+02  0.60728669460E+02  0.00000000000E+00 0. -1.
</event>
<event>
 7    1  0.6681656E-006  0.8736032E+02  0.7818608E-02  0.1411178E+00
          2   -1    0    0  502    0  0.00000000000E+00  0.00000000000E+00  0.66686978894E+03  0.66686978894E+03  0.00000000000E+00 0. -1.
          1   -1    0    0  501    0 -0.00000000000E+00 -0.00000000000E+00 -0.86506015273E+03  0.86506015273E+03  0.00000000000E+00 0. -1.
         25    2    1    2    0    0 -0.86783657090E+02 -0.31109073915E+02 -0.45887629471E+03  0.48445001329E+03  0.12500073566E+03 0.  0.
          2    1    1    2  501    0  0.23269179793E+02 -0.28897919485E+02 -0.38959355378E+03  0.39135620811E+03  0.00000000000E+00 0. -1.
          1    1    1    2  502    0  0.63514477297E+02  0.60006993401E+02  0.65027948469E+03  0.65612372027E+03  0.00000000000E+00 0. -1.
         22    1    3    3    0    0 -0.92664252356E+02 -0.63842686822E+02 -0.26748938710E+03  0.29019497676E+03  0.00000000000E+00 0. -1.
         22    1    3    3    0    0  0.58805952668E+01  0.32733612906E+02 -0.19138690761E+03  0.19425503653E+03  0.00000000000E+00 0. -1.
</event>
<event>
 7    1  0.6681656E-006  0.2495498E+03  0.7818608E-02  0.1306278E+00
          2   -1    0    0  502    0  0.00000000000E+00  0.00000000000E+00  0.30971316718E+04  0.30971316718E+04  0.00000000000E+00 0. -1.
          1   -1    0    0  501    0 -0.00000000000E+00 -0.00000000000E+00 -0.50943512895E+02  0.50943512895E+02  0.00000000000E+00 0. -1.
         25    2    1    2    0    0  0.72949975059E+02 -0.22435118577E+03  0.64819534595E+03  0.70102587788E+03  0.12499968613E+03 0.  0.
          2    1    1    2  501    0 -0.95396595316E+02  0.24638888013E+03  0.69135209570E+03  0.74011871404E+03  0.00000000000E+00 0. -1.
          1    1    1    2  502    0  0.22446620258E+02 -0.22037694353E+02  0.17066407173E+04  0.17069305928E+04  0.00000000000E+00 0. -1.
         22    1    3    3    0    0  0.48722962124E+02 -0.96996209544E+01  0.15007165150E+03  0.15808070809E+03  0.00000000000E+00 0. -1.
         22    1    3    3    0    0  0.24227012935E+02 -0.21465156482E+03  0.49812369445E+03  0.54294516980E+03  0.00000000000E+00 0. -1.
</event>
<event>
 7    1  0.6681656E-006  0.9464521E+02  0.7818608E-02  0.1300808E+00
          2   -1    0    0  502    0  0.00000000000E+00  0.00000000000E+00  0.80528600691E+02  0.80528600691E+02  0.00000000000E+00 0. -1.
          1   -1    0    0  501    0 -0.00000000000E+00 -0.00000000000E+00 -0.15158671218E+04  0.15158671218E+04  0.00000000000E+00 0. -1.
         25    2    1    2    0    0 -0.17593111532E+02 -0.14517287123E+03 -0.31062239015E+03  0.36537173851E+03  0.12500223167E+03 0.  0.
          2    1    1    2  501    0 -0.42771386805E+02  0.82237223614E+02 -0.11389057933E+04  0.11426717632E+04  0.00000000000E+00 0. -1.
          1    1    1    2  502    0  0.60364498337E+02  0.62935647616E+02  0.14189662311E+02  0.88352220780E+02  0.00000000000E+00 0. -1.
         22    1    3    3    0    0 -0.21308256728E+02 -0.13479796095E+03 -0.14403516520E+03  0.19842041451E+03  0.00000000000E+00 0.  1.
         22    1    3    3    0    0  0.37151451956E+01 -0.10374910279E+02 -0.16658722495E+03  0.16695132399E+03  0.00000000000E+00 0.  1.
</event>
<event>
 7    1  0.6681656E-006  0.1663152E+03  0.7818608E-02  0.1294062E+00
          2   -1    0    0  502    0  0.00000000000E+00  0.00000000000E+00  0.21451835808E+03  0.21451835808E+03  0.00000000000E+00 0. -1.
          1   -1    0    0  501    0 -0.00000000000E+00 -0.00000000000E+00 -0.13008632992E+04  0.13008632992E+04  0.00000000000E+00 0. -1.
         25    2    1    2    0    0  0.18626778295E+03 -0.13080295150E+02 -0.90495558795E+03  0.93243484693E+03  0.12499338595E+03 0.  0.
          2    1    1    2  501    0 -0.14552303292E+03 -0.20537655482E+02 -0.36415919903E+03  0.39269666492E+03  0.00000000000E+00 0. -1.
          1    1    1    2  502    0 -0.40744750029E+02  0.33617950632E+02  0.18276984588E+03  0.19025014540E+03  0.00000000000E+00 0. -1.
         22    1    3    3    0    0  0.17834475837E+02 -0.23262151641E+01 -0.39229047326E+03  0.39270255311E+03  0.00000000000E+00 0. -1.
         22    1    3    3    0    0  0.16843330712E+03 -0.10754079986E+02 -0.51266511469E+03  0.53973229383E+03  0.00000000000E+00 0. -1.
</event>
<event>
 7    1  0.6681656E-006  0.8486578E+02  0.7818608E-02  0.1428354E+00
          2   -1    0    0  502    0  0.00000000000E+00  0.00000000000E+00  0.16134927519E+04  0.16134927519E+04  0.00000000000E+00 0. -1.
          1   -1    0    0  501    0 -0.00000000000E+00 -0.00000000000E+00 -0.19534899489E+03  0.19534899489E+03  0.00000000000E+00 0. -1.
         25    2    1    2    0    0  0.23589384934E+02  0.11408526396E+03  0.75897058110E+02  0.18696818858E+03  0.12499933430E+03 0.  0.
          2    1    1    2  501    0  0.65529301760E+00 -0.33458341218E+02 -0.13659631040E+03  0.14063584899E+03  0.00000000000E+00 0. -1.
          1    1    1    2  502    0 -0.24244677952E+02 -0.80626922740E+02  0.14788430093E+04  0.14812377092E+04  0.00000000000E+00 0. -1.
         22    1    3    3    0    0  0.74024831547E+02  0.72035831380E+02  0.32595064157E+02  0.10831101004E+03  0.00000000000E+00 0.  1.
         22    1    3    3    0    0 -0.50435446613E+02  0.42049432578E+02  0.43301993952E+02  0.78657178537E+02  0.00000000000E+00 0.  1.
</event>
<event>
 7    1  0.6681656E-006  0.7074077E+02  0.7818608E-02  0.1385154E+00
          2   -1    0    0  502    0  0.00000000000E+00  0.00000000000E+00  0.20438316869E+04  0.20438316869E+04  0.00000000000E+00 0. -1.
          1   -1    0    0  501    0 -0.00000000000E+00 -0.00000000000E+00 -0.26614863445E+03  0.26614863445E+03  0.00000000000E+00 0. -1.
         25    2    1    2    0    0 -0.18845678473E+02  0.25005864678E+02  0.18535062590E+03  0.22574664939E+03  0.12500496920E+03 0.  0.
          2    1    1    2  501    0 -0.14242819290E+02 -0.70599597242E+02 -0.24023591664E+03  0.25079963452E+03  0.00000000000E+00 0. -1.
          1    1    1    2  502    0  0.33088497763E+02  0.45593732564E+02  0.18325683432E+04  0.18334340374E+04  0.00000000000E+00 0. -1.
         22    1    3    3    0    0 -0.66951142903E+02  0.40317540689E+02  0.10595474824E+03  0.13166004822E+03  0.00000000000E+00 0.  1.
         22    1    3    3    0    0  0.48105464430E+02 -0.15311676011E+02  0.79395877667E+02  0.94086601176E+02  0.00000000000E+00 0.  1.
</event>
<event>
 7    1  0.6681656E-006  0.2282951E+02  0.7818608E-02  0.1699639E+00
          2   -1    0    0  502    0  0.00000000000E+00  0.00000000000E+00  0.15763441454E+04  0.15763441454E+04  0.00000000000E+00 0. -1.
          1   -1    0    0  501    0 -0.00000000000E+00 -0.00000000000E+00 -0.47520436645E+02  0.47520436645E+02  0.00000000000E+00 0. -1.
         25    2    1    2    0    0 -0.41679426548E+02  0.10558851240E+02  0.47125939346E+03  0.48944584024E+03  0.12499260243E+03 0.  0.
          2    1    1    2  501    0  0.22171996896E+02  0.83599521789E+00 -0.35097904825E+02  0.41522996730E+02  0.00000000000E+00 0. -1.
          1    1    1    2  502    0  0.19507429653E+02 -0.11394846458E+02  0.10926622201E+04  0.10928957451E+04  0.00000000000E+00 0. -1.
         22    1    3    3    0    0 -0.15976261925E+02  0.38339804270E+02  0.43517680151E+03  0.43715446939E+03  0.00000000000E+00 0.  1.
         22    1    3    3    0    0 -0.25703164624E+02 -0.27780953029E+02  0.36082591954E+02  0.52291370847E+02  0.00000000000E+00 0.  1.
</event>
<event>
 7    1  0.6681656E-006  0.5964419E+02  0.7818608E-02  0.1436786E+00
          2   -1    0    0  502    0  0.00000000000E+00  0.00000000000E+00  0.13401748687E+04  0.13401748687E+04  0.00000000000E+00 0. -1.
          1   -1    0    0  501    0 -0.00000000000E+00 -0.00000000000E+00 -0.13890250761E+03  0.13890250761E+03  0.00000000000E+00 0. -1.
         25    2    1    2    0    0  0.59919038615E+02  0.44485880190E+01  0.56439518908E+03  0.58118572767E+03  0.12499935788E+03 0.  0.
          2    1    1    2  501    0 -0.46171615318E+02  0.38062002093E+02 -0.12295749495E+03  0.13674457806E+03  0.00000000000E+00 0. -1.
          1    1    1    2  502    0 -0.13747423297E+02 -0.42510590112E+02  0.75983466692E+03  0.76114707053E+03  0.00000000000E+00 0. -1.
         22    1    3    3    0    0  0.51773460684E+02  0.36666188880E+02  0.52840469697E+03  0.53219960956E+03  0.00000000000E+00 0.  1.
         22    1    3    3    0    0  0.81455779316E+01 -0.32217600861E+02  0.35990492107E+02  0.48986118107E+02  0.00000000000E+00 0.  1.
</event>
<event>
 7    1  0.6681656E-006  0.8769510E+02  0.7818608E-02  0.1347073E+00
          2   -1    0    0  502    0  0.00000000000E+00  0.00000000000E+00  0.12920732613E+04  0.12920732613E+04  0.00000000000E+00 0. -1.
          1   -1    0    0  501    0 -0.00000000000E+00 -0.00000000000E+00 -0.73688879082E+03  0.73688879082E+03  0.00000000000E+00 0. -1.
         25    2    1    2    0    0 -0.14147057505E+03 -0.45233186894E+02  0.14564859480E+03  0.24269223802E+03  0.12500417764E+03 0.  0.
          2    1    1    2  501    0  0.84629581496E+02  0.19481751067E+02 -0.68473552464E+03  0.69022057590E+03  0.00000000000E+00 0. -1.
          1    1    1    2  502    0  0.56840993554E+02  0.25751435827E+02  0.10942714003E+04  0.10960492382E+04  0.00000000000E+00 0. -1.
         22    1    3    3    0    0 -0.80138171805E+02  0.16771434722E+02  0.13067035061E+03  0.15420164763E+03  0.00000000000E+00 0. -1.
         22    1    3    3    0    0 -0.61332403245E+02 -0.62004621616E+02  0.14978244195E+02  0.88490590396E+02  0.00000000000E+00 0. -1.
</event>
<event>
 7    1  0.6681656E-006  0.5008559E+02  0.7818608E-02  0.1493934E+00
          2   -1    0    0  502    0  0.00000000000E+00  0.00000000000E+00  0.99968109645E+03  0.99968109645E+03  0.00000000000E+00 0. -1.
          1   -1    0    0  501    0 -0.00000000000E+00 -0.00000000000E+00 -0.16297117806E+03  0.16297117806E+03  0.00000000000E+00 0. -1.
         25    2    1    2    0    0 -0.84823247508E+02  0.40193754186E+01  0.15200094434E+02  0.15187907086E+03  0.12500028240E+03 0.  0.
          2    1    1    2  501    0  0.35089800330E+02 -0.31759596812E+01 -0.90650940354E+02  0.97257255740E+02  0.00000000000E+00 0. -1.
          1    1    1    2  502    0  0.49733447178E+02 -0.84341573737E+00  0.91216076432E+03  0.91351594791E+03  0.00000000000E+00 0. -1.
         22    1    3    3    0    0 -0.10448695287E+03 -0.19710184298E+02  0.38668337596E+02  0.11314263130E+03  0.00000000000E+00 0.  1.
         22    1    3    3    0    0  0.19663705362E+02  0.23729559717E+02 -0.23468243162E+02  0.38736439563E+02  0.00000000000E+00 0.  1.
</event>
<event>
 7    1  0.6681656E-006  0.8585506E+02  0.7818608E-02  0.1368651E+00
          2   -1    0    0  502    0  0.00000000000E+00  0.00000000000E+00  0.27536084135E+04  0.27536084135E+04  0.00000000000E+00 0. -1.
          1   -1    0    0  501    0 -0.00000000000E+00 -0.00000000000E+00 -0.80323230031E+02  0.80323230031E+02  0.00000000000E+00 0. -1.
         25    2    1    2    0    0  0.38797431171E+02  0.11474607216E+03  0.18706919092E+04  0.18787725457E+04  0.12500463004E+03 0.  0.
          2    1    1    2  501    0 -0.56130430331E+02 -0.64514649902E+02 -0.51228679579E+02  0.99685218927E+02  0.00000000000E+00 0. -1.
          1    1    1    2  502    0  0.17332999161E+02 -0.50231422254E+02  0.85382195387E+03  0.85547387894E+03  0.00000000000E+00 0. -1.
         22    1    3    3    0    0 -0.23545110456E+02 -0.99716494168E+01  0.58162892283E+03  0.58219069891E+03  0.00000000000E+00 0. -1.
         22    1    3    3    0    0  0.62342541627E+02  0.12471772157E+03  0.12890629864E+04  0.12965818468E+04  0.00000000000E+00 0. -1.
</event>
<event>
 7    1  0.6681656E-006  0.7008844E+02  0.7818608E-02  0.1367905E+00
          2   -1    0    0  502    0  0.00000000000E+00  0.00000000000E+00  0.17088469899E+03  0.17088469899E+03  0.00000000000E+00 0. -1.
          1   -1    0    0  501    0 -0.00000000000E+00 -0.00000000000E+00 -0.77146378539E+03  0.77146378539E+03  0.00000000000E+00 0. -1.
         25    2    1    2    0    0  0.10392582634E+02 -0.11821865154E+02 -0.24945753734E+02  0.12843336170E+03  0.12500030199E+03 0.  0.
          2    1    1    2  501    0  0.60389952878E+02  0.35573058520E+02 -0.68109976722E+03  0.68469648882E+03  0.00000000000E+00 0. -1.
          1    1    1    2  502    0 -0.70782535512E+02 -0.23751193367E+02  0.10546643456E+03  0.12921863386E+03  0.00000000000E+00 0. -1.
         22    1    3    3    0    0  0.27957154084E+02  0.10637495049E+02  0.44353678246E+02  0.53497733964E+02  0.00000000000E+00 0. -1.
         22    1    3    3    0    0 -0.17564571450E+02 -0.22459360203E+02 -0.69299431979E+02  0.74935627732E+02  0.00000000000E+00 0. -1.
</event>
<event>
 7    1  0.1228098E-005  0.7872882E+02  0.7818608E-02  0.1348147E+00
          2   -1    0    0  502    0  0.00000000000E+00  0.00000000000E+00  0.12276039865E+04  0.12276039865E+04  0.00000000000E+00 0. -1.
          1   -1    0    0  501    0 -0.00000000000E+00 -0.00000000000E+00 -0.12856312364E+04  0.12856312364E+04  0.00000000000E+00 0. -1.
         25    2    1    2    0    0  0.71322094907E+02 -0.26186112414E+01 -0.19638353352E+03  0.24348178834E+03  0.12499276246E+03 0.  0.
          2    1    1    2  501    0 -0.27587314244E+02 -0.63106371027E+02 -0.10632891956E+04  0.10655174271E+04  0.00000000000E+00 0. -1.
          1    1    1    2  502    0 -0.43734780663E+02  0.65724982268E+02  0.12016454791E+04  0.12042360075E+04  0.00000000000E+00 0. -1.
         22    1    3    3    0    0  0.31825527531E+01  0.47744973288E+02 -0.29211861973E+02  0.56062857546E+02  0.00000000000E+00 0. -1.
         22    1    3    3    0    0  0.68139542154E+02 -0.50363584530E+02 -0.16717167155E+03  0.18741893079E+03  0.00000000000E+00 0. -1.
</event>
<event>
 7    1  0.6681656E-006  0.7488946E+02  0.7818608E-02  0.1384165E+00
          2   -1    0    0  502    0  0.00000000000E+00  0.00000000000E+00  0.18353921539E+03  0.18353921539E+03  0.00000000000E+00 0. -1.
          1   -1    0    0  501    0 -0.00000000000E+00 -0.00000000000E+00 -0.54542215957E+03  0.54542215957E+03  0.00000000000E+00 0. -1.
         25    2    1    2    0    0 -0.24234316064E+02  0.11719617330E+03 -0.10517046587E+03  0.20250265745E+03  0.12499701705E+03 0.  0.
          2    1    1    2  501    0  0.32677317084E+02 -0.64222989111E+02 -0.38275369390E+03  0.38947758546E+03  0.00000000000E+00 0. -1.
          1    1    1    2  502    0 -0.84430010202E+01 -0.52973184184E+02  0.12604121559E+03  0.13698113205E+03  0.00000000000E+00 0. -1.
         22    1    3    3    0    0 -0.13600513643E+01  0.86408610310E+02 -0.13051336974E+03  0.15653126638E+03  0.00000000000E+00 0. -1.
         22    1    3    3    0    0 -0.22874264700E+02  0.30787562986E+02  0.25342903867E+02  0.45971391066E+02  0.00000000000E+00 0. -1.
</event>
<event>
 7    1  0.6681656E-006  0.5763558E+02  0.7818608E-02  0.1477902E+00
          2   -1    0    0  502    0  0.00000000000E+00  0.00000000000E+00  0.41291323122E+03  0.41291323122E+03  0.00000000000E+00 0. -1.
          1   -1    0    0  501    0 -0.00000000000E+00 -0.00000000000E+00 -0.48034192533E+03  0.48034192533E+03  0.00000000000E+00 0. -1.
         25    2    1    2    0    0 -0.11229603143E+02  0.65973017751E+02  0.21832101888E+03  0.26032402824E+03  0.12500395726E+03 0.  0.
          2    1    1    2  501    0 -0.25909630580E+02 -0.22411219467E+02 -0.45395806034E+03  0.45524882456E+03  0.00000000000E+00 0. -1.
          1    1    1    2  502    0  0.37139233723E+02 -0.43561798283E+02  0.16820834735E+03  0.17768230376E+03  0.00000000000E+00 0. -1.
         22    1    3    3    0    0 -0.43090129789E+02  0.85940561186E+02  0.19104931058E+03  0.21387467923E+03  0.00000000000E+00 0. -1.
         22    1    3    3    0    0  0.31860526647E+02 -0.19967543436E+02  0.27271708300E+02  0.46449349002E+02  0.00000000000E+00 0. -1.
</event>
<event>
 7    1  0.6681656E-006  0.1354082E+03  0.7818608E-02  0.1304002E+00
          2   -1    0    0  502    0  0.00000000000E+00  0.00000000000E+00  0.23325635123E+03  0.23325635123E+03  0.00000000000E+00 0. -1.
          1   -1    0    0  501    0 -0.00000000000E+00 -0.00000000000E+00 -0.14008890534E+04  0.14008890534E+04  0.00000000000E+00 0. -1.
         25    2    1    2    0    0 -0.17266479480E+03 -0.84718601524E+02 -0.29294354015E+02  0.23124535849E+03  0.12500353531E+03 0.  0.
          2    1    1    2  501    0  0.11755799183E+03  0.63110668627E+02 -0.12602948131E+04  0.12673380977E+04  0.00000000000E+00 0. -1.
          1    1    1    2  502    0  0.55106802968E+02  0.21607932898E+02  0.12195646499E+03  0.13556194839E+03  0.00000000000E+00 0. -1.
         22    1    3    3    0    0 -0.16583591918E+03 -0.24822633440E+02 -0.32793193734E+02  0.17085990980E+03  0.00000000000E+00 0.  1.
         22    1    3    3    0    0 -0.68288756240E+01 -0.59895968085E+02  0.34988397188E+01  0.60385448698E+02  0.00000000000E+00 0.  1.
</event>
<event>
 7    1  0.6681656E-006  0.7003066E+02  0.7818608E-02  0.1445276E+00
          2   -1    0    0  502    0  0.00000000000E+00  0.00000000000E+00  0.10872182737E+03  0.10872182737E+03  0.00000000000E+00 0. -1.
          1   -1    0    0  501    0 -0.00000000000E+00 -0.00000000000E+00 -0.18993269137E+03  0.18993269137E+03  0.00000000000E+00 0. -1.
         25    2    1    2    0    0  0.18241756184E+02 -0.34925710203E+02  0.21975202074E+02  0.13289430066E+03  0.12500167495E+03 0.  0.
          2    1    1    2  501    0 -0.40817875005E+02  0.62601694895E+02 -0.10626376875E+03  0.12991173801E+03  0.00000000000E+00 0. -1.
          1    1    1    2  502    0  0.22576118822E+02 -0.27675984692E+02  0.30777026751E+01  0.35848480072E+02  0.00000000000E+00 0. -1.
         22    1    3    3    0    0  0.90988544539E+01  0.40838811186E+02 -0.19362731754E+02  0.46103286569E+02  0.00000000000E+00 0. -1.
         22    1    3    3    0    0  0.91429017298E+01 -0.75764521389E+02  0.41337933829E+02  0.86791014089E+02  0.00000000000E+00 0. -1.
</event>
<event>
 7    1  0.6681656E-006  0.7655562E+02  0.7818608E-02  0.1413424E+00
          2   -1    0    0  502    0  0.00000000000E+00  0.00000000000E+00  0.64907720254E+03  0.64907720254E+03  0.00000000000E+00 0. -1.
          1   -1    0    0  501    0 -0.00000000000E+00 -0.00000000000E+00 -0.17815015780E+04  0.17815015780E+04  0.00000000000E+00 0. -1.
         25    2    1    2    0    0 -0.56412748312E+02 -0.75082902633E+02  0.21835581368E+03  0.26855881793E+03  0.12499894751E+03 0.  0.
          2    1    1    2  501    0  0.14807688404E+02  0.75081738103E+02 -0.17544968966E+04  0.17561651105E+04  0.00000000000E+00 0. -1.
          1    1    1    2  502    0  0.41605059908E+02  0.11645301363E-02  0.40371670754E+03  0.40585485208E+03  0.00000000000E+00 0. -1.
         22    1    3    3    0    0 -0.95297878517E+01  0.25894780863E+02  0.10924326301E+03  0.11267407442E+03  0.00000000000E+00 0.  1.
         22    1    3    3    0    0 -0.46882960461E+02 -0.10097768350E+03  0.10911255067E+03  0.15588474351E+03  0.00000000000E+00 0.  1.
</event>
<event>
 7    1  0.6681656E-006  0.5211002E+02  0.7818608E-02  0.1464774E+00
          2   -1    0    0  502    0  0.00000000000E+00  0.00000000000E+00  0.14963002741E+03  0.14963002741E+03  0.00000000000E+00 0. -1.
          1   -1    0    0  501    0 -0.00000000000E+00 -0.00000000000E+00 -0.16791938857E+03  0.16791938857E+03  0.00000000000E+00 0. -1.
         25    2    1    2    0    0 -0.12690629492E+02 -0.36218066092E+02  0.19119173991E+02  0.13215541308E+03  0.12500683982E+03 0.  0.
          2    1    1    2  501    0 -0.27454894185E+02  0.47191520194E+02 -0.97825664634E+02  0.11202977932E+03  0.00000000000E+00 0. -1.
          1    1    1    2  502    0  0.40145523677E+02 -0.10973454102E+02  0.60417129483E+02  0.73364223578E+02  0.00000000000E+00 0. -1.
         22    1    3    3    0    0  0.46969703347E+02 -0.34921945446E+02  0.37741534602E+02  0.69642793887E+02  0.00000000000E+00 0.  1.
         22    1    3    3    0    0 -0.59660332839E+02 -0.12961206457E+01 -0.18622360610E+02  0.62512619189E+02  0.00000000000E+00 0.  1.
</event>
<event>
 7    1  0.6681656E-006  0.9721813E+02  0.7818608E-02  0.1304473E+00
          2   -1    0    0  502    0  0.00000000000E+00  0.00000000000E+00  0.19269997109E+04  0.19269997109E+04  0.00000000000E+00 0. -1.
          1   -1    0    0  501    0 -0.00000000000E+00 -0.00000000000E+00 -0.19835206585E+04  0.19835206585E+04  0.00000000000E+00 0. -1.
         25    2    1    2    0    0  0.48511601652E+02  0.10640350679E+03  0.29135050058E+03  0.33791475256E+03  0.12500473614E+03 0.  0.
          2    1    1    2  501    0 -0.80885659018E+02 -0.14001789146E+02 -0.19578913353E+04  0.19596114463E+04  0.00000000000E+00 0. -1.
          1    1    1    2  502    0  0.32374057366E+02 -0.92401717646E+02  0.16100198872E+04  0.16129941705E+04  0.00000000000E+00 0. -1.
         22    1    3    3    0    0  0.30134498442E+02  0.60516506470E+02  0.33649108045E+02  0.75515548227E+02  0.00000000000E+00 0. -1.
         22    1    3    3    0    0  0.18377103210E+02  0.45887000322E+02  0.25770139253E+03  0.26239920433E+03  0.00000000000E+00 0. -1.
</event>
<event>
 7    1  0.6681656E-006  0.1254809E+03  0.7818608E-02  0.1256722E+00
          2   -1    0    0  502    0  0.00000000000E+00  0.00000000000E+00  0.66113204943E+03  0.66113204943E+03  0.00000000000E+00 0. -1.
          1   -1    0    0  501    0 -0.00000000000E+00 -0.00000000000E+00 -0.13712889549E+04  0.13712889549E+04  0.00000000000E+00 0. -1.
         25    2    1    2    0    0  0.15536317223E+03 -0.15146865848E+03 -0.28512005923E+03  0.37947178257E+03  0.12499966323E+03 0.  0.
          2    1    1    2  501    0 -0.95097106253E+02  0.71476894158E+02 -0.10314668842E+04  0.10383045504E+04  0.00000000000E+00 0. -1.
          1    1    1    2  502    0 -0.60266065975E+02  0.79991764317E+02  0.60643003801E+03  0.61464467139E+03  0.00000000000E+00 0. -1.
         22    1    3    3    0    0  0.96933051711E+02 -0.99962567339E+02 -0.81216387148E+02  0.16119749664E+03  0.00000000000E+00 0.  1.
         22    1    3    3    0    0  0.58430120516E+02 -0.51506091136E+02 -0.20390367208E+03  0.21827428593E+03  0.00000000000E+00 0.  1.
</event>
<event>
 7    1  0.6681656E-006  0.1637175E+03  0.7818608E-02  0.1186857E+00
          2   -1    0    0  502    0  0.00000000000E+00  0.00000000000E+00  0.14395350087E+04  0.14395350087E+04  0.00000000000E+00 0. -1.
          1   -1    0    0  501    0 -0.00000000000E+00 -0.00000000000E+00 -0.81932003736E+02  0.81932003736E+02  0.00000000000E+00 0. -1.
         25    2    1    2    0    0  0.10777262488E+03 -0.66691248766E+02  0.28338812015E+03  0.33465831508E+03  0.12499879950E+03 0.  0.
          2    1    1    2  501    0  0.70503224721E+02  0.14317201563E+03  0.89105014302E+02  0.18278028977E+03  0.00000000000E+00 0. -1.
          1    1    1    2  502    0 -0.17827584960E+03 -0.76480766865E+02  0.98510987052E+03  0.10040284076E+04  0.00000000000E+00 0. -1.
         22    1    3    3    0    0  0.10590981525E+03 -0.80874722005E+02  0.28980920433E+03  0.31897803144E+03  0.00000000000E+00 0.  1.
         22    1    3    3    0    0  0.18628096286E+01  0.14183473239E+02 -0.64210841859E+01  0.15680283638E+02  0.00000000000E+00 0.  1.
</event>
<event>
 7    1  0.6681656E-006  0.1038450E+03  0.7818608E-02  0.1395162E+00
          2   -1    0    0  502    0  0.00000000000E+00  0.00000000000E+00  0.18478391005E+03  0.18478391005E+03  0.00000000000E+00 0. -1.
          1   -1    0    0  501    0 -0.00000000000E+00 -0.00000000000E+00 -0.79921169114E+03  0.79921169114E+03  0.00000000000E+00 0. -1.
         25    2    1    2    0    0  0.78214527229E+02 -0.40254384246E+02 -0.27251592480E+03  0.31245414904E+03  0.12499895303E+03 0.  0.
          2    1    1    2  501    0 -0.79068854429E+02  0.75655673079E+02 -0.49882209666E+03  0.51068497992E+03  0.00000000000E+00 0. -1.
          1    1    1    2  502    0  0.85432720049E+00 -0.35401288833E+02  0.15691024036E+03  0.16085647223E+03  0.00000000000E+00 0. -1.
         22    1    3    3    0    0 -0.59785089355E+01  0.35986787027E+02 -0.94409618613E+02  0.10121248686E+03  0.00000000000E+00 0.  1.
         22    1    3    3    0    0  0.84193036164E+02 -0.76241171273E+02 -0.17810630619E+03  0.21124166218E+03  0.00000000000E+00 0.  1.
</event>
<event>
 7    1  0.6681656E-006  0.7025919E+02  0.7818608E-02  0.1458285E+00
          2   -1    0    0  502    0  0.00000000000E+00  0.00000000000E+00  0.10444568551E+04  0.10444568551E+04  0.00000000000E+00 0. -1.
          1   -1    0    0  501    0 -0.00000000000E+00 -0.00000000000E+00 -0.75768609610E+03  0.75768609610E+03  0.00000000000E+00 0. -1.
         25    2    1    2    0    0 -0.24755509261E+02  0.94752699157E+02  0.68266170483E+03  0.70088745765E+03  0.12500126326E+03 0.  0.
          2    1    1    2  501    0  0.30963939280E+02 -0.62999924851E+02 -0.74618036500E+03  0.74947507843E+03  0.00000000000E+00 0. -1.
          1    1    1    2  502    0 -0.62084300194E+01 -0.31752774306E+02  0.35028941917E+03  0.35178041512E+03  0.00000000000E+00 0. -1.
         22    1    3    3    0    0 -0.48308844282E+02  0.11296578083E+02  0.98128858856E+02  0.10995740108E+03  0.00000000000E+00 0.  1.
         22    1    3    3    0    0  0.23553335021E+02  0.83456121074E+02  0.58453284597E+03  0.59093005657E+03  0.00000000000E+00 0.  1.
</event>
<event>
 7    1  0.6681656E-006  0.3451834E+02  0.7818608E-02  0.1634620E+00
          2   -1    0    0  502    0  0.00000000000E+00  0.00000000000E+00  0.24066164000E+03  0.24066164000E+03  0.00000000000E+00 0. -1.
          1   -1    0    0  501    0 -0.00000000000E+00 -0.00000000000E+00 -0.84955342941E+03  0.84955342941E+03  0.00000000000E+00 0. -1.
         25    2    1    2    0    0 -0.30886915177E+02 -0.64825890043E+01 -0.28180464547E+02  0.13195320489E+03  0.12498593605E+03 0.  0.
          2    1    1    2  501    0  0.31384685910E+02 -0.14535184443E+02 -0.76851108623E+03  0.76928899625E+03  0.00000000000E+00 0. -1.
          1    1    1    2  502    0 -0.49777073341E+00  0.21017773447E+02  0.18779976136E+03  0.18897286827E+03  0.00000000000E+00 0. -1.
         22    1    3    3    0    0  0.52729065866E+00 -0.29554326118E+02  0.42187223287E+02  0.51512115434E+02  0.00000000000E+00 0. -1.
         22    1    3    3    0    0 -0.31414205835E+02  0.23071737114E+02 -0.70367687835E+02  0.80441089456E+02  0.00000000000E+00 0. -1.
</event>
<event>
 7    1  0.6681656E-006  0.8682867E+02  0.7818608E-02  0.1335007E+00
          2   -1    0    0  502    0  0.00000000000E+00  0.00000000000E+00  0.38333442801E+03  0.38333442801E+03  0.00000000000E+00 0. -1.
          1   -1    0    0  501    0 -0.00000000000E+00 -0.00000000000E+00 -0.79827100107E+03  0.79827100107E+03  0.00000000000E+00 0. -1.
         25    2    1    2    0    0  0.40984653063E+01  0.59917502266E+01 -0.26559168627E+03  0.29362593448E+03  0.12499818837E+03 0.  0.
          2    1    1    2  501    0  0.57565682691E+02 -0.67120713104E+02 -0.50969888089E+03  0.51731223370E+03  0.00000000000E+00 0. -1.
          1    1    1    2  502    0 -0.61664147997E+02  0.61128962877E+02  0.36035399409E+03  0.37066726091E+03  0.00000000000E+00 0. -1.
         22    1    3    3    0    0 -0.18905212749E+02  0.14075304325E+02  0.31511952938E+01  0.23779219767E+02  0.00000000000E+00 0.  1.
         22    1    3    3    0    0  0.23003678056E+02 -0.80835540986E+01 -0.26874288156E+03  0.26984671471E+03  0.00000000000E+00 0.  1.
</event>
<event>
 7    1  0.6681656E-006  0.9230056E+02  0.7818608E-02  0.1336449E+00
          2   -1    0    0  502    0  0.00000000000E+00  0.00000000000E+00  0.21822144611E+04  0.21822144611E+04  0.00000000000E+00 0. -1.
          1   -1    0    0  501    0 -0.00000000000E+00 -0.00000000000E+00 -0.13189394200E+03  0.13189394200E+03  0.00000000000E+00 0. -1.
         25    2    1    2    0    0  0.41879183177E+02 -0.13823639098E+03  0.33577106537E+03  0.38629996553E+03  0.12498915655E+03 0.  0.
          2    1    1    2  501    0  0.15330958821E+01  0.89874621906E+02 -0.86995295781E+02  0.12509188436E+03  0.00000000000E+00 0. -1.
          1    1    1    2  502    0 -0.43412279059E+02  0.48361769072E+02  0.18015447496E+04  0.18027165533E+04  0.00000000000E+00 0. -1.
         22    1    3    3    0    0 -0.41244875231E+00  0.22576597064E+02  0.23965377890E+02  0.32927377460E+02  0.00000000000E+00 0. -1.
         22    1    3    3    0    0  0.42291631929E+02 -0.16081298804E+03  0.31180568748E+03  0.35337258807E+03  0.00000000000E+00 0. -1.
</event>
<event>
 7    1  0.6681656E-006  0.8519079E+02  0.7818608E-02  0.1435942E+00
          2   -1    0    0  502    0  0.00000000000E+00  0.00000000000E+00  0.57106833339E+03  0.57106833339E+03  0.00000000000E+00 0. -1.
          1   -1    0    0  501    0 -0.00000000000E+00 -0.00000000000E+00 -0.57270854640E+03  0.57270854640E+03  0.00000000000E+00 0. -1.
         25    2    1    2    0    0 -0.55543800579E+02  0.25777063961E+02 -0.19482204842E+03  0.23943514585E+03  0.12499595078E+03 0.  0.
          2    1    1    2  501    0  0.78379492795E+02 -0.47444446496E+02 -0.34921415337E+03  0.36103302523E+03  0.00000000000E+00 0. -1.
          1    1    1    2  502    0 -0.22835692216E+02  0.21667382535E+02  0.54239598878E+03  0.54330870870E+03  0.00000000000E+00 0. -1.
         22    1    3    3    0    0 -0.27219495338E+02  0.62626055723E+02 -0.43090023736E+02  0.80744497815E+02  0.00000000000E+00 0.  1.
         22    1    3    3    0    0 -0.28324305241E+02 -0.36848991762E+02 -0.15173202468E+03  0.15869064804E+03  0.00000000000E+00 0.  1.
</event>
<event>
 7    1  0.6681656E-006  0.4206046E+02  0.7818608E-02  0.1506299E+00
          2   -1    0    0  502    0  0.00000000000E+00  0.00000000000E+00  0.13425424519E+04  0.13425424519E+04  0.00000000000E+00 0. -1.
          1   -1    0    0  501    0 -0.00000000000E+00 -0.00000000000E+00 -0.31160062420E+03  0.31160062420E+03  0.00000000000E+00 0. -1.
         25    2    1    2    0    0 -0.31535727675E+02 -0.42324969929E+02  0.19727741121E+03  0.23943786595E+03  0.12500483781E+03 0.  0.
          2    1    1    2  501    0  0.41779525058E+02  0.51726569692E+01 -0.28866282381E+03  0.29171649069E+03  0.00000000000E+00 0. -1.
          1    1    1    2  502    0 -0.10243797383E+02  0.37152312960E+02  0.11223272403E+04  0.11229887195E+04  0.00000000000E+00 0. -1.
         22    1    3    3    0    0 -0.65216493000E+02 -0.96763790619E+01  0.44302157888E+02  0.79432389267E+02  0.00000000000E+00 0.  1.
         22    1    3    3    0    0  0.33680765326E+02 -0.32648590867E+02  0.15297525332E+03  0.16000547668E+03  0.00000000000E+00 0.  1.
</event>
<event>
 7    1  0.6681656E-006  0.6553861E+02  0.7818608E-02  0.1377260E+00
          2   -1    0    0  502    0  0.00000000000E+00  0.00000000000E+00  0.22246878638E+03  0.22246878638E+03  0.00000000000E+00 0. -1.
          1   -1    0    0  501    0 -0.00000000000E+00 -0.00000000000E+00 -0.99150017426E+03  0.99150017426E+03  0.00000000000E+00 0. -1.
         25    2    1    2    0    0 -0.44158342423E+01  0.59992095301E+02 -0.13262700543E+03  0.19192046611E+03  0.12499996660E+03 0.  0.
          2    1    1    2  501    0 -0.56230487658E+02 -0.33666623062E+02 -0.82221675583E+03  0.82482464974E+03  0.00000000000E+00 0. -1.
          1    1    1    2  502    0  0.60646321900E+02 -0.26325472239E+02  0.18581237339E+03  0.19722384479E+03  0.00000000000E+00 0. -1.
         22    1    3    3    0    0 -0.27533844107E+02 -0.15506010810E+02 -0.10274883939E+03  0.10749824621E+03  0.00000000000E+00 0.  1.
         22    1    3    3    0    0  0.23118009865E+02  0.75498106111E+02 -0.29878166047E+02  0.84422219900E+02  0.00000000000E+00 0.  1.
</event>
<event>
 7    1  0.6681656E-006  0.1192820E+03  0.7818608E-02  0.1256395E+00
          2   -1    0    0  502    0  0.00000000000E+00  0.00000000000E+00  0.19149180855E+04  0.19149180855E+04  0.00000000000E+00 0. -1.
          1   -1    0    0  501    0 -0.00000000000E+00 -0.00000000000E+00 -0.14158211871E+04  0.14158211871E+04  0.00000000000E+00 0. -1.
         25    2    1    2    0    0  0.10836414516E+02 -0.30793066986E+02  0.55289673182E+03  0.56778893504E+03  0.12499535130E+03 0.  0.
          2    1    1    2  501    0  0.73457298476E+02  0.94565814112E+02 -0.14037602353E+04  0.14088582137E+04  0.00000000000E+00 0. -1.
          1    1    1    2  502    0 -0.84293712992E+02 -0.63772747127E+02  0.13499604019E+04  0.13540921239E+04  0.00000000000E+00 0. -1.
         22    1    3    3    0    0  0.19847868084E+02  0.43359961834E+02  0.13279116911E+03  0.14109400679E+03  0.00000000000E+00 0. -1.
         22    1    3    3    0    0 -0.90114535679E+01 -0.74153028820E+02  0.42010556271E+03  0.42669492825E+03  0.00000000000E+00 0. -1.
</event>
<event>
 7    1  0.6681656E-006  0.1225679E+03  0.7818608E-02  0.1399504E+00
          2   -1    0    0  502    0  0.00000000000E+00  0.00000000000E+00  0.24544646436E+03  0.24544646436E+03  0.00000000000E+00 0. -1.
          1   -1    0    0  501    0 -0.00000000000E+00 -0.00000000000E+00 -0.12044578915E+04  0.12044578915E+04  0.00000000000E+00 0. -1.
         25    2    1    2    0    0 -0.58983554877E+02 -0.73912249740E+02  0.32438864575E+02  0.16005736736E+03  0.12499600195E+03 0.  0.
          2    1    1    2  501    0  0.76606346615E+02  0.96923790206E+02 -0.11358592131E+04  0.11425580535E+04  0.00000000000E+00 0. -1.
          1    1    1    2  502    0 -0.17622791737E+02 -0.23011540466E+02  0.14440892145E+03  0.14728893501E+03  0.00000000000E+00 0. -1.
         22    1    3    3    0    0  0.25827442507E+02 -0.23295520461E+02 -0.27663042277E+02  0.44440769211E+02  0.00000000000E+00 0. -1.
         22    1    3    3    0    0 -0.84810997385E+02 -0.50616729280E+02  0.60101906852E+02  0.11561659815E+03  0.00000000000E+00 0. -1.
</event>
<event>
 7    1  0.6681656E-006  0.5953532E+02  0.7818608E-02  0.1502593E+00
          2   -1    0    0  502    0  0.00000000000E+00  0.00000000000E+00  0.89248441520E+03  0.89248441520E+03  0.00000000000E+00 0. -1.
          1   -1    0    0  501    0 -0.00000000000E+00 -0.00000000000E+00 -0.60682307370E+03  0.60682307370E+03  0.00000000000E+00 0. -1.
         25    2    1    2    0    0 -0.59323302669E+02 -0.21846900477E+02 -0.60607565306E+02  0.15262805204E+03  0.12500201597E+03 0.  0.
          2    1    1    2  501    0  0.18166396138E+02 -0.21207845642E+02 -0.49876646906E+03  0.49954757664E+03  0.00000000000E+00 0. -1.
          1    1    1    2  502    0  0.41156906531E+02  0.43054746119E+02  0.84503537587E+03  0.84713186022E+03  0.00000000000E+00 0. -1.
         22    1    3    3    0    0 -0.86305942153E+02 -0.50793298779E+02 -0.48325793640E+02  0.11119378212E+03  0.00000000000E+00 0. -1.
         22    1    3    3    0    0  0.26982639483E+02  0.28946398302E+02 -0.12281771666E+02  0.41434269915E+02  0.00000000000E+00 0. -1.
</event>
<event>
 7    1  0.6681656E-006  0.6751441E+02  0.7818608E-02  0.1492952E+00
          2   -1    0    0  502    0  0.00000000000E+00  0.00000000000E+00  0.33523631000E+03  0.33523631000E+03  0.00000000000E+00 0. -1.
          1   -1    0    0  501    0 -0.00000000000E+00 -0.00000000000E+00 -0.85243698521E+03  0.85243698521E+03  0.00000000000E+00 0. -1.
         25    2    1    2    0    0 -0.61607324116E+02  0.26432589412E+02 -0.44952164205E+02  0.14879517382E+03  0.12500065007E+03 0.  0.
          2    1    1    2  501    0 -0.61272827478E+01 -0.25592999165E+02 -0.75128053488E+03  0.75174130343E+03  0.00000000000E+00 0. -1.
          1    1    1    2  502    0  0.67734606864E+02 -0.83959024671E+00  0.27903202387E+03  0.28713681795E+03  0.00000000000E+00 0. -1.
         22    1    3    3    0    0  0.71104264925E+01  0.35190698660E+02 -0.67071537574E+02  0.76075847610E+02  0.00000000000E+00 0.  1.
         22    1    3    3    0    0 -0.68717750608E+02 -0.87581092484E+01  0.22119373369E+02  0.72719326210E+02  0.00000000000E+00 0.  1.
</event>
<event>
 7    1  0.6681656E-006  0.1164632E+03  0.7818608E-02  0.1305653E+00
          2   -1    0    0  502    0  0.00000000000E+00  0.00000000000E+00  0.41010784957E+02  0.41010784957E+02  0.00000000000E+00 0. -1.
          1   -1    0    0  501    0 -0.00000000000E+00 -0.00000000000E+00 -0.29498051061E+04  0.29498051061E+04  0.00000000000E+00 0. -1.
         25    2    1    2    0    0  0.13807522982E+03 -0.97603556350E+02 -0.47087139635E+03  0.51568949542E+03  0.12499824192E+03 0.  0.
          2    1    1    2  501    0 -0.54307140928E+02  0.40571572118E+02 -0.23142235775E+04  0.23152162069E+04  0.00000000000E+00 0. -1.
          1    1    1    2  502    0 -0.83768088897E+02  0.57031984232E+02 -0.12369934730E+03  0.15991018875E+03  0.00000000000E+00 0. -1.
         22    1    3    3    0    0  0.93548619852E+02  0.63666543361E+01 -0.16810340300E+03  0.19248540896E+03  0.00000000000E+00 0.  1.
         22    1    3    3    0    0  0.44526609973E+02 -0.10397021069E+03 -0.30276799335E+03  0.32320408646E+03  0.00000000000E+00 0.  1.
</event>
<event>
 7    1  0.6681656E-006  0.7023569E+02  0.7818608E-02  0.1390079E+00
          2   -1    0    0  502    0  0.00000000000E+00  0.00000000000E+00  0.46005016775E+04  0.46005016775E+04  0.00000000000E+00 0. -1.
          1   -1    0    0  501    0 -0.00000000000E+00 -0.00000000000E+00 -0.37314706607E+03  0.37314706607E+03  0.00000000000E+00 0. -1.
         25    2    1    2    0    0 -0.80808667681E+01  0.44315466133E+02  0.66837389034E+03  0.68145289545E+03  0.12500092192E+03 0.  0.
          2    1    1    2  501    0  0.61645064139E+02 -0.34093237566E+02 -0.36303223277E+03  0.36980381935E+03  0.00000000000E+00 0. -1.
          1    1    1    2  502    0 -0.53564197371E+02 -0.10222228567E+02  0.39220129539E+04  0.39223920288E+04  0.00000000000E+00 0. -1.
         22    1    3    3    0    0 -0.38447828614E+02 -0.29269070796E+02  0.16893517417E+03  0.17571000855E+03  0.00000000000E+00 0. -1.
         22    1    3    3    0    0  0.30366961846E+02  0.73584536929E+02  0.49943871617E+03  0.50574288690E+03  0.00000000000E+00 0. -1.
</event>
<event>
 7    1  0.6681656E-006  0.6411711E+02  0.7818608E-02  0.1509097E+00
          2   -1    0    0  502    0  0.00000000000E+00  0.00000000000E+00  0.12255585259E+04  0.12255585259E+04  0.00000000000E+00 0. -1.
          1   -1    0    0  501    0 -0.00000000000E+00 -0.00000000000E+00 -0.60793599991E+03  0.60793599991E+03  0.00000000000E+00 0. -1.
         25    2    1    2    0    0 -0.47433595149E+02 -0.16519699144E+02  0.35002788061E+03  0.37505892768E+03  0.12500734227E+03 0.  0.
          2    1    1    2  501    0  0.49182364605E+02  0.41262635438E+02 -0.59351086196E+03  0.59697290837E+03  0.00000000000E+00 0. -1.
          1    1    1    2  502    0 -0.17487694553E+01 -0.24742936294E+02  0.86110550734E+03  0.86146268977E+03  0.00000000000E+00 0. -1.
         22    1    3    3    0    0 -0.29227365037E+02  0.89832422760E+00  0.56766076893E+01  0.29787073174E+02  0.00000000000E+00 0. -1.
         22    1    3    3    0    0 -0.18206230112E+02 -0.17418023372E+02  0.34435127292E+03  0.34527185450E+03  0.00000000000E+00 0. -1.
</event>
<event>
 7    1  0.6681656E-006  0.1165155E+03  0.7818608E-02  0.1392823E+00
          2   -1    0    0  502    0  0.00000000000E+00  0.00000000000E+00  0.44202631312E+03  0.44202631312E+03  0.00000000000E+00 0. -1.
          1   -1    0    0  501    0 -0.00000000000E+00 -0.00000000000E+00 -0.12988985955E+04  0.12988985955E+04  0.00000000000E+00 0. -1.
         25    2    1    2    0    0 -0.82806849631E+02 -0.38833135307E+02 -0.72787334644E+03  0.74417035969E+03  0.12499971617E+03 0.  0.
          2    1    1    2  501    0 -0.30458194068E+02  0.10310306419E+02 -0.55454172485E+03  0.55547324743E+03  0.00000000000E+00 0. -1.
          1    1    1    2  502    0  0.11326504370E+03  0.28522828888E+02  0.42554278889E+03  0.44128130152E+03  0.00000000000E+00 0. -1.
         22    1    3    3    0    0 -0.53279823387E+02 -0.65508313954E+02 -0.23529989754E+03  0.24999224100E+03  0.00000000000E+00 0.  1.
         22    1    3    3    0    0 -0.29527026245E+02  0.26675178648E+02 -0.49257344890E+03  0.49417811869E+03  0.00000000000E+00 0.  1.
</event>
<event>
 7    1  0.6681656E-006  0.1106157E+03  0.7818608E-02  0.1400843E+00
          2   -1    0    0  502    0  0.00000000000E+00  0.00000000000E+00  0.31054389687E+03  0.31054389687E+03  0.00000000000E+00 0. -1.
          1   -1    0    0  501    0 -0.00000000000E+00 -0.00000000000E+00 -0.23912477877E+04  0.23912477877E+04  0.00000000000E+00 0. -1.
         25    2    1    2    0    0 -0.10578125532E+03  0.89766412328E+02 -0.33288707402E+03  0.38168983171E+03  0.12500256327E+03 0.  0.
          2    1    1    2  501    0  0.89107738286E+02 -0.62714440642E+02 -0.20316125260E+04  0.20345325620E+04  0.00000000000E+00 0. -1.
          1    1    1    2  502    0  0.16673517032E+02 -0.27051971686E+02  0.28379570917E+03  0.28556929086E+03  0.00000000000E+00 0. -1.
         22    1    3    3    0    0  0.10526735203E+02  0.62335127826E+02 -0.79774691299E+02  0.10178645139E+03  0.00000000000E+00 0.  1.
         22    1    3    3    0    0 -0.11630799052E+03  0.27431284502E+02 -0.25311238272E+03  0.27990338032E+03  0.00000000000E+00 0.  1.
</event>
<event>
 7    1  0.6681656E-006  0.1164247E+03  0.7818608E-02  0.1389695E+00
          2   -1    0    0  502    0  0.00000000000E+00  0.00000000000E+00  0.26517016338E+04  0.26517016338E+04  0.00000000000E+00 0. -1.
          1   -1    0    0  501    0 -0.00000000000E+00 -0.00000000000E+00 -0.10451845445E+04  0.10451845445E+04  0.00000000000E+00 0. -1.
         25    2    1    2    0    0 -0.87903516471E+02 -0.45034862823E+02  0.68022292484E+03  0.69863002827E+03  0.12500208732E+03 0.  0.
          2    1    1    2  501    0 -0.28927040148E+02  0.15878629904E+02 -0.10338702269E+04  0.10343967085E+04  0.00000000000E+00 0. -1.
          1    1    1    2  502    0  0.11683055662E+03  0.29156232919E+02  0.19601643913E+04  0.19638594415E+04  0.00000000000E+00 0. -1.
         22    1    3    3    0    0  0.13818782069E+02  0.13568749230E+02  0.19227173634E+02  0.27290179543E+02  0.00000000000E+00 0. -1.
         22    1    3    3    0    0 -0.10172229854E+03 -0.58603612053E+02  0.66099575121E+03  0.67133984872E+03  0.00000000000E+00 0. -1.
</event>
<event>
 7    1  0.6681656E-006  0.6885155E+02  0.7818608E-02  0.1527029E+00
          2   -1    0    0  502    0  0.00000000000E+00  0.00000000000E+00  0.20877304653E+03  0.20877304653E+03  0.00000000000E+00 0. -1.
          1   -1    0    0  501    0 -0.00000000000E+00 -0.00000000000E+00 -0.13449866128E+04  0.13449866128E+04  0.00000000000E+00 0. -1.
         25    2    1    2    0    0  0.10643420751E+02  0.47576214821E+02 -0.38903883444E+03  0.41152505660E+03  0.12499951554E+03 0.  0.
          2    1    1    2  501    0  0.23619752205E+01  0.20345896523E+02 -0.93853655451E+03  0.93876003248E+03  0.00000000000E+00 0. -1.
          1    1    1    2  502    0 -0.13005395971E+02 -0.67922111344E+02  0.19136182271E+03  0.20347457021E+03  0.00000000000E+00 0. -1.
         22    1    3    3    0    0  0.61120234377E+02  0.18332315952E+02 -0.28681056384E+03  0.29382317198E+03  0.00000000000E+00 0.  1.
         22    1    3    3    0    0 -0.50476813626E+02  0.29243898869E+02 -0.10222827060E+03  0.11770188463E+03  0.00000000000E+00 0.  1.
</event>
<event>
 7    1  0.6681656E-006  0.1031114E+03  0.7818608E-02  0.1456283E+00
          2   -1    0    0  502    0  0.00000000000E+00  0.00000000000E+00  0.13379529815E+04  0.13379529815E+04  0.00000000000E+00 0. -1.
          1   -1    0    0  501    0 -0.00000000000E+00 -0.00000000000E+00 -0.22396045853E+03  0.22396045853E+03  0.00000000000E+00 0. -1.
         25    2    1    2    0    0 -0.21047288419E+02 -0.79007746999E+02  0.73270149592E+02  0.16636828683E+03  0.12499871841E+03 0.  0.
          2    1    1    2  501    0 -0.55865933151E+01 -0.21661211538E+02 -0.17447050085E+03  0.17589876002E+03  0.00000000000E+00 0. -1.
          1    1    1    2  502    0  0.26633881734E+02  0.10066895854E+03  0.12151928742E+04  0.12196463932E+04  0.00000000000E+00 0. -1.
         22    1    3    3    0    0 -0.43876155440E+02  0.35044417622E+01  0.67472550060E+02  0.80560183341E+02  0.00000000000E+00 0. -1.
         22    1    3    3    0    0  0.22828867021E+02 -0.82512188761E+02  0.57975995320E+01  0.85808103486E+02  0.00000000000E+00 0. -1.
</event>
<event>
 7    1  0.6681656E-006  0.8224345E+02  0.7818608E-02  0.1388405E+00
          2   -1    0    0  502    0  0.00000000000E+00  0.00000000000E+00  0.25639663272E+04  0.25639663272E+04  0.00000000000E+00 0. -1.
          1   -1    0    0  501    0 -0.00000000000E+00 -0.00000000000E+00 -0.12104611476E+02  0.12104611476E+02  0.00000000000E+00 0. -1.
         25    2    1    2    0    0 -0.25392313339E+02  0.41986242189E+02  0.95322269908E+03  0.96263493800E+03  0.12499958286E+03 0.  0.
          2    1    1    2  501    0  0.73021454746E-01  0.47200268439E+02  0.87189432849E+02  0.99145690141E+02  0.00000000000E+00 0. -1.
          1    1    1    2  502    0  0.25319291884E+02 -0.89186510629E+02  0.15114495838E+04  0.15142903106E+04  0.00000000000E+00 0. -1.
         22    1    3    3    0    0 -0.68605839247E+02 -0.57108412677E+01  0.43148994315E+03  0.43694730338E+03  0.00000000000E+00 0. -1.
         22    1    3    3    0    0  0.43213525908E+02  0.47697083457E+02  0.52173275593E+03  0.52568763463E+03  0.00000000000E+00 0. -1.
</event>
<event>
 7    1  0.6681656E-006  0.5432272E+02  0.7818608E-02  0.1465979E+00
          2   -1    0    0  502    0  0.00000000000E+00  0.00000000000E+00  0.17337001655E+04  0.17337001655E+04  0.00000000000E+00 0. -1.
          1   -1    0    0  501    0 -0.00000000000E+00 -0.00000000000E+00 -0.47299446161E+02  0.47299446161E+02  0.00000000000E+00 0. -1.
         25    2    1    2    0    0  0.13612968036E+02 -0.53253304970E+02  0.18949539998E+03  0.23356941619E+03  0.12499975272E+03 0.  0.
          2    1    1    2  501    0  0.25811244145E+02  0.49768863849E+02  0.64321716568E+01  0.56431666335E+02  0.00000000000E+00 0. -1.
          1    1    1    2  502    0 -0.39424212181E+02  0.34844411209E+01  0.14904731477E+04  0.14909985291E+04  0.00000000000E+00 0. -1.
         22    1    3    3    0    0 -0.53953021783E+02 -0.24299074950E+02  0.11253606595E+03  0.12714456238E+03  0.00000000000E+00 0.  1.
         22    1    3    3    0    0  0.67565989818E+02 -0.28954230020E+02  0.76959334026E+02  0.10642485382E+03  0.00000000000E+00 0.  1.
</event>
<event>
 7    1  0.6681656E-006  0.1272360E+03  0.7818608E-02  0.1333550E+00
          2   -1    0    0  502    0  0.00000000000E+00  0.00000000000E+00  0.58875589855E+03  0.58875589855E+03  0.00000000000E+00 0. -1.
          1   -1    0    0  501    0 -0.00000000000E+00 -0.00000000000E+00 -0.68173775239E+03  0.68173775239E+03  0.00000000000E+00 0. -1.
         25    2    1    2    0    0  0.19988789434E+02  0.88926444878E+02 -0.13141502078E+03  0.20298205897E+03  0.12499737707E+03 0.  0.
          2    1    1    2  501    0  0.41776680708E+02  0.24344921166E+02 -0.50584523286E+03  0.50815092822E+03  0.00000000000E+00 0. -1.
          1    1    1    2  502    0 -0.61765470142E+02 -0.11327136604E+03  0.54427839980E+03  0.55936066376E+03  0.00000000000E+00 0. -1.
         22    1    3    3    0    0 -0.45339120459E+02  0.74590783708E+02 -0.82646316620E+02  0.12020746445E+03  0.00000000000E+00 0. -1.
         22    1    3    3    0    0  0.65327909893E+02  0.14335661169E+02 -0.48768704165E+02  0.82774594520E+02  0.00000000000E+00 0. -1.
</event>
<event>
 7    1  0.6681656E-006  0.9874372E+02  0.7818608E-02  0.1328322E+00
          2   -1    0    0  502    0  0.00000000000E+00  0.00000000000E+00  0.22949971908E+04  0.22949971908E+04  0.00000000000E+00 0. -1.
          1   -1    0    0  501    0 -0.00000000000E+00 -0.00000000000E+00 -0.14262548135E+03  0.14262548135E+03  0.00000000000E+00 0. -1.
         25    2    1    2    0    0 -0.89092946055E+00 -0.10786248572E+03  0.26895986005E+03  0.31559434639E+03  0.12500110229E+03 0.  0.
          2    1    1    2  501    0 -0.58361688421E+02  0.80579385817E+02 -0.97934977157E+02  0.13960796483E+03  0.00000000000E+00 0. -1.
          1    1    1    2  502    0  0.59252617881E+02  0.27283099907E+02  0.19813468265E+04  0.19824203609E+04  0.00000000000E+00 0. -1.
         22    1    3    3    0    0  0.15345291265E+02 -0.38232482698E+02  0.42697713909E+01  0.41417769677E+02  0.00000000000E+00 0.  1.
         22    1    3    3    0    0 -0.16236220726E+02 -0.69630003025E+02  0.26469008866E+03  0.27417657671E+03  0.00000000000E+00 0.  1.
</event>
<event>
 7    1  0.6681656E-006  0.6655013E+02  0.7818608E-02  0.1508497E+00
          2   -1    0    0  502    0  0.00000000000E+00  0.00000000000E+00  0.27253371398E+03  0.27253371398E+03  0.00000000000E+00 0. -1.
          1   -1    0    0  501    0 -0.00000000000E+00 -0.00000000000E+00 -0.24820348329E+03  0.24820348329E+03  0.00000000000E+00 0. -1.
         25    2    1    2    0    0 -0.34600294310E+02  0.53897742579E+02  0.74692736449E+02  0.15907947692E+03  0.12500051230E+03 0.  0.
          2    1    1    2  501    0  0.13576259879E+02 -0.65463647561E+02 -0.19960213956E+03  0.21050134940E+03  0.00000000000E+00 0. -1.
          1    1    1    2  502    0  0.21024034431E+02  0.11565904981E+02  0.14923963380E+03  0.15115637095E+03  0.00000000000E+00 0. -1.
         22    1    3    3    0    0 -0.65435184337E+02  0.40989306963E+02 -0.37837881282E-01  0.77213263538E+02  0.00000000000E+00 0. -1.
         22    1    3    3    0    0  0.30834890027E+02  0.12908435616E+02  0.74730574330E+02  0.81866213378E+02  0.00000000000E+00 0. -1.
</event>
<event>
 7    1  0.6681656E-006  0.3609942E+03  0.7818608E-02  0.1155639E+00
          2   -1    0    0  502    0  0.00000000000E+00  0.00000000000E+00  0.63162247828E+03  0.63162247828E+03  0.00000000000E+00 0. -1.
          1   -1    0    0  501    0 -0.00000000000E+00 -0.00000000000E+00 -0.22078386743E+04  0.22078386743E+04  0.00000000000E+00 0. -1.
         25    2    1    2    0    0  0.46199032623E+02 -0.28527256996E+03  0.13815690252E+03  0.34384362353E+03  0.12500527165E+03 0.  0.
          2    1    1    2  501    0 -0.13318720108E+03  0.34109427151E+03 -0.20818879058E+04  0.21138451658E+04  0.00000000000E+00 0. -1.
          1    1    1    2  502    0  0.86988168452E+02 -0.55821701556E+02  0.36751480725E+03  0.38177236328E+03  0.00000000000E+00 0. -1.
         22    1    3    3    0    0  0.45857400305E+02 -0.28898387474E+03  0.10559717928E+03  0.31107128651E+03  0.00000000000E+00 0.  1.
         22    1    3    3    0    0  0.34163231742E+00  0.37113047811E+01  0.32559723239E+02  0.32772337012E+02  0.00000000000E+00 0.  1.
</event>
<event>
 7    1  0.6681656E-006  0.1321696E+03  0.7818608E-02  0.1354853E+00
          2   -1    0    0  502    0  0.00000000000E+00  0.00000000000E+00  0.43427697780E+03  0.43427697780E+03  0.00000000000E+00 0. -1.
          1   -1    0    0  501    0 -0.00000000000E+00 -0.00000000000E+00 -0.13304850483E+04  0.13304850483E+04  0.00000000000E+00 0. -1.
         25    2    1    2    0    0 -0.53119914590E+02 -0.10748362182E+03 -0.74650086956E+03  0.76632473268E+03  0.12496236786E+03 0.  0.
          2    1    1    2  501    0  0.33863050694E+02  0.14110887148E+03 -0.56398303349E+03  0.58235322776E+03  0.00000000000E+00 0. -1.
          1    1    1    2  502    0  0.19256863897E+02 -0.33625249659E+02  0.41427583257E+03  0.41608406564E+03  0.00000000000E+00 0. -1.
         22    1    3    3    0    0 -0.56347817575E+02  0.74934514995E+01 -0.29311306239E+03  0.29857410421E+03  0.00000000000E+00 0. -1.
         22    1    3    3    0    0  0.32279029844E+01 -0.11497707332E+03 -0.45338780717E+03  0.46775062847E+03  0.00000000000E+00 0. -1.
</event>
<event>
 7    1  0.6681656E-006  0.8655172E+02  0.7818608E-02  0.1433089E+00
          2   -1    0    0  502    0  0.00000000000E+00  0.00000000000E+00  0.16296881161E+04  0.16296881161E+04  0.00000000000E+00 0. -1.
          1   -1    0    0  501    0 -0.00000000000E+00 -0.00000000000E+00 -0.22500853119E+03  0.22500853119E+03  0.00000000000E+00 0. -1.
         25    2    1    2    0    0  0.78614381361E+02  0.31235201382E+02  0.14460469073E+03  0.20902469569E+03  0.12499979227E+03 0.  0.
          2    1    1    2  501    0  0.82368487431E+01 -0.30567009456E+02 -0.19019096956E+03  0.19280765712E+03  0.00000000000E+00 0. -1.
          1    1    1    2  502    0 -0.86851230104E+02 -0.66819192606E+00  0.14502658638E+04  0.14528642945E+04  0.00000000000E+00 0. -1.
         22    1    3    3    0    0  0.45918376205E+02  0.76369069666E+02  0.11630719917E+03  0.14651995309E+03  0.00000000000E+00 0. -1.
         22    1    3    3    0    0  0.32696005156E+02 -0.45133868283E+02  0.28297491557E+02  0.62504742602E+02  0.00000000000E+00 0. -1.
</event>
<event>
 7    1  0.6681656E-006  0.1310612E+03  0.7818608E-02  0.1318325E+00
          2   -1    0    0  502    0  0.00000000000E+00  0.00000000000E+00  0.41691522188E+03  0.41691522188E+03  0.00000000000E+00 0. -1.
          1   -1    0    0  501    0 -0.00000000000E+00 -0.00000000000E+00 -0.22802163716E+03  0.22802163716E+03  0.00000000000E+00 0. -1.
         25    2    1    2    0    0 -0.21984200171E+02  0.13840799782E+03  0.20920613376E+03  0.28110741003E+03  0.12495635500E+03 0.  0.
          2    1    1    2  501    0  0.52134044763E+02 -0.12932159742E+02 -0.16289345386E+03  0.17152106777E+03  0.00000000000E+00 0. -1.
          1    1    1    2  502    0 -0.30149844591E+02 -0.12547583808E+03  0.14258090483E+03  0.19230838123E+03  0.00000000000E+00 0. -1.
         22    1    3    3    0    0 -0.65761618590E+02  0.77883406762E+02  0.71708150297E+02  0.12462934786E+03  0.00000000000E+00 0.  1.
         22    1    3    3    0    0  0.43777418419E+02  0.60524591061E+02  0.13749798346E+03  0.15647806218E+03  0.00000000000E+00 0.  1.
</event>
<event>
 7    1  0.6681656E-006  0.2760664E+03  0.7818608E-02  0.1294618E+00
          2   -1    0    0  502    0  0.00000000000E+00  0.00000000000E+00  0.27473863584E+04  0.27473863584E+04  0.00000000000E+00 0. -1.
          1   -1    0    0  501    0 -0.00000000000E+00 -0.00000000000E+00 -0.83421883774E+03  0.83421883774E+03  0.00000000000E+00 0. -1.
         25    2    1    2    0    0 -0.99171030952E+02 -0.28906935098E+03  0.13217582574E+04  0.13623751552E+04  0.12500075751E+03 0.  0.
          2    1    1    2  501    0  0.80421666156E+02  0.26355919530E+03 -0.79040094831E+03  0.83705719810E+03  0.00000000000E+00 0. -1.
          1    1    1    2  502    0  0.18749364796E+02  0.25510155688E+02  0.13818102115E+04  0.13821728428E+04  0.00000000000E+00 0. -1.
         22    1    3    3    0    0 -0.99157583009E+00 -0.13820191383E+03  0.76060451061E+03  0.77305884238E+03  0.00000000000E+00 0.  1.
         22    1    3    3    0    0 -0.98179455122E+02 -0.15086743715E+03  0.56115374680E+03  0.58931631281E+03  0.00000000000E+00 0.  1.
</event>
<event>
 7    1  0.6681656E-006  0.1649222E+03  0.7818608E-02  0.1265298E+00
          2   -1    0    0  502    0  0.00000000000E+00  0.00000000000E+00  0.17256057576E+03  0.17256057576E+03  0.00000000000E+00 0. -1.
          1   -1    0    0  501    0 -0.00000000000E+00 -0.00000000000E+00 -0.57029386024E+04  0.57029386024E+04  0.00000000000E+00 0. -1.
         25    2    1    2    0    0  0.33375795813E+02  0.16758437914E+03 -0.10850668804E+04  0.11055292266E+04  0.12500507187E+03 0.  0.
          2    1    1    2  501    0  0.36444077091E+02 -0.16187933983E+03 -0.45985161515E+04  0.46015088707E+04  0.00000000000E+00 0. -1.
          1    1    1    2  502    0 -0.69819872904E+02 -0.57050393125E+01  0.15320500528E+03  0.16846108087E+03  0.00000000000E+00 0. -1.
         22    1    3    3    0    0 -0.41542963598E+02  0.10777211411E+03 -0.56110466920E+03  0.57286917896E+03  0.00000000000E+00 0.  1.
         22    1    3    3    0    0  0.74918759411E+02  0.59812265034E+02 -0.52396221124E+03  0.53266004766E+03  0.00000000000E+00 0.  1.
</event>
<event>
 7    1  0.6681656E-006  0.9139936E+02  0.7818608E-02  0.1300690E+00
          2   -1    0    0  502    0  0.00000000000E+00  0.00000000000E+00  0.32123885697E+04  0.32123885697E+04  0.00000000000E+00 0. -1.
          1   -1    0    0  501    0 -0.00000000000E+00 -0.00000000000E+00 -0.44213854937E+02  0.44213854937E+02  0.00000000000E+00 0. -1.
         25    2    1    2    0    0  0.68242422100E+01  0.75636008407E+02  0.23626541343E+04  0.23671771184E+04  0.12500230145E+03 0.  0.
          2    1    1    2  501    0  0.80224185673E+02  0.43794107146E+02  0.24611621340E+02  0.94655035221E+02  0.00000000000E+00 0. -1.
          1    1    1    2  502    0 -0.87048427883E+02 -0.11943011555E+03  0.78090895909E+03  0.79477027101E+03  0.00000000000E+00 0. -1.
         22    1    3    3    0    0 -0.32080607589E+02 -0.76663064388E+01  0.21126030008E+03  0.21381967175E+03  0.00000000000E+00 0. -1.
         22    1    3    3    0    0  0.38904849800E+02  0.83302314846E+02  0.21513938342E+04  0.21533574466E+04  0.00000000000E+00 0. -1.
</event>
<event>
 7    1  0.6681656E-006  0.2151869E+03  0.7818608E-02  0.1186593E+00
          2   -1    0    0  502    0  0.00000000000E+00  0.00000000000E+00  0.17937714154E+04  0.17937714154E+04  0.00000000000E+00 0. -1.
          1   -1    0    0  501    0 -0.00000000000E+00 -0.00000000000E+00 -0.63638695614E+03  0.63638695614E+03  0.00000000000E+00 0. -1.
         25    2    1    2    0    0 -0.49699219594E+02  0.18837449838E+03 -0.25943354872E+02  0.23292982601E+03  0.12501312778E+03 0.  0.
          2    1    1    2  501    0 -0.68974090156E+02 -0.21568361033E+03 -0.47932512932E+03  0.53012208450E+03  0.00000000000E+00 0. -1.
          1    1    1    2  502    0  0.11867330975E+03  0.27309111948E+02  0.16626529434E+04  0.16671064610E+04  0.00000000000E+00 0. -1.
         22    1    3    3    0    0 -0.22687042082E+02  0.19614393317E+03 -0.43737849899E+01  0.19750006175E+03  0.00000000000E+00 0.  1.
         22    1    3    3    0    0 -0.27012177512E+02 -0.77694347876E+01 -0.21569569882E+02  0.35429764263E+02  0.00000000000E+00 0.  1.
</event>
<event>
 7    1  0.7694386E-006  0.1237044E+03  0.7818608E-02  0.1310420E+00
          2   -1    0    0  502    0  0.00000000000E+00  0.00000000000E+00  0.15837586139E+04  0.15837586139E+04  0.00000000000E+00 0. -1.
          1   -1    0    0  501    0 -0.00000000000E+00 -0.00000000000E+00 -0.13163588536E+04  0.13163588536E+04  0.00000000000E+00 0. -1.
         25    2    1    2    0    0 -0.14997328799E+03 -0.49818077878E+02 -0.87641338582E+03  0.89927724867E+03  0.12500127651E+03 0.  0.
          2    1    1    2  501    0  0.26447327770E+02  0.55091032807E+02 -0.42388840704E+03  0.42827078428E+03  0.00000000000E+00 0. -1.
          1    1    1    2  502    0  0.12352596022E+03 -0.52729549292E+01  0.15677015531E+04  0.15725694346E+04  0.00000000000E+00 0. -1.
         22    1    3    3    0    0 -0.12447399995E+03 -0.59729310816E+02 -0.85037242055E+03  0.86150717981E+03  0.00000000000E+00 0.  1.
         22    1    3    3    0    0 -0.25499288047E+02  0.99112329383E+01 -0.26040965272E+02  0.37770068858E+02  0.00000000000E+00 0.  1.
</event>
<event>
 7    1  0.6681656E-006  0.5600001E+02  0.7818608E-02  0.1522880E+00
          2   -1    0    0  502    0  0.00000000000E+00  0.00000000000E+00  0.11408614265E+04  0.11408614265E+04  0.00000000000E+00 0. -1.
          1   -1    0    0  501    0 -0.00000000000E+00 -0.00000000000E+00 -0.50669360382E+03  0.50669360382E+03  0.00000000000E+00 0. -1.
         25    2    1    2    0    0 -0.19651742136E+02  0.37983775047E+02  0.31815216261E+03  0.34449273413E+03  0.12500194863E+03 0.  0.
          2    1    1    2  501    0  0.45114718904E+02 -0.33319071610E+02 -0.49172190531E+03  0.49491002268E+03  0.00000000000E+00 0. -1.
          1    1    1    2  502    0 -0.25462976767E+02 -0.46647034371E+01  0.80773756533E+03  0.80815227346E+03  0.00000000000E+00 0. -1.
         22    1    3    3    0    0 -0.98423986199E+01 -0.16749671836E+02  0.27068856051E+03  0.27138482107E+03  0.00000000000E+00 0.  1.
         22    1    3    3    0    0 -0.98093435166E+01  0.54733446883E+02  0.47463602102E+02  0.73107913063E+02  0.00000000000E+00 0.  1.
</event>
<event>
 7    1  0.6681656E-006  0.8893152E+02  0.7818608E-02  0.1372798E+00
          2   -1    0    0  502    0  0.00000000000E+00  0.00000000000E+00  0.32814583966E+03  0.32814583966E+03  0.00000000000E+00 0. -1.
          1   -1    0    0  501    0 -0.00000000000E+00 -0.00000000000E+00 -0.15015124233E+04  0.15015124233E+04  0.00000000000E+00 0. -1.
         25    2    1    2    0    0 -0.13030380959E+03 -0.44850781629E+02  0.82032905747E+01  0.18623222090E+03  0.12499788286E+03 0.  0.
          2    1    1    2  501    0  0.83517738758E+02  0.28471573076E+02 -0.14084411636E+04  0.14112024498E+04  0.00000000000E+00 0. -1.
          1    1    1    2  502    0  0.46786070831E+02  0.16379208553E+02  0.22687128932E+03  0.23222359228E+03  0.00000000000E+00 0. -1.
         22    1    3    3    0    0 -0.59905658281E+01  0.36283989771E+02 -0.53715718878E+01  0.37165421794E+02  0.00000000000E+00 0.  1.
         22    1    3    3    0    0 -0.12431324376E+03 -0.81134771400E+02  0.13574862463E+02  0.14906679911E+03  0.00000000000E+00 0.  1.
</event>
<event>
 7    1  0.6681656E-006  0.7839503E+02  0.7818608E-02  0.1351887E+00
          2   -1    0    0  502    0  0.00000000000E+00  0.00000000000E+00  0.78745828446E+02  0.78745828446E+02  0.00000000000E+00 0. -1.
          1   -1    0    0  501    0 -0.00000000000E+00 -0.00000000000E+00 -0.15199101423E+04  0.15199101423E+04  0.00000000000E+00 0. -1.
         25    2    1    2    0    0 -0.17754080282E+02  0.92644547050E+02 -0.37575133792E+03  0.40707758370E+03  0.12499948694E+03 0.  0.
          2    1    1    2  501    0  0.61398409162E+02 -0.26803663823E+02 -0.11023447221E+04  0.11043785979E+04  0.00000000000E+00 0. -1.
          1    1    1    2  502    0 -0.43644328880E+02 -0.65840883227E+02  0.36931746223E+02  0.87199789143E+02  0.00000000000E+00 0. -1.
         22    1    3    3    0    0  0.92418162216E+00  0.11698188741E+03 -0.22896776416E+03  0.25712225325E+03  0.00000000000E+00 0.  1.
         22    1    3    3    0    0 -0.18678261904E+02 -0.24337340356E+02 -0.14678357376E+03  0.14995533045E+03  0.00000000000E+00 0.  1.
</event>
<event>
 7    1  0.6681656E-006  0.1764298E+03  0.7818608E-02  0.1210995E+00
          2   -1    0    0  502    0  0.00000000000E+00  0.00000000000E+00  0.14151264035E+04  0.14151264035E+04  0.00000000000E+00 0. -1.
          1   -1    0    0  501    0 -0.00000000000E+00 -0.00000000000E+00 -0.12692758325E+03  0.12692758325E+03  0.00000000000E+00 0. -1.
         25    2    1    2    0    0 -0.16377809556E+03 -0.71725076648E+02  0.17441617379E+03  0.27929303430E+03  0.12496337913E+03 0.  0.
          2    1    1    2  501    0  0.94560496329E+02  0.16216101567E+03  0.51860539385E+02  0.19474957770E+03  0.00000000000E+00 0. -1.
          1    1    1    2  502    0  0.69217599229E+02 -0.90435939019E+02  0.10619221071E+04  0.10680113747E+04  0.00000000000E+00 0. -1.
         22    1    3    3    0    0 -0.16181016097E+03 -0.16615759174E+02  0.12343369829E+03  0.20419228566E+03  0.00000000000E+00 0.  1.
         22    1    3    3    0    0 -0.19679345840E+01 -0.55109317474E+02  0.50982475492E+02  0.75100748640E+02  0.00000000000E+00 0.  1.
</event>
<event>
 7    1  0.6681656E-006  0.6666542E+02  0.7818608E-02  0.1397393E+00
          2   -1    0    0  502    0  0.00000000000E+00  0.00000000000E+00  0.13279415390E+04  0.13279415390E+04  0.00000000000E+00 0. -1.
          1   -1    0    0  501    0 -0.00000000000E+00 -0.00000000000E+00 -0.29518969095E+03  0.29518969095E+03  0.00000000000E+00 0. -1.
         25    2    1    2    0    0  0.11960906924E+02 -0.10915700329E+03 -0.76702717620E+02  0.18320962882E+03  0.12499658611E+03 0.  0.
          2    1    1    2  501    0  0.19402257864E+02  0.50597297286E+02 -0.15989850714E+03  0.16883147423E+03  0.00000000000E+00 0. -1.
          1    1    1    2  502    0 -0.31363164788E+02  0.58559706008E+02  0.12693530728E+04  0.12710901269E+04  0.00000000000E+00 0. -1.
         22    1    3    3    0    0 -0.35383481271E+01 -0.13463894270E+03 -0.72882508059E+02  0.15314053931E+03  0.00000000000E+00 0.  1.
         22    1    3    3    0    0  0.15499255051E+02  0.25481939403E+02 -0.38202095606E+01  0.30069089510E+02  0.00000000000E+00 0.  1.
</event>
<event>
 7    1  0.6681656E-006  0.5650265E+03  0.7818608E-02  0.1091135E+00
          2   -1    0    0  502    0  0.00000000000E+00  0.00000000000E+00  0.93124117365E+03  0.93124117365E+03  0.00000000000E+00 0. -1.
          1   -1    0    0  501    0 -0.00000000000E+00 -0.00000000000E+00 -0.22543947072E+04  0.22543947072E+04  0.00000000000E+00 0. -1.
         25    2    1    2    0    0  0.63287090134E+03 -0.13872590205E+03 -0.25118738335E+03  0.70603896576E+03  0.12500186379E+03 0.  0.
          2    1    1    2  501    0 -0.12742159790E+03 -0.73911251196E+02 -0.16652261016E+04  0.16717287777E+04  0.00000000000E+00 0. -1.
          1    1    1    2  502    0 -0.50544930344E+03  0.21263715324E+03  0.59325995148E+03  0.80786813733E+03  0.00000000000E+00 0. -1.
         22    1    3    3    0    0 -0.24988260417E+01 -0.27329773040E+01  0.61465977092E+01  0.71759292033E+01  0.00000000000E+00 0. -1.
         22    1    3    3    0    0  0.63536972738E+03 -0.13599292474E+03 -0.25733398106E+03  0.69886303655E+03  0.00000000000E+00 0. -1.
</event>
<event>
 7    1  0.6681656E-006  0.6441455E+02  0.7818608E-02  0.1429093E+00
          2   -1    0    0  502    0  0.00000000000E+00  0.00000000000E+00  0.29811794975E+02  0.29811794975E+02  0.00000000000E+00 0. -1.
          1   -1    0    0  501    0 -0.00000000000E+00 -0.00000000000E+00 -0.10252978664E+04  0.10252978664E+04  0.00000000000E+00 0. -1.
         25    2    1    2    0    0  0.42617262296E+02  0.65736883996E+02 -0.36609392301E+03  0.39469969813E+03  0.12500208907E+03 0.  0.
          2    1    1    2  501    0 -0.43804003347E+02 -0.18510784447E+01 -0.57450569476E+03  0.57617619745E+03  0.00000000000E+00 0. -1.
          1    1    1    2  502    0  0.11867410516E+01 -0.63885805551E+02 -0.54886453647E+02  0.84233765790E+02  0.00000000000E+00 0. -1.
         22    1    3    3    0    0  0.68807748077E+02  0.68314137620E+02 -0.35145625506E+03  0.36458582915E+03  0.00000000000E+00 0.  1.
         22    1    3    3    0    0 -0.26190485781E+02 -0.25772536245E+01 -0.14637667951E+02  0.30113868977E+02  0.00000000000E+00 0.  1.
</event>
<event>
 7    1  0.6681656E-006  0.1654310E+03  0.7818608E-02  0.1271680E+00
          2   -1    0    0  502    0  0.00000000000E+00  0.00000000000E+00  0.24162246600E+04  0.24162246600E+04  0.00000000000E+00 0. -1.
          1   -1    0    0  501    0 -0.00000000000E+00 -0.00000000000E+00 -0.86678251342E+03  0.86678251342E+03  0.00000000000E+00 0. -1.
         25    2    1    2    0    0  0.78547046870E+02 -0.11441635184E+03  0.10595256943E+04  0.10758627933E+04  0.12500125161E+03 0.  0.
          2    1    1    2  501    0 -0.33604611271E+02  0.16226822747E+03 -0.84980723829E+03  0.86581325342E+03  0.00000000000E+00 0. -1.
          1    1    1    2  502    0 -0.44942435599E+02 -0.47851875636E+02  0.13397236905E+04  0.13413311267E+04  0.00000000000E+00 0. -1.
         22    1    3    3    0    0  0.96786977064E+02 -0.75123880111E+02  0.50510276797E+03  0.51975005772E+03  0.00000000000E+00 0.  1.
         22    1    3    3    0    0 -0.18239930194E+02 -0.39292471726E+02  0.55442292636E+03  0.55611273557E+03  0.00000000000E+00 0.  1.
</event>
<event>
 7    1  0.6681656E-006  0.9454603E+02  0.7818608E-02  0.1310443E+00
          2   -1    0    0  502    0  0.00000000000E+00  0.00000000000E+00  0.33590494865E+04  0.33590494865E+04  0.00000000000E+00 0. -1.
          1   -1    0    0  501    0 -0.00000000000E+00 -0.00000000000E+00 -0.87158793530E+02  0.87158793530E+02  0.00000000000E+00 0. -1.
         25    2    1    2    0    0  0.14202898487E+01 -0.27003259151E+01  0.84484389358E+03  0.85404221139E+03  0.12497033781E+03 0.  0.
          2    1    1    2  501    0  0.94091507117E+02  0.92595767123E+01 -0.54262279478E+02  0.10901076298E+03  0.00000000000E+00 0. -1.
          1    1    1    2  502    0 -0.95511796965E+02 -0.65592507972E+01  0.24813090789E+04  0.24831553056E+04  0.00000000000E+00 0. -1.
         22    1    3    3    0    0 -0.34529505084E+02 -0.33358920366E+02  0.70089942157E+03  0.70254188733E+03  0.00000000000E+00 0.  1.
         22    1    3    3    0    0  0.35949794933E+02  0.30658594451E+02  0.14394447201E+03  0.15150032406E+03  0.00000000000E+00 0.  1.
</event>
<event>
 7    1  0.6681656E-006  0.1592759E+03  0.7818608E-02  0.1250620E+00
          2   -1    0    0  502    0  0.00000000000E+00  0.00000000000E+00  0.78015090727E+03  0.78015090727E+03  0.00000000000E+00 0. -1.
          1   -1    0    0  501    0 -0.00000000000E+00 -0.00000000000E+00 -0.10933239496E+04  0.10933239496E+04  0.00000000000E+00 0. -1.
         25    2    1    2    0    0  0.12229923078E+03 -0.15418536631E+03  0.40394495075E+03  0.46639769384E+03  0.12500022621E+03 0.  0.
          2    1    1    2  501    0  0.47477574843E+01  0.83697301704E+02 -0.10450466190E+04  0.10484036510E+04  0.00000000000E+00 0. -1.
          1    1    1    2  502    0 -0.12704698827E+03  0.70488064604E+02  0.32792862597E+03  0.35867351200E+03  0.00000000000E+00 0. -1.
         22    1    3    3    0    0  0.11049966854E+03 -0.47813650761E+02  0.16203352752E+03  0.20186922992E+03  0.00000000000E+00 0.  1.
         22    1    3    3    0    0  0.11799562241E+02 -0.10637171555E+03  0.24191142323E+03  0.26452846392E+03  0.00000000000E+00 0.  1.
</event>
<event>
 7    1  0.6681656E-006  0.1497132E+03  0.7818608E-02  0.1312168E+00
          2   -1    0    0  502    0  0.00000000000E+00  0.00000000000E+00  0.98767273026E+03  0.98767273026E+03  0.00000000000E+00 0. -1.
          1   -1    0    0  501    0 -0.00000000000E+00 -0.00000000000E+00 -0.45836069627E+03  0.45836069627E+03  0.00000000000E+00 0. -1.
         25    2    1    2    0    0 -0.95400694549E+02 -0.17177607530E+03  0.48940590067E+03  0.54198698014E+03  0.12499375371E+03 0.  0.
          2    1    1    2  501    0  0.81920488276E+02  0.12393809852E+03 -0.41791449306E+03  0.44353595365E+03  0.00000000000E+00 0. -1.
          1    1    1    2  502    0  0.13480206273E+02  0.47837976785E+02  0.45782062638E+03  0.46051049274E+03  0.00000000000E+00 0. -1.
         22    1    3    3    0    0 -0.39718377249E+02 -0.14970804228E+03  0.24114095372E+03  0.28659903519E+03  0.00000000000E+00 0. -1.
         22    1    3    3    0    0 -0.55682317300E+02 -0.22068033028E+02  0.24826494695E+03  0.25538794495E+03  0.00000000000E+00 0. -1.
</event>
<event>
 7    1  0.8744816E-006  0.6788711E+02  0.7818608E-02  0.1390350E+00
          2   -1    0    0  502    0  0.00000000000E+00  0.00000000000E+00  0.54246671493E+03  0.54246671493E+03  0.00000000000E+00 0. -1.
          1   -1    0    0  501    0 -0.00000000000E+00 -0.00000000000E+00 -0.13954890787E+04  0.13954890787E+04  0.00000000000E+00 0. -1.
         25    2    1    2    0    0 -0.16669803281E+01  0.59182996114E+02 -0.11355455118E+03  0.17895398940E+03  0.12499795349E+03 0.  0.
          2    1    1    2  501    0 -0.53205644923E+02 -0.18391538786E+02 -0.12463038850E+04  0.12475746322E+04  0.00000000000E+00 0. -1.
          1    1    1    2  502    0  0.54872625251E+02 -0.40791457328E+02  0.50683607237E+03  0.51142717199E+03  0.00000000000E+00 0. -1.
         22    1    3    3    0    0  0.17259160752E+02  0.95249907918E+01 -0.12335091238E+03  0.12491617855E+03  0.00000000000E+00 0. -1.
         22    1    3    3    0    0 -0.18926141080E+02  0.49658005322E+02  0.97963611961E+01  0.54037810850E+02  0.00000000000E+00 0. -1.
</event>
<event>
 7    1  0.6681656E-006  0.7175788E+02  0.7818608E-02  0.1421943E+00
          2   -1    0    0  502    0  0.00000000000E+00  0.00000000000E+00  0.40859154747E+03  0.40859154747E+03  0.00000000000E+00 0. -1.
          1   -1    0    0  501    0 -0.00000000000E+00 -0.00000000000E+00 -0.93798944734E+02  0.93798944734E+02  0.00000000000E+00 0. -1.
         25    2    1    2    0    0  0.49965411392E+02  0.77140639168E+02  0.74209379203E+02  0.17197024775E+03  0.12497805248E+03 0.  0.
          2    1    1    2  501    0  0.10286180297E+02 -0.40269823490E+02 -0.29683958673E+02  0.51074471036E+02  0.00000000000E+00 0. -1.
          1    1    1    2  502    0 -0.60251591689E+02 -0.36870815678E+02  0.27026718221E+03  0.27934577342E+03  0.00000000000E+00 0. -1.
         22    1    3    3    0    0  0.31674869860E+02  0.11091361267E+03  0.65276485435E+02  0.13253733967E+03  0.00000000000E+00 0.  1.
         22    1    3    3    0    0  0.18290541531E+02 -0.33772973500E+02  0.89328937686E+01  0.39432908080E+02  0.00000000000E+00 0.  1.
</event>
<event>
 7    1  0.6681656E-006  0.2325507E+02  0.7818608E-02  0.1698260E+00
          2   -1    0    0  502    0  0.00000000000E+00  0.00000000000E+00  0.13056662659E+04  0.13056662659E+04  0.00000000000E+00 0. -1.
          1   -1    0    0  501    0 -0.00000000000E+00 -0.00000000000E+00 -0.48155382837E+02  0.48155382837E+02  0.00000000000E+00 0. -1.
         25    2    1    2    0    0 -0.10832326892E+01 -0.14642971632E+01  0.27289068984E+03  0.30016303029E+03  0.12500079435E+03 0.  0.
          2    1    1    2  501    0  0.41546585790E+01  0.23190249074E+02 -0.30366931055E+02  0.38434351065E+02  0.00000000000E+00 0. -1.
          1    1    1    2  502    0 -0.30714258898E+01 -0.21725951911E+02  0.10149871243E+04  0.10152242674E+04  0.00000000000E+00 0. -1.
         22    1    3    3    0    0 -0.47061152389E+01  0.55179004640E+02  0.68759835610E+02  0.88288079982E+02  0.00000000000E+00 0.  1.
         22    1    3    3    0    0  0.36228825496E+01 -0.56643301804E+02  0.20413085423E+03  0.21187495030E+03  0.00000000000E+00 0.  1.
</event>
<event>
 7    1  0.6681656E-006  0.6886184E+02  0.7818608E-02  0.1418014E+00
          2   -1    0    0  502    0  0.00000000000E+00  0.00000000000E+00  0.10729047368E+03  0.10729047368E+03  0.00000000000E+00 0. -1.
          1   -1    0    0  501    0 -0.00000000000E+00 -0.00000000000E+00 -0.84781555321E+03  0.84781555321E+03  0.00000000000E+00 0. -1.
         25    2    1    2    0    0 -0.70071587106E+02 -0.38997562208E+02 -0.45439681499E+03  0.47805038600E+03  0.12499947564E+03 0.  0.
          2    1    1    2  501    0  0.31287085456E+02  0.61098818537E+02 -0.37306518421E+03  0.37932779889E+03  0.00000000000E+00 0. -1.
          1    1    1    2  502    0  0.38784501650E+02 -0.22101256329E+02  0.86936919672E+02  0.97727841998E+02  0.00000000000E+00 0. -1.
         22    1    3    3    0    0 -0.18641724100E+02  0.68629183093E+00 -0.37500728954E+03  0.37547097369E+03  0.00000000000E+00 0. -1.
         22    1    3    3    0    0 -0.51429863006E+02 -0.39683854039E+02 -0.79389525449E+02  0.10257941232E+03  0.00000000000E+00 0. -1.
</event>
<event>
 7    1  0.6681656E-006  0.8567837E+02  0.7818608E-02  0.1462315E+00
          2   -1    0    0  502    0  0.00000000000E+00  0.00000000000E+00  0.28021724664E+04  0.28021724664E+04  0.00000000000E+00 0. -1.
          1   -1    0    0  501    0 -0.00000000000E+00 -0.00000000000E+00 -0.26903294554E+03  0.26903294554E+03  0.00000000000E+00 0. -1.
         25    2    1    2    0    0 -0.52979499525E+02  0.33577108428E+02 -0.12576728564E+03  0.18808650952E+03  0.12499950139E+03 0.  0.
          2    1    1    2  501    0 -0.25762394350E+02  0.44807520902E+00 -0.10995250879E+03  0.11293119996E+03  0.00000000000E+00 0. -1.
          1    1    1    2  502    0  0.78741893875E+02 -0.34025183637E+02  0.27688593153E+04  0.27701877025E+04  0.00000000000E+00 0. -1.
         22    1    3    3    0    0 -0.53726596715E+02 -0.32364566299E+02 -0.98394224345E+02  0.11668519928E+03  0.00000000000E+00 0.  1.
         22    1    3    3    0    0  0.74709719064E+00  0.65941674727E+02 -0.27373061293E+02  0.71401310244E+02  0.00000000000E+00 0.  1.
</event>
<event>
 7    1  0.6681656E-006  0.7880628E+02  0.7818608E-02  0.1438605E+00
          2   -1    0    0  502    0  0.00000000000E+00  0.00000000000E+00  0.19476544479E+04  0.19476544479E+04  0.00000000000E+00 0. -1.
          1   -1    0    0  501    0 -0.00000000000E+00 -0.00000000000E+00 -0.95749550283E+03  0.95749550283E+03  0.00000000000E+00 0. -1.
         25    2    1    2    0    0 -0.26270475746E+02 -0.39035461821E+02  0.15983110316E+03  0.20828743371E+03  0.12499507322E+03 0.  0.
          2    1    1    2  501    0 -0.23850210215E+02 -0.23319957420E+02 -0.93206156327E+03  0.93265824966E+03  0.00000000000E+00 0. -1.
          1    1    1    2  502    0  0.50120685962E+02  0.62355419242E+02  0.17623894052E+04  0.17642042674E+04  0.00000000000E+00 0. -1.
         22    1    3    3    0    0 -0.36030945634E+02 -0.81866079200E+02  0.10196418740E+03  0.13563546542E+03  0.00000000000E+00 0. -1.
         22    1    3    3    0    0  0.97604698874E+01  0.42830617378E+02  0.57866915755E+02  0.72651968290E+02  0.00000000000E+00 0. -1.
</event>
<event>
 7    1  0.6681656E-006  0.5583463E+02  0.7818608E-02  0.1452411E+00
          2   -1    0    0  502    0  0.00000000000E+00  0.00000000000E+00  0.10687181340E+03  0.10687181340E+03  0.00000000000E+00 0. -1.
          1   -1    0    0  501    0 -0.00000000000E+00 -0.00000000000E+00 -0.85122995811E+03  0.85122995811E+03  0.00000000000E+00 0. -1.
         25    2    1    2    0    0 -0.67781658592E+02 -0.25080826430E+02 -0.21991495848E+03  0.26307983166E+03  0.12500003107E+03 0.  0.
          2    1    1    2  501    0  0.36816450735E+02 -0.21230708753E+02 -0.59980249346E+03  0.60130626573E+03  0.00000000000E+00 0. -1.
          1    1    1    2  502    0  0.30965207857E+02  0.46311535183E+02  0.75359307241E+02  0.93715674123E+02  0.00000000000E+00 0. -1.
         22    1    3    3    0    0  0.32274337750E+02  0.14374807364E+02 -0.71930068382E+02  0.80138646741E+02  0.00000000000E+00 0.  1.
         22    1    3    3    0    0 -0.10005599634E+03 -0.39455633794E+02 -0.14798489010E+03  0.18294118492E+03  0.00000000000E+00 0.  1.
</event>
<event>
 7    1  0.6681656E-006  0.6848376E+02  0.7818608E-02  0.1375797E+00
          2   -1    0    0  502    0  0.00000000000E+00  0.00000000000E+00  0.75569765357E+02  0.75569765357E+02  0.00000000000E+00 0. -1.
          1   -1    0    0  501    0 -0.00000000000E+00 -0.00000000000E+00 -0.74843969175E+03  0.74843969175E+03  0.00000000000E+00 0. -1.
         25    2    1    2    0    0  0.54430595775E+00 -0.12063801899E+02 -0.32301007680E+03  0.34656439777E+03  0.12500216199E+03 0.  0.
          2    1    1    2  501    0  0.11096958854E+01  0.80527588366E+02 -0.38988960263E+03  0.39812036641E+03  0.00000000000E+00 0. -1.
          1    1    1    2  502    0 -0.16540018431E+01 -0.68463786466E+02  0.40029753037E+02  0.79324692925E+02  0.00000000000E+00 0. -1.
         22    1    3    3    0    0 -0.24835049112E+02 -0.43160286353E+02 -0.29098656985E+03  0.29521648635E+03  0.00000000000E+00 0. -1.
         22    1    3    3    0    0  0.25379355070E+02  0.31096484454E+02 -0.32023506946E+02  0.51347911411E+02  0.00000000000E+00 0. -1.
</event>
<event>
 7    1  0.6681656E-006  0.2025097E+03  0.7818608E-02  0.1215690E+00
          2   -1    0    0  502    0  0.00000000000E+00  0.00000000000E+00  0.92871149490E+03  0.92871149490E+03  0.00000000000E+00 0. -1.
          1   -1    0    0  501    0 -0.00000000000E+00 -0.00000000000E+00 -0.21622711983E+04  0.21622711983E+04  0.00000000000E+00 0. -1.
         25    2    1    2    0    0  0.20173751522E+03  0.59325057825E+02 -0.38325886441E+03  0.45468459798E+03  0.12503295150E+03 0.  0.
          2    1    1    2  501    0 -0.15027442395E+03 -0.13845654641E+03 -0.17347919084E+04  0.17467843551E+04  0.00000000000E+00 0. -1.
          1    1    1    2  502    0 -0.51463091269E+02  0.79131488581E+02  0.88449106934E+03  0.88951374019E+03  0.00000000000E+00 0. -1.
         22    1    3    3    0    0  0.64908251604E+02  0.32023947171E+02 -0.36822310162E+02  0.81206507401E+02  0.00000000000E+00 0. -1.
         22    1    3    3    0    0  0.13682926361E+03  0.27301110654E+02 -0.34643655425E+03  0.37347809058E+03  0.00000000000E+00 0. -1.
</event>
<event>
 7    1  0.6681656E-006  0.7209384E+02  0.7818608E-02  0.1450430E+00
          2   -1    0    0  502    0  0.00000000000E+00  0.00000000000E+00  0.51159422836E+03  0.51159422836E+03  0.00000000000E+00 0. -1.
          1   -1    0    0  501    0 -0.00000000000E+00 -0.00000000000E+00 -0.30785394464E+03  0.30785394464E+03  0.00000000000E+00 0. -1.
         25    2    1    2    0    0  0.93300960588E+02 -0.32724230222E+01  0.15357259475E+03  0.21891842110E+03  0.12499982096E+03 0.  0.
          2    1    1    2  501    0 -0.27079498970E+02 -0.19546977821E+02 -0.27037184437E+03  0.27242672012E+03  0.00000000000E+00 0. -1.
          1    1    1    2  502    0 -0.66221461617E+02  0.22819400843E+02  0.32053953334E+03  0.32810303178E+03  0.00000000000E+00 0. -1.
         22    1    3    3    0    0  0.47624647969E+02  0.85957526913E+01  0.16365507063E+03  0.17066041193E+03  0.00000000000E+00 0. -1.
         22    1    3    3    0    0  0.45676312619E+02 -0.11868175714E+02 -0.10082475878E+02  0.48258009170E+02  0.00000000000E+00 0. -1.
</event>
<event>
 7    1  0.6681656E-006  0.3780014E+02  0.7818608E-02  0.1573950E+00
          2   -1    0    0  502    0  0.00000000000E+00  0.00000000000E+00  0.41087708087E+03  0.41087708087E+03  0.00000000000E+00 0. -1.
          1   -1    0    0  501    0 -0.00000000000E+00 -0.00000000000E+00 -0.72130979717E+03  0.72130979717E+03  0.00000000000E+00 0. -1.
         25    2    1    2    0    0 -0.48877856544E+01  0.24122450104E+02  0.19937503046E+03  0.23660487953E+03  0.12500273276E+03 0.  0.
          2    1    1    2  501    0 -0.21874412127E+02 -0.30887989090E+02 -0.70119425923E+03  0.70221502900E+03  0.00000000000E+00 0. -1.
          1    1    1    2  502    0  0.26762197781E+02  0.67655389864E+01  0.19138651246E+03  0.19336696952E+03  0.00000000000E+00 0. -1.
         22    1    3    3    0    0  0.18599026410E+02 -0.47578848468E+02  0.67222615827E+02  0.84430744895E+02  0.00000000000E+00 0. -1.
         22    1    3    3    0    0 -0.23486812065E+02  0.71701298572E+02  0.13215241464E+03  0.15217413464E+03  0.00000000000E+00 0. -1.
</event>
<event>
 7    1  0.6681656E-006  0.9405075E+02  0.7818608E-02  0.1373777E+00
          2   -1    0    0  502    0  0.00000000000E+00  0.00000000000E+00  0.44934855136E+03  0.44934855136E+03  0.00000000000E+00 0. -1.
          1   -1    0    0  501    0 -0.00000000000E+00 -0.00000000000E+00 -0.37615877676E+03  0.37615877676E+03  0.00000000000E+00 0. -1.
         25    2    1    2    0    0 -0.65964131971E+02  0.20765808259E+02  0.49666405862E+02  0.15124268364E+03  0.12500044794E+03 0.  0.
          2    1    1    2  501    0  0.95075567316E+02  0.15488185234E+02 -0.31662452660E+03  0.33095367988E+03  0.00000000000E+00 0. -1.
          1    1    1    2  502    0 -0.29111435345E+02 -0.36253993494E+02  0.34014789533E+03  0.34331096459E+03  0.00000000000E+00 0. -1.
         22    1    3    3    0    0 -0.90324319396E+02  0.50052207737E+02  0.45758450719E+02  0.11294928944E+03  0.00000000000E+00 0.  1.
         22    1    3    3    0    0  0.24360187426E+02 -0.29286399478E+02  0.39079551437E+01  0.38293394198E+02  0.00000000000E+00 0.  1.
</event>
<event>
 7    1  0.6681656E-006  0.1807225E+03  0.7818608E-02  0.1290318E+00
          2   -1    0    0  502    0  0.00000000000E+00  0.00000000000E+00  0.38820696257E+03  0.38820696257E+03  0.00000000000E+00 0. -1.
          1   -1    0    0  501    0 -0.00000000000E+00 -0.00000000000E+00 -0.26842650087E+03  0.26842650087E+03  0.00000000000E+00 0. -1.
         25    2    1    2    0    0  0.14334158895E+03 -0.57589702755E+02  0.11486594578E+03  0.22953425457E+03  0.12501361340E+03 0.  0.
          2    1    1    2  501    0  0.50137362093E+02 -0.45201409774E+01 -0.15852307774E+03  0.16632424035E+03  0.00000000000E+00 0. -1.
          1    1    1    2  502    0 -0.19347895104E+03  0.62109843732E+02  0.16343759366E+03  0.26077496852E+03  0.00000000000E+00 0. -1.
         22    1    3    3    0    0  0.11152354817E+03  0.98366447784E+01  0.10648165155E+03  0.15450761630E+03  0.00000000000E+00 0. -1.
         22    1    3    3    0    0  0.31818040777E+02 -0.67426347533E+02  0.83842942338E+01  0.75026638272E+02  0.00000000000E+00 0. -1.
</event>
<event>
 7    1  0.6681656E-006  0.1559636E+03  0.7818608E-02  0.1208643E+00
          2   -1    0    0  502    0  0.00000000000E+00  0.00000000000E+00  0.65446552057E+03  0.65446552057E+03  0.00000000000E+00 0. -1.
          1   -1    0    0  501    0 -0.00000000000E+00 -0.00000000000E+00 -0.72259259722E+03  0.72259259722E+03  0.00000000000E+00 0. -1.
         25    2    1    2    0    0  0.16511828851E+03  0.11259530525E+03 -0.31914301720E+03  0.39676118930E+03  0.12500169577E+03 0.  0.
          2    1    1    2  501    0 -0.37525408842E+02 -0.14683518892E+03 -0.34129552926E+03  0.37343187773E+03  0.00000000000E+00 0. -1.
          1    1    1    2  502    0 -0.12759287967E+03  0.34239883668E+02  0.59231146980E+03  0.60686505076E+03  0.00000000000E+00 0. -1.
         22    1    3    3    0    0  0.30900193482E+00  0.18671284778E+02  0.66033002597E+01  0.19806966748E+02  0.00000000000E+00 0.  1.
         22    1    3    3    0    0  0.16480928658E+03  0.93924020476E+02 -0.32574631746E+03  0.37695422255E+03  0.00000000000E+00 0.  1.
</event>
<event>
 7    1  0.6681656E-006  0.2538845E+03  0.7818608E-02  0.1240175E+00
          2   -1    0    0  502    0  0.00000000000E+00  0.00000000000E+00  0.14554698839E+04  0.14554698839E+04  0.00000000000E+00 0. -1.
          1   -1    0    0  501    0 -0.00000000000E+00 -0.00000000000E+00 -0.51727450015E+03  0.51727450015E+03  0.00000000000E+00 0. -1.
         25    2    1    2    0    0  0.28264850397E+03  0.10135507175E+03  0.10342005942E+03  0.34129379903E+03  0.12499088446E+03 0.  0.
          2    1    1    2  501    0 -0.40733493435E+02 -0.41879974607E+02 -0.38352088892E+03  0.38794512756E+03  0.00000000000E+00 0. -1.
          1    1    1    2  502    0 -0.24191501054E+03 -0.59475097145E+02  0.12182962133E+04  0.12435054575E+04  0.00000000000E+00 0. -1.
         22    1    3    3    0    0  0.11949634049E+03  0.49199643187E+02  0.11025607486E+03  0.16987166427E+03  0.00000000000E+00 0.  1.
         22    1    3    3    0    0  0.16315216348E+03  0.52155428565E+02 -0.68360154392E+01  0.17142213475E+03  0.00000000000E+00 0.  1.
</event>
<event>
 7    1  0.6681656E-006  0.1136636E+03  0.7818608E-02  0.1276307E+00
          2   -1    0    0  502    0  0.00000000000E+00  0.00000000000E+00  0.10416272798E+04  0.10416272798E+04  0.00000000000E+00 0. -1.
          1   -1    0    0  501    0 -0.00000000000E+00 -0.00000000000E+00 -0.66342443640E+02  0.66342443640E+02  0.00000000000E+00 0. -1.
         25    2    1    2    0    0  0.12290419087E+03  0.13220104115E+03  0.60862210096E+03  0.64701526242E+03  0.12500133046E+03 0.  0.
          2    1    1    2  501    0 -0.97964004693E+02 -0.44278072791E+02  0.29293184903E+02  0.11142524233E+03  0.00000000000E+00 0. -1.
          1    1    1    2  502    0 -0.24940186180E+02 -0.87922968356E+02  0.33736955031E+03  0.34952921870E+03  0.00000000000E+00 0. -1.
         22    1    3    3    0    0  0.42750186722E+02  0.12219360288E+03  0.45989748680E+03  0.47777039822E+03  0.00000000000E+00 0.  1.
         22    1    3    3    0    0  0.80154004151E+02  0.10007438263E+02  0.14872461416E+03  0.16924486421E+03  0.00000000000E+00 0.  1.
</event>
<event>
 7    1  0.6681656E-006  0.9954146E+02  0.7818608E-02  0.1396536E+00
          2   -1    0    0  502    0  0.00000000000E+00  0.00000000000E+00  0.12584481877E+04  0.12584481877E+04  0.00000000000E+00 0. -1.
          1   -1    0    0  501    0 -0.00000000000E+00 -0.00000000000E+00 -0.15305684856E+04  0.15305684856E+04  0.00000000000E+00 0. -1.
         25    2    1    2    0    0  0.80014103698E+02  0.90831344948E+02  0.89312795489E+03  0.90992116505E+03  0.12500557096E+03 0.  0.
          2    1    1    2  501    0 -0.15923421181E+02 -0.32888217950E+02 -0.15167198836E+04  0.15171599769E+04  0.00000000000E+00 0. -1.
          1    1    1    2  502    0 -0.64090682517E+02 -0.57943126998E+02  0.35147163080E+03  0.36193553129E+03  0.00000000000E+00 0. -1.
         22    1    3    3    0    0  0.98193174642E+02  0.37682935339E+02  0.39969730423E+03  0.41330356661E+03  0.00000000000E+00 0. -1.
         22    1    3    3    0    0 -0.18179070945E+02  0.53148409609E+02  0.49343065066E+03  0.49661759844E+03  0.00000000000E+00 0. -1.
</event>
<event>
 7    1  0.6681656E-006  0.8390491E+02  0.7818608E-02  0.1388246E+00
          2   -1    0    0  502    0  0.00000000000E+00  0.00000000000E+00  0.73981489730E+03  0.73981489730E+03  0.00000000000E+00 0. -1.
          1   -1    0    0  501    0 -0.00000000000E+00 -0.00000000000E+00 -0.26753382869E+03  0.26753382869E+03  0.00000000000E+00 0. -1.
         25    2    1    2    0    0 -0.11395236956E+03 -0.34779233177E+02  0.15423176772E+03  0.23152974785E+03  0.12499539342E+03 0.  0.
          2    1    1    2  501    0  0.32528627403E+02  0.32983364269E+02 -0.22346409379E+03  0.22821528243E+03  0.00000000000E+00 0. -1.
          1    1    1    2  502    0  0.81423742156E+02  0.17958689086E+01  0.54151339469E+03  0.54760369571E+03  0.00000000000E+00 0. -1.
         22    1    3    3    0    0 -0.45358797508E+02  0.45494780725E+02  0.79287497488E+02  0.10204755187E+03  0.00000000000E+00 0. -1.
         22    1    3    3    0    0 -0.68593572051E+02 -0.80274013903E+02  0.74944270228E+02  0.12948219598E+03  0.00000000000E+00 0. -1.
</event>
<event>
 7    1  0.6681656E-006  0.2675905E+02  0.7818608E-02  0.1676939E+00
          2   -1    0    0  502    0  0.00000000000E+00  0.00000000000E+00  0.25429289130E+03  0.25429289130E+03  0.00000000000E+00 0. -1.
          1   -1    0    0  501    0 -0.00000000000E+00 -0.00000000000E+00 -0.16075748033E+03  0.16075748033E+03  0.00000000000E+00 0. -1.
         25    2    1    2    0    0  0.17008572131E+02  0.24618305213E+02  0.12372864756E+03  0.17840823761E+03  0.12500147417E+03 0.  0.
          2    1    1    2  501    0 -0.21287562678E+02  0.21044753224E+01 -0.13075968834E+03  0.13249786880E+03  0.00000000000E+00 0. -1.
          1    1    1    2  502    0  0.42789905471E+01 -0.26722780536E+02  0.10056645175E+03  0.10414426522E+03  0.00000000000E+00 0. -1.
         22    1    3    3    0    0  0.65186788908E+02 -0.14021547776E+02  0.67677670464E+02  0.95006254161E+02  0.00000000000E+00 0.  1.
         22    1    3    3    0    0 -0.48178216778E+02  0.38639852989E+02  0.56050977093E+02  0.83401983453E+02  0.00000000000E+00 0.  1.
</event>
<event>
 7    1  0.6681656E-006  0.1420764E+03  0.7818608E-02  0.1241661E+00
          2   -1    0    0  502    0  0.00000000000E+00  0.00000000000E+00  0.62516378878E+03  0.62516378878E+03  0.00000000000E+00 0. -1.
          1   -1    0    0  501    0 -0.00000000000E+00 -0.00000000000E+00 -0.53568164870E+03  0.53568164870E+03  0.00000000000E+00 0. -1.
         25    2    1    2    0    0  0.13730214200E+03  0.22921770523E+02 -0.18173391012E+03  0.26082473889E+03  0.12500017826E+03 0.  0.
          2    1    1    2  501    0 -0.99875653199E+02 -0.11870654549E+03 -0.29030765293E+03  0.32915790039E+03  0.00000000000E+00 0. -1.
          1    1    1    2  502    0 -0.37426488797E+02  0.95784774970E+02  0.56152370313E+03  0.57086279819E+03  0.00000000000E+00 0. -1.
         22    1    3    3    0    0  0.97057209534E+02  0.70034216155E+02 -0.14778684496E+03  0.19017319711E+03  0.00000000000E+00 0. -1.
         22    1    3    3    0    0  0.40244932462E+02 -0.47112445632E+02 -0.33947065167E+02  0.70651541779E+02  0.00000000000E+00 0. -1.
</event>
<event>
 7    1  0.6681656E-006  0.5224916E+02  0.7818608E-02  0.1511440E+00
          2   -1    0    0  502    0  0.00000000000E+00  0.00000000000E+00  0.15733643827E+04  0.15733643827E+04  0.00000000000E+00 0. -1.
          1   -1    0    0  501    0 -0.00000000000E+00 -0.00000000000E+00 -0.31149445705E+03  0.31149445705E+03  0.00000000000E+00 0. -1.
         25    2    1    2    0    0 -0.60055491888E+02  0.51652573094E+02  0.16798350488E+03  0.22385661595E+03  0.12497470215E+03 0.  0.
          2    1    1    2  501    0  0.45158498193E+02 -0.25659298440E+02 -0.28101491574E+03  0.28577451325E+03  0.00000000000E+00 0. -1.
          1    1    1    2  502    0  0.14896993695E+02 -0.25993274654E+02  0.13749013365E+04  0.13752277106E+04  0.00000000000E+00 0. -1.
         22    1    3    3    0    0 -0.46564785989E+01 -0.39730627143E+02  0.34181806366E+02  0.52617501010E+02  0.00000000000E+00 0.  1.
         22    1    3    3    0    0 -0.55399013289E+02  0.91383200237E+02  0.13380169852E+03  0.17123911494E+03  0.00000000000E+00 0.  1.
</event>
<event>
 7    1  0.6681656E-006  0.1209146E+03  0.7818608E-02  0.1363422E+00
          2   -1    0    0  502    0  0.00000000000E+00  0.00000000000E+00  0.89546645674E+02  0.89546645674E+02  0.00000000000E+00 0. -1.
          1   -1    0    0  501    0 -0.00000000000E+00 -0.00000000000E+00 -0.16811840415E+04  0.16811840415E+04  0.00000000000E+00 0. -1.
         25    2    1    2    0    0  0.40006423397E+02 -0.12385316755E+03 -0.12581966779E+04  0.12710717205E+04  0.12499726905E+03 0.  0.
          2    1    1    2  501    0  0.30076090677E+02  0.25466310218E+02 -0.37105557519E+03  0.37314252513E+03  0.00000000000E+00 0. -1.
          1    1    1    2  502    0 -0.70082514074E+02  0.98386857336E+02  0.37614857340E+02  0.12651644149E+03  0.00000000000E+00 0. -1.
         22    1    3    3    0    0 -0.41044826393E+02 -0.12937177832E+02 -0.31261481157E+03  0.31556309790E+03  0.00000000000E+00 0.  1.
         22    1    3    3    0    0  0.81051249790E+02 -0.11091598972E+03 -0.94558186638E+03  0.95550862262E+03  0.00000000000E+00 0.  1.
</event>
<event>
 7    1  0.7876488E-006  0.1462122E+03  0.7818608E-02  0.1296217E+00
          2   -1    0    0  502    0  0.00000000000E+00  0.00000000000E+00  0.21115235525E+04  0.21115235525E+04  0.00000000000E+00 0. -1.
          1   -1    0    0  501    0 -0.00000000000E+00 -0.00000000000E+00 -0.13975426145E+04  0.13975426145E+04  0.00000000000E+00 0. -1.
         25    2    1    2    0    0  0.91350860765E+02  0.40615095110E+02 -0.17810716638E+03  0.23946082109E+03  0.12499902562E+03 0.  0.
          2    1    1    2  501    0 -0.14997435353E+03 -0.34959935837E+02 -0.11833518841E+04  0.11933298728E+04  0.00000000000E+00 0. -1.
          1    1    1    2  502    0  0.58623492762E+02 -0.56551592730E+01  0.20754399884E+04  0.20762754731E+04  0.00000000000E+00 0. -1.
         22    1    3    3    0    0 -0.74007577414E+01  0.58502046837E+02 -0.77191187935E+02  0.97137738259E+02  0.00000000000E+00 0.  1.
         22    1    3    3    0    0  0.98751618506E+02 -0.17886951726E+02 -0.10091597845E+03  0.14232308283E+03  0.00000000000E+00 0.  1.
</event>
<event>
 7    1  0.6681656E-006  0.5920919E+02  0.7818608E-02  0.1449977E+00
          2   -1    0    0  502    0  0.00000000000E+00  0.00000000000E+00  0.19167469811E+03  0.19167469811E+03  0.00000000000E+00 0. -1.
          1   -1    0    0  501    0 -0.00000000000E+00 -0.00000000000E+00 -0.12865257833E+04  0.12865257833E+04  0.00000000000E+00 0. -1.
         25    2    1    2    0    0 -0.85261827057E+02  0.18897043974E+02 -0.67339674912E+03  0.69044525224E+03  0.12499914879E+03 0.  0.
          2    1    1    2  501    0  0.55039056269E+02  0.85130565923E+01 -0.60102890999E+03  0.60360377773E+03  0.00000000000E+00 0. -1.
          1    1    1    2  502    0  0.30222770788E+02 -0.27410100566E+02  0.17957457389E+03  0.18415145146E+03  0.00000000000E+00 0. -1.
         22    1    3    3    0    0 -0.33772360357E+02  0.39012710268E+02 -0.57715864904E+03  0.57946067170E+03  0.00000000000E+00 0.  1.
         22    1    3    3    0    0 -0.51489466700E+02 -0.20115666294E+02 -0.96238100079E+02  0.11098458054E+03  0.00000000000E+00 0.  1.
</event>
<event>
 7    1  0.6681656E-006  0.6612576E+02  0.7818608E-02  0.1420994E+00
          2   -1    0    0  502    0  0.00000000000E+00  0.00000000000E+00  0.12955540018E+04  0.12955540018E+04  0.00000000000E+00 0. -1.
          1   -1    0    0  501    0 -0.00000000000E+00 -0.00000000000E+00 -0.51541325870E+02  0.51541325870E+02  0.00000000000E+00 0. -1.
         25    2    1    2    0    0 -0.15705484310E+02 -0.61970177308E+02  0.42908987597E+03  0.45147519026E+03  0.12499904259E+03 0.  0.
          2    1    1    2  501    0  0.45426878255E+02  0.73043602798E+00 -0.25732101964E+02  0.52213751793E+02  0.00000000000E+00 0. -1.
          1    1    1    2  502    0 -0.29721393945E+02  0.61239741280E+02  0.84065490194E+03  0.84340638563E+03  0.00000000000E+00 0. -1.
         22    1    3    3    0    0 -0.17395914590E+02  0.36788571336E+02  0.15001121921E+03  0.15543288814E+03  0.00000000000E+00 0.  1.
         22    1    3    3    0    0  0.16904302804E+01 -0.98758748644E+02  0.27907865676E+03  0.29604230212E+03  0.00000000000E+00 0.  1.
</event>
<event>
 7    1  0.6681656E-006  0.6867519E+02  0.7818608E-02  0.1499558E+00
          2   -1    0    0  502    0  0.00000000000E+00  0.00000000000E+00  0.23181725724E+03  0.23181725724E+03  0.00000000000E+00 0. -1.
          1   -1    0    0  501    0 -0.00000000000E+00 -0.00000000000E+00 -0.33654075419E+03  0.33654075419E+03  0.00000000000E+00 0. -1.
         25    2    1    2    0    0  0.42786232827E+02  0.36778498977E+02 -0.10394789632E+03  0.17208573418E+03  0.12500006021E+03 0.  0.
          2    1    1    2  501    0 -0.37361989271E+02 -0.60893632233E+02 -0.19127215170E+03  0.20417881552E+03  0.00000000000E+00 0. -1.
          1    1    1    2  502    0 -0.54242435562E+01  0.24115133256E+02  0.19049655108E+03  0.19209346174E+03  0.00000000000E+00 0. -1.
         22    1    3    3    0    0  0.10432851976E+02  0.27785977667E+02  0.25019371121E+02  0.38818473522E+02  0.00000000000E+00 0.  1.
         22    1    3    3    0    0  0.32353380851E+02  0.89925213095E+01 -0.12896726744E+03  0.13326726066E+03  0.00000000000E+00 0.  1.
</event>
<event>
 7    1  0.6681656E-006  0.2317614E+03  0.7818608E-02  0.1258898E+00
          2   -1    0    0  502    0  0.00000000000E+00  0.00000000000E+00  0.43016665187E+03  0.43016665187E+03  0.00000000000E+00 0. -1.
          1   -1    0    0  501    0 -0.00000000000E+00 -0.00000000000E+00 -0.13902782974E+04  0.13902782974E+04  0.00000000000E+00 0. -1.
         25    2    1    2    0    0 -0.19463412021E+03 -0.13568174147E+03  0.34332110527E+02  0.27035902611E+03  0.12499333369E+03 0.  0.
          2    1    1    2  501    0  0.15566531408E+03  0.17171338339E+03 -0.12590524171E+04  0.12802070789E+04  0.00000000000E+00 0. -1.
          1    1    1    2  502    0  0.38968806137E+02 -0.36031641923E+02  0.26460866101E+03  0.26987884422E+03  0.00000000000E+00 0. -1.
         22    1    3    3    0    0 -0.18841024936E+03 -0.69309605210E+02  0.16959784770E+02  0.20146929726E+03  0.00000000000E+00 0. -1.
         22    1    3    3    0    0 -0.62238708567E+01 -0.66372136257E+02  0.17372325756E+02  0.68889728857E+02  0.00000000000E+00 0. -1.
</event>
<event>
 7    1  0.6681656E-006  0.1692268E+03  0.7818608E-02  0.1266551E+00
          2   -1    0    0  502    0  0.00000000000E+00  0.00000000000E+00  0.20849026635E+04  0.20849026635E+04  0.00000000000E+00 0. -1.
          1   -1    0    0  501    0 -0.00000000000E+00 -0.00000000000E+00 -0.72046704243E+02  0.72046704243E+02  0.00000000000E+00 0. -1.
         25    2    1    2    0    0  0.58337575198E+02 -0.20692776485E+03  0.57939681265E+03  0.63051371054E+03  0.12499800050E+03 0.  0.
          2    1    1    2  501    0 -0.50031137486E+02  0.45226418771E+02 -0.14887650738E+02  0.69066531819E+02  0.00000000000E+00 0. -1.
          1    1    1    2  502    0 -0.83064377123E+01  0.16170134608E+03  0.14483467973E+04  0.14573691254E+04  0.00000000000E+00 0. -1.
         22    1    3    3    0    0 -0.38287331975E+01 -0.44849629889E+02  0.29377848133E+02  0.53751339146E+02  0.00000000000E+00 0. -1.
         22    1    3    3    0    0  0.62166308396E+02 -0.16207813496E+03  0.55001896452E+03  0.57676237140E+03  0.00000000000E+00 0. -1.
</event>
<event>
 7    1  0.6681656E-006  0.1896064E+03  0.7818608E-02  0.1162735E+00
          2   -1    0    0  502    0  0.00000000000E+00  0.00000000000E+00  0.24482047951E+03  0.24482047951E+03  0.00000000000E+00 0. -1.
          1   -1    0    0  501    0 -0.00000000000E+00 -0.00000000000E+00 -0.17958035930E+04  0.17958035930E+04  0.00000000000E+00 0. -1.
         25    2    1    2    0    0 -0.42666436454E+02  0.17415853097E+03  0.77479456701E+02  0.23190546071E+03  0.12500183113E+03 0.  0.
          2    1    1    2  501    0  0.17208913614E+03  0.56623640854E+02 -0.15065233782E+04  0.15173772097E+04  0.00000000000E+00 0. -1.
          1    1    1    2  502    0 -0.12942269969E+03 -0.23078217183E+03 -0.12193919199E+03  0.29134140209E+03  0.00000000000E+00 0. -1.
         22    1    3    3    0    0  0.55769614782E+01  0.79844042211E+02 -0.25661611587E+02  0.84051721488E+02  0.00000000000E+00 0.  1.
         22    1    3    3    0    0 -0.48243397932E+02  0.94314488763E+02  0.10314106829E+03  0.14785373922E+03  0.00000000000E+00 0.  1.
</event>
<event>
 7    1  0.6681656E-006  0.1327574E+03  0.7818608E-02  0.1292938E+00
          2   -1    0    0  502    0  0.00000000000E+00  0.00000000000E+00  0.92245084742E+03  0.92245084742E+03  0.00000000000E+00 0. -1.
          1   -1    0    0  501    0 -0.00000000000E+00 -0.00000000000E+00 -0.47728944861E+03  0.47728944861E+03  0.00000000000E+00 0. -1.
         25    2    1    2    0    0  0.11780985548E+03  0.13981578655E+02 -0.26594726933E+03  0.31690386095E+03  0.12500184172E+03 0.  0.
          2    1    1    2  501    0  0.45814416025E+01 -0.66714948906E+02 -0.17469869224E+03  0.18706016969E+03  0.00000000000E+00 0. -1.
          1    1    1    2  502    0 -0.12239129708E+03  0.52733370251E+02  0.88580736037E+03  0.89577626539E+03  0.00000000000E+00 0. -1.
         22    1    3    3    0    0  0.11325612918E+03  0.50094620878E+02 -0.14545059860E+03  0.19102957486E+03  0.00000000000E+00 0.  1.
         22    1    3    3    0    0  0.45537262942E+01 -0.36113042223E+02 -0.12049667073E+03  0.12587428609E+03  0.00000000000E+00 0.  1.
</event>
<event>
 7    1  0.6681656E-006  0.1105866E+03  0.7818608E-02  0.1304191E+00
          2   -1    0    0  502    0  0.00000000000E+00  0.00000000000E+00  0.34876242458E+03  0.34876242458E+03  0.00000000000E+00 0. -1.
          1   -1    0    0  501    0 -0.00000000000E+00 -0.00000000000E+00 -0.68466463670E+03  0.68466463670E+03  0.00000000000E+00 0. -1.
         25    2    1    2    0    0  0.69789667518E+01  0.16034716846E+03 -0.27151184790E+03  0.33926854416E+03  0.12499816437E+03 0.  0.
          2    1    1    2  501    0 -0.37343384003E+02 -0.94675533324E+02 -0.36812029918E+03  0.38193001925E+03  0.00000000000E+00 0. -1.
          1    1    1    2  502    0  0.30364417251E+02 -0.65671635134E+02  0.30372993496E+03  0.31222849788E+03  0.00000000000E+00 0. -1.
         22    1    3    3    0    0 -0.12560691183E+02 -0.17875995203E+02 -0.15790467930E+02  0.26956651219E+02  0.00000000000E+00 0. -1.
         22    1    3    3    0    0  0.19539657935E+02  0.17822316366E+03 -0.25572137997E+03  0.31231189294E+03  0.00000000000E+00 0. -1.
</event>
<event>
 7    1  0.6681656E-006  0.8371384E+02  0.7818608E-02  0.1475945E+00
          2   -1    0    0  502    0  0.00000000000E+00  0.00000000000E+00  0.10004177211E+04  0.10004177211E+04  0.00000000000E+00 0. -1.
          1   -1    0    0  501    0 -0.00000000000E+00 -0.00000000000E+00 -0.30414442941E+03  0.30414442941E+03  0.00000000000E+00 0. -1.
         25    2    1    2    0    0 -0.21168545231E+02 -0.10150190122E+03  0.43250685971E+02  0.16807026972E+03  0.12500500177E+03 0.  0.
          2    1    1    2  501    0 -0.63340957109E+01  0.23061267909E+02 -0.23920658302E+03  0.24039911024E+03  0.00000000000E+00 0. -1.
          1    1    1    2  502    0  0.27502640942E+02  0.78440633309E+02  0.89222918876E+03  0.89609277058E+03  0.00000000000E+00 0. -1.
         22    1    3    3    0    0  0.38668063078E+02 -0.94176236272E+02  0.32248376818E+02  0.10679110631E+03  0.00000000000E+00 0. -1.
         22    1    3    3    0    0 -0.59836608309E+02 -0.73256649469E+01  0.11002309153E+02  0.61279163404E+02  0.00000000000E+00 0. -1.
</event>
<event>
 7    1  0.6681656E-006  0.1010512E+03  0.7818608E-02  0.1288017E+00
          2   -1    0    0  502    0  0.00000000000E+00  0.00000000000E+00  0.10582566270E+04  0.10582566270E+04  0.00000000000E+00 0. -1.
          1   -1    0    0  501    0 -0.00000000000E+00 -0.00000000000E+00 -0.10684297908E+04  0.10684297908E+04  0.00000000000E+00 0. -1.
         25    2    1    2    0    0  0.74765349630E+01 -0.45921440861E+02 -0.51420049913E+01  0.13347514259E+03  0.12499798465E+03 0.  0.
          2    1    1    2  501    0 -0.90384408889E+02 -0.17136653133E+02 -0.99426331619E+03  0.99851016428E+03  0.00000000000E+00 0. -1.
          1    1    1    2  502    0  0.82907873925E+02  0.63058093995E+02  0.98923215739E+03  0.99470111088E+03  0.00000000000E+00 0. -1.
         22    1    3    3    0    0  0.31611762702E-01  0.38352920969E+02 -0.26005194516E+02  0.46338080322E+02  0.00000000000E+00 0.  1.
         22    1    3    3    0    0  0.74449232003E+01 -0.84274361830E+02  0.20863189524E+02  0.87137062266E+02  0.00000000000E+00 0.  1.
</event>
<event>
 7    1  0.6681656E-006  0.6076688E+02  0.7818608E-02  0.1509841E+00
          2   -1    0    0  502    0  0.00000000000E+00  0.00000000000E+00  0.28723750944E+03  0.28723750944E+03  0.00000000000E+00 0. -1.
          1   -1    0    0  501    0 -0.00000000000E+00 -0.00000000000E+00 -0.38399304930E+03  0.38399304930E+03  0.00000000000E+00 0. -1.
         25    2    1    2    0    0 -0.21068748778E+02  0.68577404609E+02  0.87427549956E+02  0.16856917973E+03  0.12500095706E+03 0.  0.
          2    1    1    2  501    0 -0.36931912259E+01 -0.60517815416E+02 -0.33965486461E+03  0.34502387265E+03  0.00000000000E+00 0. -1.
          1    1    1    2  502    0  0.24761940004E+02 -0.80595891936E+01  0.15547177480E+03  0.15763750635E+03  0.00000000000E+00 0. -1.
         22    1    3    3    0    0 -0.65424311041E+01  0.85430361940E+02  0.79643541637E+01  0.86049875556E+02  0.00000000000E+00 0.  1.
         22    1    3    3    0    0 -0.14526317674E+02 -0.16852957331E+02  0.79463195792E+02  0.82519304175E+02  0.00000000000E+00 0.  1.
</event>
<event>
 7    1  0.6681656E-006  0.1450513E+03  0.7818608E-02  0.1269827E+00
          2   -1    0    0  502    0  0.00000000000E+00  0.00000000000E+00  0.14172656543E+03  0.14172656543E+03  0.00000000000E+00 0. -1.
          1   -1    0    0  501    0 -0.00000000000E+00 -0.00000000000E+00 -0.20387148537E+04  0.20387148537E+04  0.00000000000E+00 0. -1.
         25    2    1    2    0    0 -0.17988271687E+03  0.12062462378E+03 -0.75838902078E+03  0.79855298811E+03  0.12499950516E+03 0.  0.
          2    1    1    2  501    0  0.68092665355E+02 -0.34253409396E+02 -0.12176313778E+04  0.12200147866E+04  0.00000000000E+00 0. -1.
          1    1    1    2  502    0  0.11179005151E+03 -0.86371214382E+02  0.79032110379E+02  0.16187364443E+03  0.00000000000E+00 0. -1.
         22    1    3    3    0    0 -0.15617369559E+03  0.12257697001E+03 -0.48401991205E+03  0.52315448200E+03  0.00000000000E+00 0. -1.
         22    1    3    3    0    0 -0.23709021280E+02 -0.19523462269E+01 -0.27436910872E+03  0.27539850611E+03  0.00000000000E+00 0. -1.
</event>
<event>
 7    1  0.6681656E-006  0.1304750E+03  0.7818608E-02  0.1398833E+00
          2   -1    0    0  502    0  0.00000000000E+00  0.00000000000E+00  0.20480205679E+03  0.20480205679E+03  0.00000000000E+00 0. -1.
          1   -1    0    0  501    0 -0.00000000000E+00 -0.00000000000E+00 -0.73734256421E+03  0.73734256421E+03  0.00000000000E+00 0. -1.
         25    2    1    2    0    0 -0.46073102122E+02  0.13626208686E+03 -0.12981213245E+03  0.23057914453E+03  0.12500186042E+03 0.  0.
          2    1    1    2  501    0  0.61059242056E+02 -0.11335584009E+03 -0.54841656772E+03  0.56332806541E+03  0.00000000000E+00 0. -1.
          1    1    1    2  502    0 -0.14986139934E+02 -0.22906246772E+02  0.14568819275E+03  0.14823741106E+03  0.00000000000E+00 0. -1.
         22    1    3    3    0    0  0.77989669490E+01  0.66596472025E+02 -0.12564306127E+03  0.14241521273E+03  0.00000000000E+00 0. -1.
         22    1    3    3    0    0 -0.53872069071E+02  0.69665614835E+02 -0.41690711804E+01  0.88163931803E+02  0.00000000000E+00 0. -1.
</event>
<event>
 7    1  0.6681656E-006  0.8019851E+02  0.7818608E-02  0.1436337E+00
          2   -1    0    0  502    0  0.00000000000E+00  0.00000000000E+00  0.11258099923E+04  0.11258099923E+04  0.00000000000E+00 0. -1.
          1   -1    0    0  501    0 -0.00000000000E+00 -0.00000000000E+00 -0.31540584474E+03  0.31540584474E+03  0.00000000000E+00 0. -1.
         25    2    1    2    0    0  0.29701284175E+02 -0.39740289542E+02  0.52443444139E+02  0.14435331398E+03  0.12500443004E+03 0.  0.
          2    1    1    2  501    0 -0.56284189671E+02  0.59862234013E+02 -0.26290841185E+03  0.27544914248E+03  0.00000000000E+00 0. -1.
          1    1    1    2  502    0  0.26582905495E+02 -0.20121944471E+02  0.10208691153E+04  0.10214133806E+04  0.00000000000E+00 0. -1.
         22    1    3    3    0    0 -0.39326148452E+02 -0.47040098654E+02  0.77604005763E+01  0.61802432400E+02  0.00000000000E+00 0.  1.
         22    1    3    3    0    0  0.69027432628E+02  0.72998091117E+01  0.44683043562E+02  0.82550881584E+02  0.00000000000E+00 0.  1.
</event>
<event>
 7    1  0.6681656E-006  0.6363788E+02  0.7818608E-02  0.1473464E+00
          2   -1    0    0  502    0  0.00000000000E+00  0.00000000000E+00  0.99172399329E+03  0.99172399329E+03  0.00000000000E+00 0. -1.
          1   -1    0    0  501    0 -0.00000000000E+00 -0.00000000000E+00 -0.33265306680E+02  0.33265306680E+02  0.00000000000E+00 0. -1.
         25    2    1    2    0    0  0.26933162788E+02 -0.45185973427E+02  0.71001809952E+03  0.72285401471E+03  0.12500022990E+03 0.  0.
          2    1    1    2  501    0 -0.14809790427E+01  0.64614995573E+02  0.14792328178E+02  0.66303121531E+02  0.00000000000E+00 0. -1.
          1    1    1    2  502    0 -0.25452183745E+02 -0.19429022147E+02  0.23364825891E+03  0.23583216373E+03  0.00000000000E+00 0. -1.
         22    1    3    3    0    0  0.69136861801E+02  0.30385624692E+01  0.43484631983E+03  0.44031858965E+03  0.00000000000E+00 0.  1.
         22    1    3    3    0    0 -0.42203699013E+02 -0.48224535896E+02  0.27517177970E+03  0.28253542506E+03  0.00000000000E+00 0.  1.
</event>
<event>
 7    1  0.1087755E-005  0.9327436E+02  0.7818608E-02  0.1332218E+00
          2   -1    0    0  502    0  0.00000000000E+00  0.00000000000E+00  0.27006708920E+04  0.27006708920E+04  0.00000000000E+00 0. -1.
          1   -1    0    0  501    0 -0.00000000000E+00 -0.00000000000E+00 -0.14359816685E+04  0.14359816685E+04  0.00000000000E+00 0. -1.
         25    2    1    2    0    0 -0.61941619355E+02  0.28506935496E+02 -0.11773138024E+03  0.18475393101E+03  0.12499571013E+03 0.  0.
          2    1    1    2  501    0  0.90087204455E+02  0.31999142365E+02 -0.12825422462E+04  0.12861004093E+04  0.00000000000E+00 0. -1.
          1    1    1    2  502    0 -0.28145585100E+02 -0.60506077861E+02  0.26649628499E+04  0.26657982202E+04  0.00000000000E+00 0. -1.
         22    1    3    3    0    0 -0.78554719049E+02  0.63122261393E+02 -0.10162046506E+03  0.14311527762E+03  0.00000000000E+00 0. -1.
         22    1    3    3    0    0  0.16613099694E+02 -0.34615325896E+02 -0.16110915183E+02  0.41638653393E+02  0.00000000000E+00 0. -1.
</event>
<event>
 7    1  0.6681656E-006  0.9615714E+02  0.7818608E-02  0.1332889E+00
          2   -1    0    0  502    0  0.00000000000E+00  0.00000000000E+00  0.17264866673E+04  0.17264866673E+04  0.00000000000E+00 0. -1.
          1   -1    0    0  501    0 -0.00000000000E+00 -0.00000000000E+00 -0.83263125923E+03  0.83263125923E+03  0.00000000000E+00 0. -1.
         25    2    1    2    0    0 -0.73726292719E+02 -0.16919705688E+02  0.65157459872E+02  0.15997571201E+03  0.12499956471E+03 0.  0.
          2    1    1    2  501    0  0.85436027636E+02 -0.46357427104E+02 -0.78156883234E+03  0.78759009996E+03  0.00000000000E+00 0. -1.
          1    1    1    2  502    0 -0.11709734917E+02  0.63277132792E+02  0.16102667805E+04  0.16115521145E+04  0.00000000000E+00 0. -1.
         22    1    3    3    0    0 -0.58646075333E+02 -0.57914482251E+02  0.10838398141E+01  0.82429509978E+02  0.00000000000E+00 0. -1.
         22    1    3    3    0    0 -0.15080217385E+02  0.40994776564E+02  0.64073620058E+02  0.77546202030E+02  0.00000000000E+00 0. -1.
</event>
<event>
 7    1  0.6681656E-006  0.7546380E+02  0.7818608E-02  0.1353972E+00
          2   -1    0    0  502    0  0.00000000000E+00  0.00000000000E+00  0.12872325535E+03  0.12872325535E+03  0.00000000000E+00 0. -1.
          1   -1    0    0  501    0 -0.00000000000E+00 -0.00000000000E+00 -0.12825137195E+04  0.12825137195E+04  0.00000000000E+00 0. -1.
         25    2    1    2    0    0 -0.52345851882E+02 -0.24437682875E+02  0.55667040778E+02  0.14852952344E+03  0.12499964540E+03 0.  0.
          2    1    1    2  501    0  0.70778449094E+01  0.75681164170E+02 -0.11888745019E+04  0.11913019415E+04  0.00000000000E+00 0. -1.
          1    1    1    2  502    0  0.45268006972E+02 -0.51243481295E+02 -0.20583002987E+02  0.71405509888E+02  0.00000000000E+00 0. -1.
         22    1    3    3    0    0 -0.32448259041E+02  0.60716605341E+01 -0.36626881547E+02  0.49308042228E+02  0.00000000000E+00 0. -1.
         22    1    3    3    0    0 -0.19897592840E+02 -0.30509343409E+02  0.92293922325E+02  0.99221481214E+02  0.00000000000E+00 0. -1.
</event>
<event>
 7    1  0.6681656E-006  0.5040106E+02  0.7818608E-02  0.1467003E+00
          2   -1    0    0  502    0  0.00000000000E+00  0.00000000000E+00  0.89045152777E+03  0.89045152777E+03  0.00000000000E+00 0. -1.
          1   -1    0    0  501    0 -0.00000000000E+00 -0.00000000000E+00 -0.67928734354E+02  0.67928734354E+02  0.00000000000E+00 0. -1.
         25    2    1    2    0    0  0.56016393662E+02 -0.98443967606E+01  0.22956178897E+03  0.26750504184E+03  0.12500233578E+03 0.  0.
          2    1    1    2  501    0 -0.41275286552E+02 -0.29850790894E+02 -0.34798018223E+02  0.61689716073E+02  0.00000000000E+00 0. -1.
          1    1    1    2  502    0 -0.14741107110E+02  0.39695187655E+02  0.62775902267E+03  0.62918550421E+03  0.00000000000E+00 0. -1.
         22    1    3    3    0    0  0.12279167789E+02 -0.52801397785E+02  0.18203470406E+03  0.18993524963E+03  0.00000000000E+00 0.  1.
         22    1    3    3    0    0  0.43737225874E+02  0.42957001024E+02  0.47527084906E+02  0.77569792211E+02  0.00000000000E+00 0.  1.
</event>
<event>
 7    1  0.6681656E-006  0.1149538E+03  0.7818608E-02  0.1342905E+00
          2   -1    0    0  502    0  0.00000000000E+00  0.00000000000E+00  0.23480554159E+04  0.23480554159E+04  0.00000000000E+00 0. -1.
          1   -1    0    0  501    0 -0.00000000000E+00 -0.00000000000E+00 -0.55184380609E+02  0.55184380609E+02  0.00000000000E+00 0. -1.
         25    2    1    2    0    0  0.73706188354E+02 -0.57367272117E+02  0.31211784338E+03  0.34894960249E+03  0.12499868323E+03 0.  0.
          2    1    1    2  501    0  0.40342049595E+02  0.28410330347E+02 -0.17666576216E+02  0.52409309776E+02  0.00000000000E+00 0. -1.
          1    1    1    2  502    0 -0.11404823795E+03  0.28956941770E+02  0.19984197681E+04  0.20018808843E+04  0.00000000000E+00 0. -1.
         22    1    3    3    0    0  0.42280257794E+02  0.32411474468E+02  0.16822619731E+03  0.17646012959E+03  0.00000000000E+00 0.  1.
         22    1    3    3    0    0  0.31425930559E+02 -0.89778746585E+02  0.14389164607E+03  0.17248947289E+03  0.00000000000E+00 0.  1.
</event>
<event>
 7    1  0.6681656E-006  0.1727733E+03  0.7818608E-02  0.1340388E+00
          2   -1    0    0  502    0  0.00000000000E+00  0.00000000000E+00  0.96658802531E+03  0.96658802531E+03  0.00000000000E+00 0. -1.
          1   -1    0    0  501    0 -0.00000000000E+00 -0.00000000000E+00 -0.11104419099E+04  0.11104419099E+04  0.00000000000E+00 0. -1.
         25    2    1    2    0    0 -0.35771451951E+02 -0.15984800250E+03 -0.61421285397E+02  0.21500714323E+03  0.12499806664E+03 0.  0.
          2    1    1    2  501    0 -0.33541576543E+02  0.80058407974E+00 -0.96347581075E+03  0.96405980945E+03  0.00000000000E+00 0. -1.
          1    1    1    2  502    0  0.69313028494E+02  0.15904741842E+03  0.88104321160E+03  0.89796298249E+03  0.00000000000E+00 0. -1.
         22    1    3    3    0    0  0.22146221070E+02 -0.14169676039E+03 -0.29462253831E+02  0.14641192375E+03  0.00000000000E+00 0. -1.
         22    1    3    3    0    0 -0.57917673021E+02 -0.18151242106E+02 -0.31959031566E+02  0.68595219489E+02  0.00000000000E+00 0. -1.
</event>
<event>
 7    1  0.6681656E-006  0.1508997E+03  0.7818608E-02  0.1337559E+00
          2   -1    0    0  502    0  0.00000000000E+00  0.00000000000E+00  0.57584912063E+03  0.57584912063E+03  0.00000000000E+00 0. -1.
          1   -1    0    0  501    0 -0.00000000000E+00 -0.00000000000E+00 -0.49207203805E+03  0.49207203805E+03  0.00000000000E+00 0. -1.
         25    2    1    2    0    0  0.91952010706E+02  0.67309675565E+02 -0.20946412531E+03  0.26923377204E+03  0.12500335803E+03 0.  0.
          2    1    1    2  501    0  0.25657692476E+02  0.29859694811E+02 -0.24043356221E+03  0.24363541695E+03  0.00000000000E+00 0. -1.
          1    1    1    2  502    0 -0.11760970318E+03 -0.97169370376E+02  0.53367477010E+03  0.55505196969E+03  0.00000000000E+00 0. -1.
         22    1    3    3    0    0  0.82544433928E+02  0.99156512123E+02 -0.19304381864E+03  0.23218852983E+03  0.00000000000E+00 0. -1.
         22    1    3    3    0    0  0.94075767785E+01 -0.31846836558E+02 -0.16420306667E+02  0.37045242213E+02  0.00000000000E+00 0. -1.
</event>
<event>
 7    1  0.6681656E-006  0.6211286E+02  0.7818608E-02  0.1446208E+00
          2   -1    0    0  502    0  0.00000000000E+00  0.00000000000E+00  0.44656172310E+03  0.44656172310E+03  0.00000000000E+00 0. -1.
          1   -1    0    0  501    0 -0.00000000000E+00 -0.00000000000E+00 -0.22942236702E+03  0.22942236702E+03  0.00000000000E+00 0. -1.
         25    2    1    2    0    0 -0.24870871439E+02 -0.47135407584E+01 -0.16219368282E+03  0.20633118798E+03  0.12499996269E+03 0.  0.
          2    1    1    2  501    0 -0.28430796450E+02 -0.28125097350E+02 -0.33457721387E+02  0.52141637951E+02  0.00000000000E+00 0. -1.
          1    1    1    2  502    0  0.53301667890E+02  0.32838638109E+02  0.41279076029E+03  0.41751126420E+03  0.00000000000E+00 0. -1.
         22    1    3    3    0    0 -0.57219223326E+02 -0.27867884179E+02 -0.34104039008E+02  0.72206259862E+02  0.00000000000E+00 0. -1.
         22    1    3    3    0    0  0.32348351886E+02  0.23154343420E+02 -0.12808964381E+03  0.13412492811E+03  0.00000000000E+00 0. -1.
</event>
<event>
 7    1  0.6681656E-006  0.7779187E+02  0.7818608E-02  0.1343350E+00
          2   -1    0    0  502    0  0.00000000000E+00  0.00000000000E+00  0.30828511565E+04  0.30828511565E+04  0.00000000000E+00 0. -1.
          1   -1    0    0  501    0 -0.00000000000E+00 -0.00000000000E+00 -0.34464486356E+03  0.34464486356E+03  0.00000000000E+00 0. -1.
         25    2    1    2    0    0 -0.42093628772E+02 -0.10556435895E+02  0.15974787181E+04  0.16029515501E+04  0.12502841860E+03 0.  0.
          2    1    1    2  501    0 -0.29318781893E+02 -0.66453251739E+02 -0.33616502993E+03  0.34392230662E+03  0.00000000000E+00 0. -1.
          1    1    1    2  502    0  0.71412410665E+02  0.77009687634E+02  0.14768926047E+04  0.14806221632E+04  0.00000000000E+00 0. -1.
         22    1    3    3    0    0  0.40858005453E+01 -0.61634081178E+02  0.62796940229E+03  0.63100001897E+03  0.00000000000E+00 0. -1.
         22    1    3    3    0    0 -0.46179429318E+02  0.51077645283E+02  0.96950931579E+03  0.97195153117E+03  0.00000000000E+00 0. -1.
</event>
<event>
 7    1  0.6681656E-006  0.1394660E+03  0.7818608E-02  0.1283180E+00
          2   -1    0    0  502    0  0.00000000000E+00  0.00000000000E+00  0.14319314527E+04  0.14319314527E+04  0.00000000000E+00 0. -1.
          1   -1    0    0  501    0 -0.00000000000E+00 -0.00000000000E+00 -0.15660373143E+03  0.15660373143E+03  0.00000000000E+00 0. -1.
         25    2    1    2    0    0 -0.13638674946E+03  0.12254673984E+03  0.27556262007E+03  0.35380480083E+03  0.12499612249E+03 0.  0.
          2    1    1    2  501    0  0.66816846324E+02 -0.11731057517E+03 -0.77192679785E+02  0.15551518193E+03  0.00000000000E+00 0. -1.
          1    1    1    2  502    0  0.69569903132E+02 -0.52361646753E+01  0.10769577810E+04  0.10792152014E+04  0.00000000000E+00 0. -1.
         22    1    3    3    0    0 -0.32199536098E+02  0.77566048287E+02  0.20147677284E+03  0.21828007689E+03  0.00000000000E+00 0.  1.
         22    1    3    3    0    0 -0.10418721336E+03  0.44980691554E+02  0.74085847228E+02  0.13552472394E+03  0.00000000000E+00 0.  1.
</event>
<event>
 7    1  0.8258852E-006  0.7138114E+02  0.7818608E-02  0.1500204E+00
          2   -1    0    0  502    0  0.00000000000E+00  0.00000000000E+00  0.15353456731E+04  0.15353456731E+04  0.00000000000E+00 0. -1.
          1   -1    0    0  501    0 -0.00000000000E+00 -0.00000000000E+00 -0.87233888405E+03  0.87233888405E+03  0.00000000000E+00 0. -1.
         25    2    1    2    0    0  0.16152927510E+01 -0.80163346804E+02 -0.11976916632E+03  0.19078318180E+03  0.12499919167E+03 0.  0.
          2    1    1    2  501    0 -0.20737787195E+02  0.11422122815E+02 -0.71601834967E+03  0.71640965779E+03  0.00000000000E+00 0. -1.
          1    1    1    2  502    0  0.19122494444E+02  0.68741223989E+02  0.14987943051E+04  0.15004917176E+04  0.00000000000E+00 0. -1.
         22    1    3    3    0    0  0.42699163140E+02 -0.58210095588E+01 -0.91708452832E+02  0.10132888535E+03  0.00000000000E+00 0.  1.
         22    1    3    3    0    0 -0.41083870389E+02 -0.74342337245E+02 -0.28060713488E+02  0.89454296457E+02  0.00000000000E+00 0.  1.
</event>
<event>
 7    1  0.6681656E-006  0.1400917E+03  0.7818608E-02  0.1341434E+00
          2   -1    0    0  502    0  0.00000000000E+00  0.00000000000E+00  0.16765378813E+03  0.16765378813E+03  0.00000000000E+00 0. -1.
          1   -1    0    0  501    0 -0.00000000000E+00 -0.00000000000E+00 -0.43740287141E+03  0.43740287141E+03  0.00000000000E+00 0. -1.
         25    2    1    2    0    0 -0.81908139354E+02 -0.10010231476E+03 -0.15190947500E+02  0.18051239636E+03  0.12499817454E+03 0.  0.
          2    1    1    2  501    0  0.20064764493E+02 -0.35761013968E+02 -0.27125508373E+03  0.27433695585E+03  0.00000000000E+00 0. -1.
          1    1    1    2  502    0  0.61843374861E+02  0.13586332873E+03  0.16696947953E+02  0.15020730734E+03  0.00000000000E+00 0. -1.
         22    1    3    3    0    0 -0.10267188674E+03 -0.31925382705E+02 -0.18801125756E+02  0.10915231888E+03  0.00000000000E+00 0. -1.
         22    1    3    3    0    0  0.20763747385E+02 -0.68176932058E+02  0.36101782559E+01  0.71360077476E+02  0.00000000000E+00 0. -1.
</event>
<event>
 7    1  0.6681656E-006  0.8268688E+02  0.7818608E-02  0.1401207E+00
          2   -1    0    0  502    0  0.00000000000E+00  0.00000000000E+00  0.27840930351E+04  0.27840930351E+04  0.00000000000E+00 0. -1.
          1   -1    0    0  501    0 -0.00000000000E+00 -0.00000000000E+00 -0.57745000643E+03  0.57745000643E+03  0.00000000000E+00 0. -1.
         25    2    1    2    0    0 -0.33476277139E+02  0.66847522260E+02 -0.30677801806E+03  0.33959772568E+03  0.12499844222E+03 0.  0.
          2    1    1    2  501    0  0.73088143407E+02 -0.51757176446E+02 -0.24620808206E+03  0.26199065192E+03  0.00000000000E+00 0. -1.
          1    1    1    2  502    0 -0.39611866268E+02 -0.15090345814E+02  0.27596291287E+04  0.27599546639E+04  0.00000000000E+00 0. -1.
         22    1    3    3    0    0  0.43347661285E+02  0.28758258454E+02 -0.66187770677E+02  0.84183597900E+02  0.00000000000E+00 0. -1.
         22    1    3    3    0    0 -0.76823938424E+02  0.38089263806E+02 -0.24059024738E+03  0.25541412778E+03  0.00000000000E+00 0. -1.
</event>
<event>
 7    1  0.6681656E-006  0.7645058E+02  0.7818608E-02  0.1341123E+00
          2   -1    0    0  502    0  0.00000000000E+00  0.00000000000E+00  0.17716075141E+04  0.17716075141E+04  0.00000000000E+00 0. -1.
          1   -1    0    0  501    0 -0.00000000000E+00 -0.00000000000E+00 -0.10786690521E+04  0.10786690521E+04  0.00000000000E+00 0. -1.
         25    2    1    2    0    0 -0.26226423673E+01 -0.13565527122E+02  0.55039094820E+03  0.56457677099E+03  0.12500333079E+03 0.  0.
          2    1    1    2  501    0 -0.71315117726E+02  0.28047930909E+02 -0.10690343983E+04  0.10717775316E+04  0.00000000000E+00 0. -1.
          1    1    1    2  502    0  0.73937760093E+02 -0.14482403787E+02  0.12115819121E+04  0.12139222636E+04  0.00000000000E+00 0. -1.
         22    1    3    3    0    0 -0.26610272047E+02  0.49847839102E+02  0.29348757297E+03  0.29887768256E+03  0.00000000000E+00 0. -1.
         22    1    3    3    0    0  0.23987629680E+02 -0.63413366224E+02  0.25690337523E+03  0.26569908844E+03  0.00000000000E+00 0. -1.
</event>
<event>
 7    1  0.6681656E-006  0.3242545E+02  0.7818608E-02  0.1584555E+00
          2   -1    0    0  502    0  0.00000000000E+00  0.00000000000E+00  0.66707927864E+03  0.66707927864E+03  0.00000000000E+00 0. -1.
          1   -1    0    0  501    0 -0.00000000000E+00 -0.00000000000E+00 -0.75894125374E+03  0.75894125374E+03  0.00000000000E+00 0. -1.
         25    2    1    2    0    0 -0.12432035691E+02 -0.35396534902E+02 -0.49262853281E+03  0.50962251488E+03  0.12499906454E+03 0.  0.
          2    1    1    2  501    0  0.31143093213E+02  0.11770041438E+02 -0.25639410046E+03  0.25854663192E+03  0.00000000000E+00 0. -1.
          1    1    1    2  502    0 -0.18711057522E+02  0.23626493465E+02  0.65716065817E+03  0.65785138558E+03  0.00000000000E+00 0. -1.
         22    1    3    3    0    0 -0.13054816590E+02  0.24271879732E+02 -0.38950668370E+03  0.39048048482E+03  0.00000000000E+00 0.  1.
         22    1    3    3    0    0  0.62278089921E+00 -0.59668414635E+02 -0.10312184912E+03  0.11914203006E+03  0.00000000000E+00 0.  1.
</event>
<event>
 7    1  0.6681656E-006  0.3717108E+02  0.7818608E-02  0.1541841E+00
          2   -1    0    0  502    0  0.00000000000E+00  0.00000000000E+00  0.28501619161E+02  0.28501619161E+02  0.00000000000E+00 0. -1.
          1   -1    0    0  501    0 -0.00000000000E+00 -0.00000000000E+00 -0.16019603203E+04  0.16019603203E+04  0.00000000000E+00 0. -1.
         25    2    1    2    0    0 -0.21631482474E+02  0.29644871601E+02 -0.45441321106E+03  0.47271933915E+03  0.12500187111E+03 0.  0.
          2    1    1    2  501    0 -0.12265349472E+02 -0.35666546045E+02 -0.11225079182E+04  0.11231413837E+04  0.00000000000E+00 0. -1.
          1    1    1    2  502    0  0.33896831946E+02  0.60216744435E+01  0.34624281798E+01  0.34601216568E+02  0.00000000000E+00 0. -1.
         22    1    3    3    0    0 -0.18622326400E+02 -0.30664731748E+01 -0.43321065719E+03  0.43362157211E+03  0.00000000000E+00 0.  1.
         22    1    3    3    0    0 -0.30091560741E+01  0.32711344776E+02 -0.21202553870E+02  0.39097767045E+02  0.00000000000E+00 0.  1.
</event>
<event>
 7    1  0.6681656E-006  0.3402568E+02  0.7818608E-02  0.1591350E+00
          2   -1    0    0  502    0  0.00000000000E+00  0.00000000000E+00  0.13991859925E+04  0.13991859925E+04  0.00000000000E+00 0. -1.
          1   -1    0    0  501    0 -0.00000000000E+00 -0.00000000000E+00 -0.39369605249E+03  0.39369605249E+03  0.00000000000E+00 0. -1.
         25    2    1    2    0    0 -0.27553717771E+02  0.49620456157E+02  0.47228861479E+03  0.49183632720E+03  0.12500016021E+03 0.  0.
          2    1    1    2  501    0  0.25721340667E+01 -0.27432305818E+02 -0.38312298371E+03  0.38411244178E+03  0.00000000000E+00 0. -1.
          1    1    1    2  502    0  0.24981583705E+02 -0.22188150339E+02  0.91632430888E+03  0.91693327598E+03  0.00000000000E+00 0. -1.
         22    1    3    3    0    0 -0.52593641895E+02  0.80980809098E+02  0.31201631072E+03  0.32661622857E+03  0.00000000000E+00 0.  1.
         22    1    3    3    0    0  0.25039924124E+02 -0.31360352941E+02  0.16027230407E+03  0.16522009863E+03  0.00000000000E+00 0.  1.
</event>
<event>
 7    1  0.6681656E-006  0.4865628E+02  0.7818608E-02  0.1500026E+00
          2   -1    0    0  502    0  0.00000000000E+00  0.00000000000E+00  0.27852083636E+03  0.27852083636E+03  0.00000000000E+00 0. -1.
          1   -1    0    0  501    0 -0.00000000000E+00 -0.00000000000E+00 -0.10876767826E+04  0.10876767826E+04  0.00000000000E+00 0. -1.
         25    2    1    2    0    0  0.25305611954E+02  0.51293706409E+02 -0.13830680865E+03  0.19499985683E+03  0.12499901011E+03 0.  0.
          2    1    1    2  501    0  0.18284232521E+02 -0.29580456095E+02 -0.91832133943E+03  0.91897954221E+03  0.00000000000E+00 0. -1.
          1    1    1    2  502    0 -0.43589844474E+02 -0.21713250314E+02  0.24747220184E+03  0.25221821993E+03  0.00000000000E+00 0. -1.
         22    1    3    3    0    0 -0.49210752893E+02  0.76886284832E+01 -0.37965619801E+02  0.62627481948E+02  0.00000000000E+00 0. -1.
         22    1    3    3    0    0  0.74516364846E+02  0.43605077926E+02 -0.10034118885E+03  0.13237237488E+03  0.00000000000E+00 0. -1.
</event>
<event>
 7    1  0.6681656E-006  0.5704324E+02  0.7818608E-02  0.1530814E+00
          2   -1    0    0  502    0  0.00000000000E+00  0.00000000000E+00  0.20315216946E+03  0.20315216946E+03  0.00000000000E+00 0. -1.
          1   -1    0    0  501    0 -0.00000000000E+00 -0.00000000000E+00 -0.16692478793E+04  0.16692478793E+04  0.00000000000E+00 0. -1.
         25    2    1    2    0    0 -0.71958116025E+02  0.76632423913E+01  0.87099060616E+02  0.16866495644E+03  0.12499970170E+03 0.  0.
          2    1    1    2  501    0  0.56030922069E+02  0.10439661272E+02 -0.16260217295E+04  0.16270203181E+04  0.00000000000E+00 0. -1.
          1    1    1    2  502    0  0.15927193955E+02 -0.18102903664E+02  0.72826959012E+02  0.76714774244E+02  0.00000000000E+00 0. -1.
         22    1    3    3    0    0 -0.10354812740E+03 -0.13885469459E+02  0.74816465358E+02  0.12850106785E+03  0.00000000000E+00 0.  1.
         22    1    3    3    0    0  0.31590011370E+02  0.21548711851E+02  0.12282595259E+02  0.40163888595E+02  0.00000000000E+00 0.  1.
</event>
<event>
 7    1  0.6681656E-006  0.6334591E+02  0.7818608E-02  0.1399108E+00
          2   -1    0    0  502    0  0.00000000000E+00  0.00000000000E+00  0.15066764250E+04  0.15066764250E+04  0.00000000000E+00 0. -1.
          1   -1    0    0  501    0 -0.00000000000E+00 -0.00000000000E+00 -0.12441480962E+02  0.12441480962E+02  0.00000000000E+00 0. -1.
         25    2    1    2    0    0 -0.76968255301E+01 -0.31079153484E+01  0.51978910864E+03  0.53467259697E+03  0.12500067289E+03 0.  0.
          2    1    1    2  501    0 -0.10655214405E+02 -0.62443338259E+02  0.30257143128E+03  0.30913132342E+03  0.00000000000E+00 0. -1.
          1    1    1    2  502    0  0.18352039935E+02  0.65551253608E+02  0.67187440415E+03  0.67531398562E+03  0.00000000000E+00 0. -1.
         22    1    3    3    0    0 -0.48486840406E+02 -0.30982032975E+02  0.41324120654E+03  0.41722794111E+03  0.00000000000E+00 0.  1.
         22    1    3    3    0    0  0.40790014875E+02  0.27874117627E+02  0.10654790210E+03  0.11744465585E+03  0.00000000000E+00 0.  1.
</event>
<event>
 7    1  0.6681656E-006  0.7302461E+02  0.7818608E-02  0.1384701E+00
          2   -1    0    0  502    0  0.00000000000E+00  0.00000000000E+00  0.10046492289E+04  0.10046492289E+04  0.00000000000E+00 0. -1.
          1   -1    0    0  501    0 -0.00000000000E+00 -0.00000000000E+00 -0.81448561353E+03  0.81448561353E+03  0.00000000000E+00 0. -1.
         25    2    1    2    0    0  0.12120756374E+02  0.16211478895E+02  0.13498985345E+02  0.12734497498E+03  0.12499918106E+03 0.  0.
          2    1    1    2  501    0  0.43848545246E+02  0.32824249546E+02 -0.75508731914E+03  0.75707132148E+03  0.00000000000E+00 0. -1.
          1    1    1    2  502    0 -0.55969301620E+02 -0.49035728442E+02  0.93175194921E+03  0.93471854600E+03  0.00000000000E+00 0. -1.
         22    1    3    3    0    0  0.64790203927E+02  0.20273726061E+02  0.26609013003E+02  0.72916624073E+02  0.00000000000E+00 0. -1.
         22    1    3    3    0    0 -0.52669447553E+02 -0.40622471656E+01 -0.13110027658E+02  0.54428350910E+02  0.00000000000E+00 0. -1.
</event>
<event>
 7    1  0.6681656E-006  0.5777443E+02  0.7818608E-02  0.1483043E+00
          2   -1    0    0  502    0  0.00000000000E+00  0.00000000000E+00  0.21599795939E+04  0.21599795939E+04  0.00000000000E+00 0. -1.
          1   -1    0    0  501    0 -0.00000000000E+00 -0.00000000000E+00 -0.68517847740E+02  0.68517847740E+02  0.00000000000E+00 0. -1.
         25    2    1    2    0    0  0.15215907717E+02 -0.73004790691E+02  0.15873282038E+04  0.15939869961E+04  0.12498997425E+03 0.  0.
          2    1    1    2  501    0 -0.25373034790E+02  0.21032792732E+02 -0.59701484343E+02  0.68194108963E+02  0.00000000000E+00 0. -1.
          1    1    1    2  502    0  0.10157127072E+02  0.51971997960E+02  0.56383502671E+03  0.56631633664E+03  0.00000000000E+00 0. -1.
         22    1    3    3    0    0 -0.17152998155E+02  0.25689208943E+02  0.68578209664E+03  0.68647741760E+03  0.00000000000E+00 0. -1.
         22    1    3    3    0    0  0.32368905873E+02 -0.98693999634E+02  0.90154610720E+03  0.90750957848E+03  0.00000000000E+00 0. -1.
</event>
<event>
 7    1  0.6681656E-006  0.5584847E+02  0.7818608E-02  0.1447393E+00
          2   -1    0    0  502    0  0.00000000000E+00  0.00000000000E+00  0.10444355612E+04  0.10444355612E+04  0.00000000000E+00 0. -1.
          1   -1    0    0  501    0 -0.00000000000E+00 -0.00000000000E+00 -0.15603339094E+03  0.15603339094E+03  0.00000000000E+00 0. -1.
         25    2    1    2    0    0 -0.17712015154E+02 -0.12711417407E+02  0.11180954362E+03  0.16912211422E+03  0.12500247941E+03 0.  0.
          2    1    1    2  501    0  0.12028604178E+02  0.56432564088E+02 -0.12027331225E+03  0.13339786823E+03  0.00000000000E+00 0. -1.
          1    1    1    2  502    0  0.56834109755E+01 -0.43721146681E+02  0.89686593888E+03  0.89794896968E+03  0.00000000000E+00 0. -1.
         22    1    3    3    0    0  0.18807901621E+02  0.23077488621E+02 -0.14309866052E+02  0.33031498768E+02  0.00000000000E+00 0. -1.
         22    1    3    3    0    0 -0.36519916775E+02 -0.35788906028E+02  0.12611940968E+03  0.13609061545E+03  0.00000000000E+00 0. -1.
</event>
<event>
 7    1  0.6681656E-006  0.4743396E+02  0.7818608E-02  0.1490150E+00
          2   -1    0    0  502    0  0.00000000000E+00  0.00000000000E+00  0.30873219655E+04  0.30873219655E+04  0.00000000000E+00 0. -1.
          1   -1    0    0  501    0 -0.00000000000E+00 -0.00000000000E+00 -0.39584492153E+02  0.39584492153E+02  0.00000000000E+00 0. -1.
         25    2    1    2    0    0  0.35055837565E+02 -0.65091934643E+02  0.21285804065E+03  0.25768170824E+03  0.12500178235E+03 0.  0.
          2    1    1    2  501    0  0.36898995610E+01  0.38014941240E+02  0.45081064884E+01  0.38458732953E+02  0.00000000000E+00 0. -1.
          1    1    1    2  502    0 -0.38745737126E+02  0.27076993403E+02  0.28303713262E+04  0.28307660164E+04  0.00000000000E+00 0. -1.
         22    1    3    3    0    0  0.57265855727E+02 -0.36626733404E+02  0.21083238831E+03  0.22152018372E+03  0.00000000000E+00 0. -1.
         22    1    3    3    0    0 -0.22210018162E+02 -0.28465201240E+02  0.20256523341E+01  0.36161524522E+02  0.00000000000E+00 0. -1.
</event>
<event>
 7    1  0.6681656E-006  0.7852759E+02  0.7818608E-02  0.1379193E+00
          2   -1    0    0  502    0  0.00000000000E+00  0.00000000000E+00  0.12062881231E+04  0.12062881231E+04  0.00000000000E+00 0. -1.
          1   -1    0    0  501    0 -0.00000000000E+00 -0.00000000000E+00 -0.78858340500E+03  0.78858340500E+03  0.00000000000E+00 0. -1.
         25    2    1    2    0    0  0.10053555628E+03 -0.84422494385E+02 -0.24756880978E+03  0.30683964705E+03  0.12500279112E+03 0.  0.
          2    1    1    2  501    0 -0.43320847388E+02  0.30996899204E+02 -0.50868494957E+03  0.51146640310E+03  0.00000000000E+00 0. -1.
          1    1    1    2  502    0 -0.57214708888E+02  0.53425595180E+02  0.11739584774E+04  0.11765654780E+04  0.00000000000E+00 0. -1.
         22    1    3    3    0    0  0.67366945381E+01  0.30591956709E+02 -0.59719411990E+02  0.67436333211E+02  0.00000000000E+00 0. -1.
         22    1    3    3    0    0  0.93798861738E+02 -0.11501445109E+03 -0.18784939779E+03  0.23940331384E+03  0.00000000000E+00 0. -1.
</event>
<event>
 7    1  0.6681656E-006  0.8643662E+02  0.7818608E-02  0.1472999E+00
          2   -1    0    0  502    0  0.00000000000E+00  0.00000000000E+00  0.88156681728E+03  0.88156681728E+03  0.00000000000E+00 0. -1.
          1   -1    0    0  501    0 -0.00000000000E+00 -0.00000000000E+00 -0.83800469737E+02  0.83800469737E+02  0.00000000000E+00 0. -1.
         25    2    1    2    0    0  0.72135579968E+02  0.45009099160E+02  0.11836536489E+03  0.19199695334E+03  0.12499243809E+03 0.  0.
          2    1    1    2  501    0  0.11179240985E+02 -0.20844160328E+02 -0.41232149385E+02  0.47534667261E+02  0.00000000000E+00 0. -1.
          1    1    1    2  502    0 -0.83314820953E+02 -0.24164938832E+02  0.72063313203E+03  0.72583566642E+03  0.00000000000E+00 0. -1.
         22    1    3    3    0    0 -0.27962966543E+02  0.29589860344E+02  0.67092910654E+02  0.78478952549E+02  0.00000000000E+00 0.  1.
         22    1    3    3    0    0  0.10009854651E+03  0.15419238816E+02  0.51272454237E+02  0.11351800079E+03  0.00000000000E+00 0.  1.
</event>
<event>
 7    1  0.6681656E-006  0.7727550E+02  0.7818608E-02  0.1360030E+00
          2   -1    0    0  502    0  0.00000000000E+00  0.00000000000E+00  0.27330577007E+03  0.27330577007E+03  0.00000000000E+00 0. -1.
          1   -1    0    0  501    0 -0.00000000000E+00 -0.00000000000E+00 -0.23181629032E+03  0.23181629032E+03  0.00000000000E+00 0. -1.
         25    2    1    2    0    0  0.74034140225E+02  0.10692791699E+03  0.19739406835E+02  0.18146357069E+03  0.12499899982E+03 0.  0.
          2    1    1    2  501    0 -0.56571047883E+02 -0.45935741033E+02 -0.13563272108E+03  0.15396951254E+03  0.00000000000E+00 0. -1.
          1    1    1    2  502    0 -0.17463092341E+02 -0.60992175952E+02  0.15738279400E+03  0.16968897716E+03  0.00000000000E+00 0. -1.
         22    1    3    3    0    0 -0.30954811087E+02  0.25104959689E+02  0.27029136878E+02  0.48156345074E+02  0.00000000000E+00 0.  1.
         22    1    3    3    0    0  0.10498895131E+03  0.81822957296E+02 -0.72897300435E+01  0.13330722562E+03  0.00000000000E+00 0.  1.
</event>
<event>
 7    1  0.6681656E-006  0.3287232E+02  0.7818608E-02  0.1638828E+00
          2   -1    0    0  502    0  0.00000000000E+00  0.00000000000E+00  0.12376234371E+04  0.12376234371E+04  0.00000000000E+00 0. -1.
          1   -1    0    0  501    0 -0.00000000000E+00 -0.00000000000E+00 -0.13660224861E+03  0.13660224861E+03  0.00000000000E+00 0. -1.
         25    2    1    2    0    0  0.35178236931E+02 -0.10284998872E+02  0.44489861781E+03  0.46357688029E+03  0.12500181699E+03 0.  0.
          2    1    1    2  501    0 -0.31040462673E+02 -0.10863384407E+02 -0.12498745379E+03  0.12924158405E+03  0.00000000000E+00 0. -1.
          1    1    1    2  502    0 -0.41377742583E+01  0.21148383279E+02  0.78111002448E+03  0.78140722139E+03  0.00000000000E+00 0. -1.
         22    1    3    3    0    0  0.66776490229E+01  0.51704997245E+02  0.10909325194E+03  0.12091044353E+03  0.00000000000E+00 0. -1.
         22    1    3    3    0    0  0.28500587908E+02 -0.61989996116E+02  0.33580536587E+03  0.34266643676E+03  0.00000000000E+00 0. -1.
</event>
<event>
 7    1  0.6681656E-006  0.1233643E+03  0.7818608E-02  0.1358840E+00
          2   -1    0    0  502    0  0.00000000000E+00  0.00000000000E+00  0.18988102630E+04  0.18988102630E+04  0.00000000000E+00 0. -1.
          1   -1    0    0  501    0 -0.00000000000E+00 -0.00000000000E+00 -0.26876515905E+03  0.26876515905E+03  0.00000000000E+00 0. -1.
         25    2    1    2    0    0 -0.40904810485E+02 -0.15572639454E+03  0.56774231392E+03  0.60322503847E+03  0.12500079414E+03 0.  0.
          2    1    1    2  501    0  0.40304916020E+02  0.11559037558E+03 -0.23577058260E+03  0.26565652411E+03  0.00000000000E+00 0. -1.
          1    1    1    2  502    0  0.59989446541E+00  0.40136018964E+02  0.12980733726E+04  0.12986938595E+04  0.00000000000E+00 0. -1.
         22    1    3    3    0    0 -0.87895976598E+01  0.91754256792E+01  0.17503601761E+01  0.12826114929E+02  0.00000000000E+00 0. -1.
         22    1    3    3    0    0 -0.32115212825E+02 -0.16490182022E+03  0.56599195375E+03  0.59039892354E+03  0.00000000000E+00 0. -1.
</event>
<event>
 7    1  0.6681656E-006  0.1177744E+03  0.7818608E-02  0.1355388E+00
          2   -1    0    0  502    0  0.00000000000E+00  0.00000000000E+00  0.23388158875E+04  0.23388158875E+04  0.00000000000E+00 0. -1.
          1   -1    0    0  501    0 -0.00000000000E+00 -0.00000000000E+00 -0.15205490281E+03  0.15205490281E+03  0.00000000000E+00 0. -1.
         25    2    1    2    0    0 -0.91274443138E+02  0.46940102098E+02  0.10342521383E+04  0.10468226464E+04  0.12500308107E+03 0.  0.
          2    1    1    2  501    0  0.17647057308E+01  0.43252659063E+02 -0.13936846564E+03  0.14593654757E+03  0.00000000000E+00 0. -1.
          1    1    1    2  502    0  0.89509737407E+02 -0.90192761161E+02  0.12918773120E+04  0.12981115963E+04  0.00000000000E+00 0. -1.
         22    1    3    3    0    0 -0.13724776358E+02  0.69844604730E+02  0.66623806484E+03  0.67002969885E+03  0.00000000000E+00 0. -1.
         22    1    3    3    0    0 -0.77549666780E+02 -0.22904502632E+02  0.36801407347E+03  0.37679294756E+03  0.00000000000E+00 0. -1.
</event>
<event>
 7    1  0.6681656E-006  0.2158353E+03  0.7818608E-02  0.1165846E+00
          2   -1    0    0  502    0  0.00000000000E+00  0.00000000000E+00  0.75323031762E+03  0.75323031762E+03  0.00000000000E+00 0. -1.
          1   -1    0    0  501    0 -0.00000000000E+00 -0.00000000000E+00 -0.14965208107E+04  0.14965208107E+04  0.00000000000E+00 0. -1.
         25    2    1    2    0    0 -0.27188562205E+03 -0.31812140781E+02 -0.14569464776E+03  0.33434365561E+03  0.12499978353E+03 0.  0.
          2    1    1    2  501    0  0.81091890718E+02  0.13036894541E+03 -0.12341206373E+04  0.12436340716E+04  0.00000000000E+00 0. -1.
          1    1    1    2  502    0  0.19079373133E+03 -0.98556804625E+02  0.63652479196E+03  0.67177340111E+03  0.00000000000E+00 0. -1.
         22    1    3    3    0    0 -0.15170594658E+03 -0.60433199820E+02 -0.13213083931E+03  0.21006052596E+03  0.00000000000E+00 0.  1.
         22    1    3    3    0    0 -0.12017967547E+03  0.28621059039E+02 -0.13563808448E+02  0.12428312965E+03  0.00000000000E+00 0.  1.
</event>
<event>
 7    1  0.6681656E-006  0.9975138E+02  0.7818608E-02  0.1415895E+00
          2   -1    0    0  502    0  0.00000000000E+00  0.00000000000E+00  0.74485438303E+03  0.74485438303E+03  0.00000000000E+00 0. -1.
          1   -1    0    0  501    0 -0.00000000000E+00 -0.00000000000E+00 -0.66456080985E+03  0.66456080985E+03  0.00000000000E+00 0. -1.
         25    2    1    2    0    0  0.67402638385E+02  0.89282030035E+02 -0.26639931446E+02  0.16984850878E+03  0.12499773374E+03 0.  0.
          2    1    1    2  501    0 -0.78940342640E+02 -0.60159420711E+02 -0.56159843442E+03  0.57030126700E+03  0.00000000000E+00 0. -1.
          1    1    1    2  502    0  0.11537704255E+02 -0.29122609324E+02  0.66853193904E+03  0.66926541709E+03  0.00000000000E+00 0. -1.
         22    1    3    3    0    0  0.37700769469E+02  0.19064035526E+02  0.47453777283E+02  0.63534608266E+02  0.00000000000E+00 0. -1.
         22    1    3    3    0    0  0.29701868916E+02  0.70217994509E+02 -0.74093708729E+02  0.10631390052E+03  0.00000000000E+00 0. -1.
</event>
<event>
 7    1  0.6681656E-006  0.7329915E+02  0.7818608E-02  0.1407141E+00
          2   -1    0    0  502    0  0.00000000000E+00  0.00000000000E+00  0.11185275022E+03  0.11185275022E+03  0.00000000000E+00 0. -1.
          1   -1    0    0  501    0 -0.00000000000E+00 -0.00000000000E+00 -0.28164302069E+03  0.28164302069E+03  0.00000000000E+00 0. -1.
         25    2    1    2    0    0  0.41958050607E+01  0.34576435105E+02 -0.99336498849E+02  0.16341374774E+03  0.12499271299E+03 0.  0.
          2    1    1    2  501    0 -0.88403970787E+01  0.44771768692E+02 -0.12540593890E+03  0.13345153953E+03  0.00000000000E+00 0. -1.
          1    1    1    2  502    0  0.46445920180E+01 -0.79348203797E+02  0.54952167281E+02  0.96630483646E+02  0.00000000000E+00 0. -1.
         22    1    3    3    0    0  0.45287949891E+02  0.61091384369E+02 -0.81212575458E+02  0.11125932798E+03  0.00000000000E+00 0. -1.
         22    1    3    3    0    0 -0.41092144830E+02 -0.26514949264E+02 -0.18123923391E+02  0.52154419758E+02  0.00000000000E+00 0. -1.
</event>
<event>
 7    1  0.6681656E-006  0.6096107E+02  0.7818608E-02  0.1395150E+00
          2   -1    0    0  502    0  0.00000000000E+00  0.00000000000E+00  0.10322504796E+03  0.10322504796E+03  0.00000000000E+00 0. -1.
          1   -1    0    0  501    0 -0.00000000000E+00 -0.00000000000E+00 -0.10198600695E+04  0.10198600695E+04  0.00000000000E+00 0. -1.
         25    2    1    2    0    0  0.40413508033E+02  0.29475429103E+02 -0.69072741361E+02  0.15131912781E+03  0.12499752913E+03 0.  0.
          2    1    1    2  501    0  0.18994659457E+02 -0.57926286069E+02 -0.89085810330E+03  0.89294143813E+03  0.00000000000E+00 0. -1.
          1    1    1    2  502    0 -0.59408167490E+02  0.28450856966E+02  0.43295823110E+02  0.78824551539E+02  0.00000000000E+00 0. -1.
         22    1    3    3    0    0  0.19765279190E+02  0.76636330314E+02 -0.23489720310E+02  0.82556407055E+02  0.00000000000E+00 0. -1.
         22    1    3    3    0    0  0.20648228843E+02 -0.47160901211E+02 -0.45583021051E+02  0.68762720755E+02  0.00000000000E+00 0. -1.
</event>
<event>
 7    1  0.6681656E-006  0.1405360E+03  0.7818608E-02  0.1263377E+00
          2   -1    0    0  502    0  0.00000000000E+00  0.00000000000E+00  0.40478868603E+03  0.40478868603E+03  0.00000000000E+00 0. -1.
          1   -1    0    0  501    0 -0.00000000000E+00 -0.00000000000E+00 -0.68929668194E+03  0.68929668194E+03  0.00000000000E+00 0. -1.
         25    2    1    2    0    0 -0.21622549562E+03 -0.20315801084E+02 -0.65794184877E+02  0.25907580202E+03  0.12500079881E+03 0.  0.
          2    1    1    2  501    0  0.83707013039E+02  0.30848314917E+01 -0.50878609023E+03  0.51563520616E+03  0.00000000000E+00 0. -1.
          1    1    1    2  502    0  0.13251848258E+03  0.17230969592E+02  0.29007227919E+03  0.31937435979E+03  0.00000000000E+00 0. -1.
         22    1    3    3    0    0 -0.22513851669E+03 -0.11357694395E+02 -0.80790664792E+02  0.23946498792E+03  0.00000000000E+00 0.  1.
         22    1    3    3    0    0  0.89130210747E+01 -0.89581066893E+01  0.14996479915E+02  0.19610814108E+02  0.00000000000E+00 0.  1.
</event>
<event>
 7    1  0.6681656E-006  0.1004112E+03  0.7818608E-02  0.1446867E+00
          2   -1    0    0  502    0  0.00000000000E+00  0.00000000000E+00  0.64114322407E+02  0.64114322407E+02  0.00000000000E+00 0. -1.
          1   -1    0    0  501    0 -0.00000000000E+00 -0.00000000000E+00 -0.27614727435E+04  0.27614727435E+04  0.00000000000E+00 0. -1.
         25    2    1    2    0    0 -0.42389325829E+02 -0.11688332264E+03 -0.23146534387E+04  0.23213583296E+04  0.12500154789E+03 0.  0.
          2    1    1    2  501    0  0.52510991263E+01  0.24051190923E+02 -0.40170128182E+03  0.40245490883E+03  0.00000000000E+00 0. -1.
          1    1    1    2  502    0  0.37138226703E+02  0.92832131720E+02  0.18996299462E+02  0.10177382746E+03  0.00000000000E+00 0. -1.
         22    1    3    3    0    0 -0.51972463667E+02 -0.11838024541E+03 -0.23008963833E+04  0.23045258051E+04  0.00000000000E+00 0.  1.
         22    1    3    3    0    0  0.95831378378E+01  0.14969227641E+01 -0.13757055389E+02  0.16832524515E+02  0.00000000000E+00 0.  1.
</event>
<event>
 7    1  0.6681656E-006  0.1508502E+03  0.7818608E-02  0.1331009E+00
          2   -1    0    0  502    0  0.00000000000E+00  0.00000000000E+00  0.11997745009E+04  0.11997745009E+04  0.00000000000E+00 0. -1.
          1   -1    0    0  501    0 -0.00000000000E+00 -0.00000000000E+00 -0.46482735099E+02  0.46482735099E+02  0.00000000000E+00 0. -1.
         25    2    1    2    0    0  0.74342214847E+02  0.96118916274E+02  0.36189051105E+03  0.40169021948E+03  0.12499871786E+03 0.  0.
          2    1    1    2  501    0  0.25149395026E+02  0.33264898282E+02  0.56964778381E+01  0.42089136219E+02  0.00000000000E+00 0. -1.
          1    1    1    2  502    0 -0.99491609873E+02 -0.12938381456E+03  0.78570477693E+03  0.80247788031E+03  0.00000000000E+00 0. -1.
         22    1    3    3    0    0  0.45635874234E+02  0.62169578752E+02  0.34597797017E+03  0.35446924462E+03  0.00000000000E+00 0.  1.
         22    1    3    3    0    0  0.28706340613E+02  0.33949337523E+02  0.15912540880E+02  0.47220974862E+02  0.00000000000E+00 0.  1.
</event>
<event>
 7    1  0.6681656E-006  0.1793330E+03  0.7818608E-02  0.1287639E+00
          2   -1    0    0  502    0  0.00000000000E+00  0.00000000000E+00  0.44928059312E+03  0.44928059312E+03  0.00000000000E+00 0. -1.
          1   -1    0    0  501    0 -0.00000000000E+00 -0.00000000000E+00 -0.59572426777E+03  0.59572426777E+03  0.00000000000E+00 0. -1.
         25    2    1    2    0    0 -0.39508315553E+02 -0.16767104634E+03 -0.21338709707E+03  0.30138589777E+03  0.12499967760E+03 0.  0.
          2    1    1    2  501    0 -0.92486741162E+01  0.18581020056E+03 -0.31084560001E+03  0.36226503509E+03  0.00000000000E+00 0. -1.
          1    1    1    2  502    0  0.48756989669E+02 -0.18139154219E+02  0.37778902243E+03  0.38135392803E+03  0.00000000000E+00 0. -1.
         22    1    3    3    0    0 -0.12476963793E+02 -0.17604869220E+03 -0.20763236814E+03  0.27250691175E+03  0.00000000000E+00 0.  1.
         22    1    3    3    0    0 -0.27031351760E+02  0.83776458663E+01 -0.57547289257E+01  0.28878986015E+02  0.00000000000E+00 0.  1.
</event>
<event>
 7    1  0.6681656E-006  0.1250612E+03  0.7818608E-02  0.1307842E+00
          2   -1    0    0  502    0  0.00000000000E+00  0.00000000000E+00  0.17090143758E+04  0.17090143758E+04  0.00000000000E+00 0. -1.
          1   -1    0    0  501    0 -0.00000000000E+00 -0.00000000000E+00 -0.45653497257E+03  0.45653497257E+03  0.00000000000E+00 0. -1.
         25    2    1    2    0    0  0.50075895016E+02  0.81090126729E+02  0.89839334911E+02  0.18105101450E+03  0.12500063936E+03 0.  0.
          2    1    1    2  501    0 -0.93381412260E+01 -0.12766881338E+03 -0.40033282801E+03  0.42030096356E+03  0.00000000000E+00 0. -1.
          1    1    1    2  502    0 -0.40737753790E+02  0.46578686648E+02  0.15629728964E+04  0.15641973704E+04  0.00000000000E+00 0. -1.
         22    1    3    3    0    0 -0.31946621575E+02  0.38981257843E+02  0.70798402674E+02  0.86905344567E+02  0.00000000000E+00 0.  1.
         22    1    3    3    0    0  0.82022516591E+02  0.42108868887E+02  0.19040932237E+02  0.94145669934E+02  0.00000000000E+00 0.  1.
</event>
<event>
 7    1  0.6681656E-006  0.6861350E+02  0.7818608E-02  0.1395303E+00
          2   -1    0    0  502    0  0.00000000000E+00  0.00000000000E+00  0.12203332181E+04  0.12203332181E+04  0.00000000000E+00 0. -1.
          1   -1    0    0  501    0 -0.00000000000E+00 -0.00000000000E+00 -0.73521714678E+02  0.73521714678E+02  0.00000000000E+00 0. -1.
         25    2    1    2    0    0  0.45576587127E+02 -0.35430606515E+02  0.13670568505E+03  0.19402429931E+03  0.12499772488E+03 0.  0.
          2    1    1    2  501    0 -0.72775895911E+02 -0.10679197508E+02 -0.13535607627E+02  0.74790299898E+02  0.00000000000E+00 0. -1.
          1    1    1    2  502    0  0.27199308784E+02  0.46109804022E+02  0.10236414260E+04  0.10250403336E+04  0.00000000000E+00 0. -1.
         22    1    3    3    0    0 -0.17731128519E+02  0.19238816510E+01  0.11640847108E+03  0.11776683055E+03  0.00000000000E+00 0. -1.
         22    1    3    3    0    0  0.63307715645E+02 -0.37354488166E+02  0.20297213970E+02  0.76257468757E+02  0.00000000000E+00 0. -1.
</event>
<event>
 7    1  0.6681656E-006  0.6590499E+02  0.7818608E-02  0.1522796E+00
          2   -1    0    0  502    0  0.00000000000E+00  0.00000000000E+00  0.13310338122E+03  0.13310338122E+03  0.00000000000E+00 0. -1.
          1   -1    0    0  501    0 -0.00000000000E+00 -0.00000000000E+00 -0.18173978701E+03  0.18173978701E+03  0.00000000000E+00 0. -1.
         25    2    1    2    0    0 -0.13588942644E+02  0.69488839427E+02 -0.88877739878E+02  0.16891920769E+03  0.12498435067E+03 0.  0.
          2    1    1    2  501    0  0.21597470105E+02 -0.42336641252E+01 -0.37886169429E+02  0.43814797282E+02  0.00000000000E+00 0. -1.
          1    1    1    2  502    0 -0.80085274608E+01 -0.65255175302E+02  0.78127503515E+02  0.10210916326E+03  0.00000000000E+00 0. -1.
         22    1    3    3    0    0  0.34840166569E+02 -0.20741036839E+02 -0.17904342070E+02  0.44323732703E+02  0.00000000000E+00 0. -1.
         22    1    3    3    0    0 -0.48429109214E+02  0.90229876266E+02 -0.70973397808E+02  0.12459547498E+03  0.00000000000E+00 0. -1.
</event>
<event>
 7    1  0.1719719E-005  0.4889999E+02  0.7818608E-02  0.1492969E+00
          2   -1    0    0  502    0  0.00000000000E+00  0.00000000000E+00  0.23349490619E+04  0.23349490619E+04  0.00000000000E+00 0. -1.
          1   -1    0    0  501    0 -0.00000000000E+00 -0.00000000000E+00 -0.15318461886E+04  0.15318461886E+04  0.00000000000E+00 0. -1.
         25    2    1    2    0    0  0.15856737607E+02 -0.29001767199E+02 -0.23359949875E+03  0.26699452340E+03  0.12499924432E+03 0.  0.
          2    1    1    2  501    0 -0.48111228056E+02  0.12283697193E+02 -0.12809257861E+04  0.12818878458E+04  0.00000000000E+00 0. -1.
          1    1    1    2  502    0  0.32254490449E+02  0.16718070006E+02  0.23176281582E+04  0.23179128814E+04  0.00000000000E+00 0. -1.
         22    1    3    3    0    0 -0.31820509952E+02 -0.62382207378E+02 -0.11036701328E+03  0.13070945746E+03  0.00000000000E+00 0.  1.
         22    1    3    3    0    0  0.47677247559E+02  0.33380440179E+02 -0.12323248548E+03  0.13628506594E+03  0.00000000000E+00 0.  1.
</event>
<event>
 7    1  0.6681656E-006  0.1910513E+03  0.7818608E-02  0.1356165E+00
          2   -1    0    0  502    0  0.00000000000E+00  0.00000000000E+00  0.21016366544E+04  0.21016366544E+04  0.00000000000E+00 0. -1.
          1   -1    0    0  501    0 -0.00000000000E+00 -0.00000000000E+00 -0.88026538610E+02  0.88026538610E+02  0.00000000000E+00 0. -1.
         25    2    1    2    0    0  0.11970705784E+03 -0.13009513080E+03  0.35866654298E+03  0.41895191250E+03  0.12499797269E+03 0.  0.
          2    1    1    2  501    0 -0.12027639593E+03  0.15659985936E+03  0.11095888789E+03  0.22649901142E+03  0.00000000000E+00 0. -1.
          1    1    1    2  502    0  0.56933808667E+00 -0.26504728569E+02  0.15439846849E+04  0.15442122690E+04  0.00000000000E+00 0. -1.
         22    1    3    3    0    0 -0.86378182770E+01 -0.77140505110E+02  0.13307903085E+03  0.15406264273E+03  0.00000000000E+00 0. -1.
         22    1    3    3    0    0  0.12834487612E+03 -0.52954625686E+02  0.22558751214E+03  0.26488926977E+03  0.00000000000E+00 0. -1.
</event>
<event>
 7    1  0.6681656E-006  0.6370282E+02  0.7818608E-02  0.1420129E+00
          2   -1    0    0  502    0  0.00000000000E+00  0.00000000000E+00  0.13021481413E+03  0.13021481413E+03  0.00000000000E+00 0. -1.
          1   -1    0    0  501    0 -0.00000000000E+00 -0.00000000000E+00 -0.62865418786E+03  0.62865418786E+03  0.00000000000E+00 0. -1.
         25    2    1    2    0    0  0.11293788045E+02  0.68389224827E+02 -0.19560014522E+03  0.24225613749E+03  0.12499593442E+03 0.  0.
          2    1    1    2  501    0 -0.50129553255E+02 -0.41082358509E+02 -0.40172571248E+03  0.40692048407E+03  0.00000000000E+00 0. -1.
          1    1    1    2  502    0  0.38835765210E+02 -0.27306866318E+02  0.98886483982E+02  0.10969238042E+03  0.00000000000E+00 0. -1.
         22    1    3    3    0    0 -0.48320892669E+02  0.56196565727E+02 -0.66671491427E+02  0.99689770975E+02  0.00000000000E+00 0.  1.
         22    1    3    3    0    0  0.59614680714E+02  0.12192659100E+02 -0.12892865380E+03  0.14256636652E+03  0.00000000000E+00 0.  1.
</event>
<event>
 7    1  0.6681656E-006  0.3478306E+02  0.7818608E-02  0.1584706E+00
          2   -1    0    0  502    0  0.00000000000E+00  0.00000000000E+00  0.37311256134E+03  0.37311256134E+03  0.00000000000E+00 0. -1.
          1   -1    0    0  501    0 -0.00000000000E+00 -0.00000000000E+00 -0.14009081932E+04  0.14009081932E+04  0.00000000000E+00 0. -1.
         25    2    1    2    0    0 -0.24906635031E+02 -0.55401892281E+02 -0.61152511674E+03  0.62711840103E+03  0.12499924148E+03 0.  0.
          2    1    1    2  501    0  0.18298054204E+02  0.21285514114E+02 -0.78050717103E+03  0.78101173866E+03  0.00000000000E+00 0. -1.
          1    1    1    2  502    0  0.66085808267E+01  0.34116378167E+02  0.36423665585E+03  0.36589061489E+03  0.00000000000E+00 0. -1.
         22    1    3    3    0    0 -0.17875381534E+02  0.21110831933E+02 -0.41776583353E+03  0.41868065175E+03  0.00000000000E+00 0.  1.
         22    1    3    3    0    0 -0.70312534967E+01 -0.76512724214E+02 -0.19375928321E+03  0.20843774927E+03  0.00000000000E+00 0.  1.
</event>
<event>
 7    1  0.6681656E-006  0.1322771E+03  0.7818608E-02  0.1229303E+00
          2   -1    0    0  502    0  0.00000000000E+00  0.00000000000E+00  0.11614535849E+04  0.11614535849E+04  0.00000000000E+00 0. -1.
          1   -1    0    0  501    0 -0.00000000000E+00 -0.00000000000E+00 -0.19514764729E+03  0.19514764729E+03  0.00000000000E+00 0. -1.
         25    2    1    2    0    0  0.38067426505E+02  0.44932733334E+02  0.29612350315E+03  0.32677520647E+03  0.12499930784E+03 0.  0.
          2    1    1    2  501    0  0.76986995486E+02 -0.11019922567E+03 -0.14862649207E+03  0.20040134969E+03  0.00000000000E+00 0. -1.
          1    1    1    2  502    0 -0.11505442199E+03  0.65266492332E+02  0.81880892650E+03  0.82942467600E+03  0.00000000000E+00 0. -1.
         22    1    3    3    0    0  0.47803634717E+02  0.56128061326E+02  0.30196118848E+03  0.31083131456E+03  0.00000000000E+00 0.  1.
         22    1    3    3    0    0 -0.97362082122E+01 -0.11195327992E+02 -0.58376853342E+01  0.15943891911E+02  0.00000000000E+00 0.  1.
</event>
<event>
 7    1  0.6681656E-006  0.4008894E+02  0.7818608E-02  0.1561304E+00
          2   -1    0    0  502    0  0.00000000000E+00  0.00000000000E+00  0.43137364322E+03  0.43137364322E+03  0.00000000000E+00 0. -1.
          1   -1    0    0  501    0 -0.00000000000E+00 -0.00000000000E+00 -0.40175584348E+03  0.40175584348E+03  0.00000000000E+00 0. -1.
         25    2    1    2    0    0 -0.34007741626E+02  0.53980690541E+02 -0.17778561200E+03  0.22650162445E+03  0.12499928241E+03 0.  0.
          2    1    1    2  501    0  0.27823662781E+02 -0.26489772643E+02 -0.19726934063E+03  0.20097526469E+03  0.00000000000E+00 0. -1.
          1    1    1    2  502    0  0.61840788455E+01 -0.27490917898E+02  0.40467275237E+03  0.40565259756E+03  0.00000000000E+00 0. -1.
         22    1    3    3    0    0  0.43048875433E+02  0.45769976434E+02 -0.81147651131E+02  0.10263058853E+03  0.00000000000E+00 0. -1.
         22    1    3    3    0    0 -0.77056617059E+02  0.82107141070E+01 -0.96637960865E+02  0.12387103592E+03  0.00000000000E+00 0. -1.
</event>
<event>
 7    1  0.6681656E-006  0.7311882E+02  0.7818608E-02  0.1406935E+00
          2   -1    0    0  502    0  0.00000000000E+00  0.00000000000E+00  0.12981462369E+04  0.12981462369E+04  0.00000000000E+00 0. -1.
          1   -1    0    0  501    0 -0.00000000000E+00 -0.00000000000E+00 -0.78385201342E+02  0.78385201342E+02  0.00000000000E+00 0. -1.
         25    2    1    2    0    0 -0.39374516719E+02 -0.52918115676E+01  0.11445064294E+03  0.17407725412E+03  0.12500233956E+03 0.  0.
          2    1    1    2  501    0  0.80030544802E+02 -0.15845791778E+02 -0.13510531680E+02  0.82695294211E+02  0.00000000000E+00 0. -1.
          1    1    1    2  502    0 -0.40656028083E+02  0.21137603346E+02  0.11188209243E+04  0.11197588899E+04  0.00000000000E+00 0. -1.
         22    1    3    3    0    0 -0.45170051509E+02  0.19811879638E+02  0.13331399376E+03  0.14214592875E+03  0.00000000000E+00 0.  1.
         22    1    3    3    0    0  0.57955347899E+01 -0.25103691205E+02 -0.18863350819E+02  0.31931325368E+02  0.00000000000E+00 0.  1.
</event>
<event>
 7    1  0.6681656E-006  0.6247482E+02  0.7818608E-02  0.1522781E+00
          2   -1    0    0  502    0  0.00000000000E+00  0.00000000000E+00  0.33449233420E+03  0.33449233420E+03  0.00000000000E+00 0. -1.
          1   -1    0    0  501    0 -0.00000000000E+00 -0.00000000000E+00 -0.85709414902E+03  0.85709414902E+03  0.00000000000E+00 0. -1.
         25    2    1    2    0    0  0.81971115050E+02 -0.11387077172E+02  0.29669875090E+03  0.33242035753E+03  0.12499686432E+03 0.  0.
          2    1    1    2  501    0 -0.62393434252E+02 -0.10967756324E+01 -0.83087975057E+03  0.83321984102E+03  0.00000000000E+00 0. -1.
          1    1    1    2  502    0 -0.19577680798E+02  0.12483852805E+02  0.11579184858E+02  0.25946284672E+02  0.00000000000E+00 0. -1.
         22    1    3    3    0    0  0.19468227172E+02 -0.25765058111E+02  0.25243773852E+03  0.25449491531E+03  0.00000000000E+00 0. -1.
         22    1    3    3    0    0  0.62502887878E+02  0.14377980938E+02  0.44261012375E+02  0.77925442222E+02  0.00000000000E+00 0. -1.
</event>
<event>
 7    1  0.6681656E-006  0.1740734E+03  0.7818608E-02  0.1203203E+00
          2   -1    0    0  502    0  0.00000000000E+00  0.00000000000E+00  0.15334800253E+04  0.15334800253E+04  0.00000000000E+00 0. -1.
          1   -1    0    0  501    0 -0.00000000000E+00 -0.00000000000E+00 -0.13696224876E+04  0.13696224876E+04  0.00000000000E+00 0. -1.
         25    2    1    2    0    0 -0.12334713483E+03 -0.18222008219E+03  0.97047999898E+03  0.10029329769E+04  0.12499781467E+03 0.  0.
          2    1    1    2  501    0 -0.18769485583E+01  0.17402300477E+03 -0.13404956450E+04  0.13517455764E+04  0.00000000000E+00 0. -1.
          1    1    1    2  502    0  0.12522408339E+03  0.81970774135E+01  0.53387318368E+03  0.54842395954E+03  0.00000000000E+00 0. -1.
         22    1    3    3    0    0 -0.55453791652E+02 -0.11091172635E+03  0.76612343954E+03  0.77609384656E+03  0.00000000000E+00 0. -1.
         22    1    3    3    0    0 -0.67893343178E+02 -0.71308355836E+02  0.20435655943E+03  0.22683913032E+03  0.00000000000E+00 0. -1.
</event>
<event>
 7    1  0.6681656E-006  0.8965523E+02  0.7818608E-02  0.1453586E+00
          2   -1    0    0  502    0  0.00000000000E+00  0.00000000000E+00  0.37158601598E+03  0.37158601598E+03  0.00000000000E+00 0. -1.
          1   -1    0    0  501    0 -0.00000000000E+00 -0.00000000000E+00 -0.23122476924E+03  0.23122476924E+03  0.00000000000E+00 0. -1.
         25    2    1    2    0    0  0.35270638435E+02 -0.81644452888E+02  0.32694438211E+03  0.36114699911E+03  0.12499876539E+03 0.  0.
          2    1    1    2  501    0 -0.58000575591E+02  0.68533582612E+02 -0.19452766378E+03  0.21424735866E+03  0.00000000000E+00 0. -1.
          1    1    1    2  502    0  0.22729937156E+02  0.13110870276E+02  0.79445284136E+01  0.27416427452E+02  0.00000000000E+00 0. -1.
         22    1    3    3    0    0  0.18135804798E+02 -0.11472451492E+03  0.24615799084E+03  0.27218445620E+03  0.00000000000E+00 0. -1.
         22    1    3    3    0    0  0.17134833638E+02  0.33080062027E+02  0.80786391268E+02  0.88962542914E+02  0.00000000000E+00 0. -1.
</event>
<event>
 7    1  0.6681656E-006  0.3797272E+02  0.7818608E-02  0.1529940E+00
          2   -1    0    0  502    0  0.00000000000E+00  0.00000000000E+00  0.12170640510E+04  0.12170640510E+04  0.00000000000E+00 0. -1.
          1   -1    0    0  501    0 -0.00000000000E+00 -0.00000000000E+00 -0.18202530560E+04  0.18202530560E+04  0.00000000000E+00 0. -1.
         25    2    1    2    0    0  0.32236094060E+02 -0.48591038549E+02 -0.18217499846E+03  0.22852526221E+03  0.12504323498E+03 0.  0.
          2    1    1    2  501    0  0.36610530919E+01  0.36246332691E+02 -0.16143956297E+04  0.16148066290E+04  0.00000000000E+00 0. -1.
          1    1    1    2  502    0 -0.35897147152E+02  0.12344705858E+02  0.11933816232E+04  0.11939852158E+04  0.00000000000E+00 0. -1.
         22    1    3    3    0    0  0.11384366175E+02  0.41162313772E+02 -0.81745808293E+02  0.92229697179E+02  0.00000000000E+00 0.  1.
         22    1    3    3    0    0  0.20851727885E+02 -0.89753352321E+02 -0.10042919017E+03  0.13629556503E+03  0.00000000000E+00 0.  1.
</event>
<event>
 7    1  0.6681656E-006  0.3566419E+02  0.7818608E-02  0.1584490E+00
          2   -1    0    0  502    0  0.00000000000E+00  0.00000000000E+00  0.31035976644E+03  0.31035976644E+03  0.00000000000E+00 0. -1.
          1   -1    0    0  501    0 -0.00000000000E+00 -0.00000000000E+00 -0.11252564447E+03  0.11252564447E+03  0.00000000000E+00 0. -1.
         25    2    1    2    0    0 -0.14315365539E+02  0.64325545236E+01  0.54187931671E+02  0.13714238459E+03  0.12500157704E+03 0.  0.
          2    1    1    2  501    0  0.14656317188E+02 -0.33842703454E+02 -0.65306184907E+02  0.75000226651E+02  0.00000000000E+00 0. -1.
          1    1    1    2  502    0 -0.34095164896E+00  0.27410148930E+02  0.20895237520E+03  0.21074279968E+03  0.00000000000E+00 0. -1.
         22    1    3    3    0    0 -0.11171852697E+02  0.55232207292E+02  0.66051732337E+02  0.86823028971E+02  0.00000000000E+00 0.  1.
         22    1    3    3    0    0 -0.31435128418E+01 -0.48799652769E+02 -0.11863800666E+02  0.50319355615E+02  0.00000000000E+00 0.  1.
</event>
<event>
 7    1  0.6681656E-006  0.3384391E+02  0.7818608E-02  0.1642174E+00
          2   -1    0    0  502    0  0.00000000000E+00  0.00000000000E+00  0.56673059179E+03  0.56673059179E+03  0.00000000000E+00 0. -1.
          1   -1    0    0  501    0 -0.00000000000E+00 -0.00000000000E+00 -0.49795763024E+02  0.49795763024E+02  0.00000000000E+00 0. -1.
         25    2    1    2    0    0  0.86559260880E+01 -0.26867428242E+02  0.12200963213E+03  0.17694047977E+03  0.12499919716E+03 0.  0.
          2    1    1    2  501    0 -0.28170979236E+02  0.20478077567E+02 -0.83286643111E+01  0.35809529195E+02  0.00000000000E+00 0. -1.
          1    1    1    2  502    0  0.19515053148E+02  0.63893506747E+01  0.40325386094E+03  0.40377634585E+03  0.00000000000E+00 0. -1.
         22    1    3    3    0    0  0.41427990073E+02 -0.62689346126E+02  0.95842353410E+02  0.12178665439E+03  0.00000000000E+00 0.  1.
         22    1    3    3    0    0 -0.32772063985E+02  0.35821917884E+02  0.26167278725E+02  0.55153825385E+02  0.00000000000E+00 0.  1.
</event>
<event>
 7    1  0.6681656E-006  0.6403844E+02  0.7818608E-02  0.1420209E+00
          2   -1    0    0  502    0  0.00000000000E+00  0.00000000000E+00  0.13896417791E+03  0.13896417791E+03  0.00000000000E+00 0. -1.
          1   -1    0    0  501    0 -0.00000000000E+00 -0.00000000000E+00 -0.48795417598E+03  0.48795417598E+03  0.00000000000E+00 0. -1.
         25    2    1    2    0    0 -0.34261878376E+01  0.45967953863E+02 -0.80995437630E+02  0.15591637257E+03  0.12499945109E+03 0.  0.
          2    1    1    2  501    0  0.50547229758E+02 -0.43287292689E+02 -0.36079917195E+03  0.36688534262E+03  0.00000000000E+00 0. -1.
          1    1    1    2  502    0 -0.47121041921E+02 -0.26806611738E+01  0.92804611515E+02  0.10411663870E+03  0.00000000000E+00 0. -1.
         22    1    3    3    0    0  0.56732839001E+02  0.32708006617E+02 -0.65005124428E+02  0.92271853345E+02  0.00000000000E+00 0. -1.
         22    1    3    3    0    0 -0.60159026838E+02  0.13259947246E+02 -0.15990313203E+02  0.63644519225E+02  0.00000000000E+00 0. -1.
</event>
<event>
 7    1  0.6681656E-006  0.6221032E+02  0.7818608E-02  0.1426824E+00
          2   -1    0    0  502    0  0.00000000000E+00  0.00000000000E+00  0.82045736872E+02  0.82045736872E+02  0.00000000000E+00 0. -1.
          1   -1    0    0  501    0 -0.00000000000E+00 -0.00000000000E+00 -0.87548148119E+03  0.87548148119E+03  0.00000000000E+00 0. -1.
         25    2    1    2    0    0  0.62371591249E+02  0.66103690379E+02 -0.15984741506E+03  0.22234059275E+03  0.12499691920E+03 0.  0.
          2    1    1    2  501    0 -0.16729059834E+02 -0.59036085022E+02 -0.67219495057E+03  0.67498975722E+03  0.00000000000E+00 0. -1.
          1    1    1    2  502    0 -0.45642531415E+02 -0.70676053564E+01  0.38606621308E+02  0.60196868093E+02  0.00000000000E+00 0. -1.
         22    1    3    3    0    0  0.56330276980E+02 -0.25831795322E+02 -0.72594392730E+02  0.95448036177E+02  0.00000000000E+00 0.  1.
         22    1    3    3    0    0  0.60413142684E+01  0.91935485701E+02 -0.87253022330E+02  0.12689255658E+03  0.00000000000E+00 0.  1.
</event>
<event>
 7    1  0.6681656E-006  0.8826579E+02  0.7818608E-02  0.1454766E+00
          2   -1    0    0  502    0  0.00000000000E+00  0.00000000000E+00  0.48749180748E+03  0.48749180748E+03  0.00000000000E+00 0. -1.
          1   -1    0    0  501    0 -0.00000000000E+00 -0.00000000000E+00 -0.35023266495E+03  0.35023266495E+03  0.00000000000E+00 0. -1.
         25    2    1    2    0    0  0.57250069223E+02 -0.30777830874E+02  0.15813750048E+02  0.14177423687E+03  0.12500005700E+03 0.  0.
          2    1    1    2  501    0  0.26228170006E+02 -0.32098327078E+01 -0.28165720049E+03  0.28289397044E+03  0.00000000000E+00 0. -1.
          1    1    1    2  502    0 -0.83478239230E+02  0.33987663582E+02  0.40310259296E+03  0.41305626512E+03  0.00000000000E+00 0. -1.
         22    1    3    3    0    0  0.30190537335E+02 -0.76992095821E+02  0.27133982644E+02  0.87037373453E+02  0.00000000000E+00 0. -1.
         22    1    3    3    0    0  0.27059531889E+02  0.46214264947E+02 -0.11320232596E+02  0.54736863416E+02  0.00000000000E+00 0. -1.
</event>
<event>
 7    1  0.6681656E-006  0.8520110E+02  0.7818608E-02  0.1329289E+00
          2   -1    0    0  502    0  0.00000000000E+00  0.00000000000E+00  0.46888681985E+03  0.46888681985E+03  0.00000000000E+00 0. -1.
          1   -1    0    0  501    0 -0.00000000000E+00 -0.00000000000E+00 -0.94930170248E+03  0.94930170248E+03  0.00000000000E+00 0. -1.
         25    2    1    2    0    0  0.55522340391E+02 -0.14417867714E+03  0.18037272876E+02  0.19955711603E+03  0.12500991210E+03 0.  0.
          2    1    1    2  501    0 -0.14341633330E+02  0.73574435843E+02 -0.85223709877E+03  0.85552729505E+03  0.00000000000E+00 0. -1.
          1    1    1    2  502    0 -0.41180707060E+02  0.70604241293E+02  0.35378494326E+03  0.36310411124E+03  0.00000000000E+00 0. -1.
         22    1    3    3    0    0  0.35459486009E+02 -0.16149966489E+03  0.33733664436E+02  0.16875270968E+03  0.00000000000E+00 0.  1.
         22    1    3    3    0    0  0.20062854381E+02  0.17320987756E+02 -0.15696391560E+02  0.30804406353E+02  0.00000000000E+00 0.  1.
</event>
<event>
 7    1  0.6681656E-006  0.6104934E+02  0.7818608E-02  0.1444510E+00
          2   -1    0    0  502    0  0.00000000000E+00  0.00000000000E+00  0.28307816354E+04  0.28307816354E+04  0.00000000000E+00 0. -1.
          1   -1    0    0  501    0 -0.00000000000E+00 -0.00000000000E+00 -0.22578928803E+03  0.22578928803E+03  0.00000000000E+00 0. -1.
         25    2    1    2    0    0  0.41461502629E+02  0.87632070379E+02  0.12697376806E+04  0.12795535384E+04  0.12500017687E+03 0.  0.
          2    1    1    2  501    0 -0.10940049991E+02 -0.59951634608E+02 -0.21639917296E+03  0.22481655909E+03  0.00000000000E+00 0. -1.
          1    1    1    2  502    0 -0.30521452638E+02 -0.27680435771E+02  0.15516538398E+04  0.15522008259E+04  0.00000000000E+00 0. -1.
         22    1    3    3    0    0 -0.27281742846E+02 -0.82347689995E+01  0.10307139159E+03  0.10693837794E+03  0.00000000000E+00 0.  1.
         22    1    3    3    0    0  0.68743245475E+02  0.95866839378E+02  0.11666662890E+04  0.11726151604E+04  0.00000000000E+00 0.  1.
</event>
<event>
 7    1  0.6681656E-006  0.3628548E+02  0.7818608E-02  0.1605191E+00
          2   -1    0    0  502    0  0.00000000000E+00  0.00000000000E+00  0.41955800675E+03  0.41955800675E+03  0.00000000000E+00 0. -1.
          1   -1    0    0  501    0 -0.00000000000E+00 -0.00000000000E+00 -0.41541481034E+02  0.41541481034E+02  0.00000000000E+00 0. -1.
         25    2    1    2    0    0 -0.41081471926E+01  0.42143911221E+02  0.30134073038E+03  0.32897510110E+03  0.12500158091E+03 0.  0.
          2    1    1    2  501    0  0.23181899273E+02 -0.27962607176E+02 -0.13590343306E+02  0.38781506999E+02  0.00000000000E+00 0. -1.
          1    1    1    2  502    0 -0.19073752080E+02 -0.14181304045E+02  0.90266138639E+02  0.93342879683E+02  0.00000000000E+00 0. -1.
         22    1    3    3    0    0 -0.60938869689E+02  0.15719407938E+02  0.10046265237E+03  0.11854699552E+03  0.00000000000E+00 0. -1.
         22    1    3    3    0    0  0.56830722496E+02  0.26424503283E+02  0.20087807801E+03  0.21042810558E+03  0.00000000000E+00 0. -1.
</event>
<event>
 7    1  0.6681656E-006  0.1085469E+03  0.7818608E-02  0.1304412E+00
          2   -1    0    0  502    0  0.00000000000E+00  0.00000000000E+00  0.11735858986E+04  0.11735858986E+04  0.00000000000E+00 0. -1.
          1   -1    0    0  501    0 -0.00000000000E+00 -0.00000000000E+00 -0.52350419079E+03  0.52350419079E+03  0.00000000000E+00 0. -1.
         25    2    1    2    0    0  0.49393870703E+02  0.59376832367E+02  0.10872045740E+03  0.18278499767E+03  0.12499941932E+03 0.  0.
          2    1    1    2  501    0  0.61595355399E+02 -0.40217277495E+02 -0.48057920162E+03  0.48617670270E+03  0.00000000000E+00 0. -1.
          1    1    1    2  502    0 -0.11098922610E+03 -0.19159554872E+02  0.10219404520E+04  0.10281283890E+04  0.00000000000E+00 0. -1.
         22    1    3    3    0    0  0.28587861554E+02  0.95347837848E+02  0.51520837850E+02  0.11208422165E+03  0.00000000000E+00 0. -1.
         22    1    3    3    0    0  0.20806009149E+02 -0.35971005481E+02  0.57199619553E+02  0.70700776014E+02  0.00000000000E+00 0. -1.
</event>
<event>
 7    1  0.6681656E-006  0.5896567E+02  0.7818608E-02  0.1527461E+00
          2   -1    0    0  502    0  0.00000000000E+00  0.00000000000E+00  0.69254374060E+03  0.69254374060E+03  0.00000000000E+00 0. -1.
          1   -1    0    0  501    0 -0.00000000000E+00 -0.00000000000E+00 -0.84368441735E+02  0.84368441735E+02  0.00000000000E+00 0. -1.
         25    2    1    2    0    0  0.17537811571E+02 -0.34385475661E+02 -0.21682529563E+02  0.13260779144E+03  0.12499903396E+03 0.  0.
          2    1    1    2  501    0  0.21481801980E+02 -0.10356935429E+02  0.18794269407E+02  0.30363769370E+02  0.00000000000E+00 0. -1.
          1    1    1    2  502    0 -0.39019613551E+02  0.44742411090E+02  0.61106355902E+03  0.61394062152E+03  0.00000000000E+00 0. -1.
         22    1    3    3    0    0  0.61504686474E+02 -0.14989768996E+01  0.18868092421E+02  0.64351210568E+02  0.00000000000E+00 0. -1.
         22    1    3    3    0    0 -0.43966874902E+02 -0.32886498761E+02 -0.40550621985E+02  0.68256580875E+02  0.00000000000E+00 0. -1.
</event>
<event>
 7    1  0.6681656E-006  0.3064629E+02  0.7818608E-02  0.1599976E+00
          2   -1    0    0  502    0  0.00000000000E+00  0.00000000000E+00  0.39712070450E+03  0.39712070450E+03  0.00000000000E+00 0. -1.
          1   -1    0    0  501    0 -0.00000000000E+00 -0.00000000000E+00 -0.14397982635E+03  0.14397982635E+03  0.00000000000E+00 0. -1.
         25    2    1    2    0    0  0.45269535232E+00  0.27908188780E+01  0.13439792329E+03  0.18356460765E+03  0.12500067916E+03 0.  0.
          2    1    1    2  501    0  0.55548822380E+01  0.28499092236E+02 -0.11654148207E+03  0.12010400500E+03  0.00000000000E+00 0. -1.
          1    1    1    2  502    0 -0.60075775904E+01 -0.31289911114E+02  0.23528443692E+03  0.23743191820E+03  0.00000000000E+00 0. -1.
         22    1    3    3    0    0 -0.34266038723E+01  0.60791152716E+02  0.96728172758E+02  0.11429630470E+03  0.00000000000E+00 0. -1.
         22    1    3    3    0    0  0.38792992246E+01 -0.58000333838E+02  0.37669750536E+02  0.69268302947E+02  0.00000000000E+00 0. -1.
</event>
<event>
 7    1  0.6681656E-006  0.4246655E+02  0.7818608E-02  0.1523632E+00
          2   -1    0    0  502    0  0.00000000000E+00  0.00000000000E+00  0.78031654616E+03  0.78031654616E+03  0.00000000000E+00 0. -1.
          1   -1    0    0  501    0 -0.00000000000E+00 -0.00000000000E+00 -0.62420085644E+02  0.62420085644E+02  0.00000000000E+00 0. -1.
         25    2    1    2    0    0 -0.29860802333E+01  0.50364349121E+02  0.16963996451E+03  0.21667853466E+03  0.12500554182E+03 0.  0.
          2    1    1    2  501    0  0.29433457092E+02 -0.16951578870E+02 -0.30550918317E+02  0.45684166104E+02  0.00000000000E+00 0. -1.
          1    1    1    2  502    0 -0.26447376859E+02 -0.33412770251E+02  0.57880741432E+03  0.58037393104E+03  0.00000000000E+00 0. -1.
         22    1    3    3    0    0  0.41675421460E+02 -0.78338882595E+01  0.14068588979E+02  0.44678135088E+02  0.00000000000E+00 0.  1.
         22    1    3    3    0    0 -0.44661501693E+02  0.58198237381E+02  0.15557137553E+03  0.17200039957E+03  0.00000000000E+00 0.  1.
</event>
<event>
 7    1  0.6681656E-006  0.1486593E+03  0.7818608E-02  0.1413016E+00
          2   -1    0    0  502    0  0.00000000000E+00  0.00000000000E+00  0.72358752397E+03  0.72358752397E+03  0.00000000000E+00 0. -1.
          1   -1    0    0  501    0 -0.00000000000E+00 -0.00000000000E+00 -0.74713949225E+03  0.74713949225E+03  0.00000000000E+00 0. -1.
         25    2    1    2    0    0  0.78074832238E+02  0.10377804112E+03  0.51839642119E+02  0.18755790600E+03  0.12500023344E+03 0.  0.
          2    1    1    2  501    0  0.14424764578E+02  0.15934286735E+02 -0.66963029356E+03  0.66997515281E+03  0.00000000000E+00 0. -1.
          1    1    1    2  502    0 -0.92499596816E+02 -0.11971232786E+03  0.59423868315E+03  0.61319395741E+03  0.00000000000E+00 0. -1.
         22    1    3    3    0    0 -0.36109115732E+01 -0.23724425569E+02  0.23337238236E+02  0.33474075633E+02  0.00000000000E+00 0.  1.
         22    1    3    3    0    0  0.81685743811E+02  0.12750246669E+03  0.28502403883E+02  0.15408383037E+03  0.00000000000E+00 0.  1.
</event>
<event>
 7    1  0.6681656E-006  0.1402808E+03  0.7818608E-02  0.1309694E+00
          2   -1    0    0  502    0  0.00000000000E+00  0.00000000000E+00  0.62819541685E+03  0.62819541685E+03  0.00000000000E+00 0. -1.
          1   -1    0    0  501    0 -0.00000000000E+00 -0.00000000000E+00 -0.27133752374E+04  0.27133752374E+04  0.00000000000E+00 0. -1.
         25    2    1    2    0    0 -0.68069028438E+01  0.14756800125E+03  0.37306590916E+02  0.19707120755E+03  0.12499052044E+03 0.  0.
          2    1    1    2  501    0 -0.45384583460E+02 -0.13278162533E+03 -0.26301777517E+04  0.26339183218E+04  0.00000000000E+00 0. -1.
          1    1    1    2  502    0  0.52191486304E+02 -0.14786375920E+02  0.50769134023E+03  0.51058112489E+03  0.00000000000E+00 0. -1.
         22    1    3    3    0    0 -0.15857106075E+02 -0.12236003904E+02  0.30974244695E+02  0.36885924674E+02  0.00000000000E+00 0. -1.
         22    1    3    3    0    0  0.90502032316E+01  0.15980400515E+03  0.63323462206E+01  0.16018528287E+03  0.00000000000E+00 0. -1.
</event>
<event>
 7    1  0.6681656E-006  0.1524923E+03  0.7818608E-02  0.1264612E+00
          2   -1    0    0  502    0  0.00000000000E+00  0.00000000000E+00  0.32545917095E+03  0.32545917095E+03  0.00000000000E+00 0. -1.
          1   -1    0    0  501    0 -0.00000000000E+00 -0.00000000000E+00 -0.23773987848E+04  0.23773987848E+04  0.00000000000E+00 0. -1.
         25    2    1    2    0    0  0.19553161090E+03 -0.39049019468E+02 -0.70118475241E+03  0.73962845971E+03  0.12503105460E+03 0.  0.
          2    1    1    2  501    0 -0.14490118003E+03 -0.17993017162E+02 -0.16489666278E+04  0.16554186903E+04  0.00000000000E+00 0. -1.
          1    1    1    2  502    0 -0.50630430870E+02  0.57042036629E+02  0.29821176640E+03  0.30781080568E+03  0.00000000000E+00 0. -1.
         22    1    3    3    0    0  0.46371166746E+01  0.13933900078E+02 -0.45534306724E+01  0.15374984661E+02  0.00000000000E+00 0.  1.
         22    1    3    3    0    0  0.19089449423E+03 -0.52982919546E+02 -0.69663132174E+03  0.72425347505E+03  0.00000000000E+00 0.  1.
</event>
<event>
 7    1  0.6681656E-006  0.8506641E+02  0.7818608E-02  0.1380273E+00
          2   -1    0    0  502    0  0.00000000000E+00  0.00000000000E+00  0.49631551433E+03  0.49631551433E+03  0.00000000000E+00 0. -1.
          1   -1    0    0  501    0 -0.00000000000E+00 -0.00000000000E+00 -0.19570512025E+03  0.19570512025E+03  0.00000000000E+00 0. -1.
         25    2    1    2    0    0  0.91770229519E+01  0.38267908280E+02  0.16221068766E+03  0.20854547874E+03  0.12502103406E+03 0.  0.
          2    1    1    2  501    0 -0.27298509509E+02 -0.83516271991E+02 -0.15923915552E+03  0.18187161669E+03  0.00000000000E+00 0. -1.
          1    1    1    2  502    0  0.18121486557E+02  0.45248363711E+02  0.29763886194E+03  0.30160353915E+03  0.00000000000E+00 0. -1.
         22    1    3    3    0    0 -0.29572010339E+02  0.46898078088E+01 -0.78250926280E+01  0.30947215827E+02  0.00000000000E+00 0. -1.
         22    1    3    3    0    0  0.38749033291E+02  0.33578100471E+02  0.17003578029E+03  0.17759826291E+03  0.00000000000E+00 0. -1.
</event>
<event>
 7    1  0.6681656E-006  0.1571046E+03  0.7818608E-02  0.1206632E+00
          2   -1    0    0  502    0  0.00000000000E+00  0.00000000000E+00  0.29964890397E+04  0.29964890397E+04  0.00000000000E+00 0. -1.
          1   -1    0    0  501    0 -0.00000000000E+00 -0.00000000000E+00 -0.20879687851E+04  0.20879687851E+04  0.00000000000E+00 0. -1.
         25    2    1    2    0    0  0.17767549173E+03  0.65874496686E+02 -0.12797597111E+04  0.12997378665E+04  0.12500229502E+03 0.  0.
          2    1    1    2  501    0 -0.11030686886E+03  0.76090558928E+02 -0.79051024301E+03  0.80178789139E+03  0.00000000000E+00 0. -1.
          1    1    1    2  502    0 -0.67368622868E+02 -0.14196505561E+03  0.29787902087E+04  0.29829320670E+04  0.00000000000E+00 0. -1.
         22    1    3    3    0    0  0.17451206736E+03  0.93120356389E+02 -0.11700104935E+04  0.11866130023E+04  0.00000000000E+00 0. -1.
         22    1    3    3    0    0  0.31634243639E+01 -0.27245859703E+02 -0.10974921761E+03  0.11312486416E+03  0.00000000000E+00 0. -1.
</event>
<event>
 7    1  0.6681656E-006  0.2293478E+03  0.7818608E-02  0.1168597E+00
          2   -1    0    0  502    0  0.00000000000E+00  0.00000000000E+00  0.88161189582E+03  0.88161189582E+03  0.00000000000E+00 0. -1.
          1   -1    0    0  501    0 -0.00000000000E+00 -0.00000000000E+00 -0.39824190789E+03  0.39824190789E+03  0.00000000000E+00 0. -1.
         25    2    1    2    0    0  0.78149794583E+02 -0.13562558006E+03  0.37628849764E+03  0.42628398925E+03  0.12499327051E+03 0.  0.
          2    1    1    2  501    0 -0.21472808989E+03  0.10491172926E+03 -0.32270274708E+03  0.40156156003E+03  0.00000000000E+00 0. -1.
          1    1    1    2  502    0  0.13657829531E+03  0.30713850796E+02  0.42978423737E+03  0.45200825443E+03  0.00000000000E+00 0. -1.
         22    1    3    3    0    0  0.56994411045E+02 -0.18740222556E+02  0.46962922349E+02  0.76191042173E+02  0.00000000000E+00 0.  1.
         22    1    3    3    0    0  0.21155383538E+02 -0.11688535750E+03  0.32932557529E+03  0.35009294708E+03  0.00000000000E+00 0.  1.
</event>
<event>
 7    1  0.6681656E-006  0.5834929E+02  0.7818608E-02  0.1538408E+00
          2   -1    0    0  502    0  0.00000000000E+00  0.00000000000E+00  0.31423095412E+03  0.31423095412E+03  0.00000000000E+00 0. -1.
          1   -1    0    0  501    0 -0.00000000000E+00 -0.00000000000E+00 -0.42189528959E+03  0.42189528959E+03  0.00000000000E+00 0. -1.
         25    2    1    2    0    0  0.73858226220E+02  0.18162702271E+02 -0.46031762814E+02  0.15339110860E+03  0.12499995070E+03 0.  0.
          2    1    1    2  501    0 -0.21500790010E+02  0.63798971177E+01 -0.31857652939E+03  0.31936498264E+03  0.00000000000E+00 0. -1.
          1    1    1    2  502    0 -0.52357436210E+02 -0.24542599388E+02  0.25694395674E+03  0.26337015248E+03  0.00000000000E+00 0. -1.
         22    1    3    3    0    0 -0.11572550183E+02  0.90283267743E+01 -0.63960230257E+02  0.65622752583E+02  0.00000000000E+00 0. -1.
         22    1    3    3    0    0  0.85430776402E+02  0.91343754964E+01  0.17928467443E+02  0.87768356013E+02  0.00000000000E+00 0. -1.
</event>
<event>
 7    1  0.6681656E-006  0.6767778E+02  0.7818608E-02  0.1412040E+00
          2   -1    0    0  502    0  0.00000000000E+00  0.00000000000E+00  0.25991155336E+03  0.25991155336E+03  0.00000000000E+00 0. -1.
          1   -1    0    0  501    0 -0.00000000000E+00 -0.00000000000E+00 -0.13059328214E+03  0.13059328214E+03  0.00000000000E+00 0. -1.
         25    2    1    2    0    0  0.22748188480E+02  0.40451853038E+02  0.67751234532E+02  0.14956088005E+03  0.12499757825E+03 0.  0.
          2    1    1    2  501    0  0.13944398744E+02 -0.70729440135E+02 -0.70339563629E+02  0.10072117041E+03  0.00000000000E+00 0. -1.
          1    1    1    2  502    0 -0.36692587223E+02  0.30277587097E+02  0.13190660031E+03  0.14022278503E+03  0.00000000000E+00 0. -1.
         22    1    3    3    0    0 -0.31872163816E+02  0.54718035378E+02  0.26320585092E+01  0.63378434454E+02  0.00000000000E+00 0.  1.
         22    1    3    3    0    0  0.54620352295E+02 -0.14266182340E+02  0.65119176023E+02  0.86182445599E+02  0.00000000000E+00 0.  1.
</event>
<event>
 7    1  0.6681656E-006  0.9978829E+02  0.7818608E-02  0.1397350E+00
          2   -1    0    0  502    0  0.00000000000E+00  0.00000000000E+00  0.25712278216E+04  0.25712278216E+04  0.00000000000E+00 0. -1.
          1   -1    0    0  501    0 -0.00000000000E+00 -0.00000000000E+00 -0.34217568093E+03  0.34217568093E+03  0.00000000000E+00 0. -1.
         25    2    1    2    0    0 -0.41412277367E+02  0.51693517685E+02  0.47115360869E+03  0.49193299807E+03  0.12500062050E+03 0.  0.
          2    1    1    2  501    0  0.73723039488E+02 -0.68049556234E+02 -0.32404033113E+03  0.33921669307E+03  0.00000000000E+00 0. -1.
          1    1    1    2  502    0 -0.32310762121E+02  0.16356038550E+02  0.20819388631E+04  0.20822538114E+04  0.00000000000E+00 0. -1.
         22    1    3    3    0    0  0.57316638195E+01 -0.34406501951E+02  0.61698485652E+02  0.70875683266E+02  0.00000000000E+00 0. -1.
         22    1    3    3    0    0 -0.47143941186E+02  0.86100019635E+02  0.40945512304E+03  0.42105731481E+03  0.00000000000E+00 0. -1.
</event>
<event>
 7    1  0.6681656E-006  0.5336099E+02  0.7818608E-02  0.1484191E+00
          2   -1    0    0  502    0  0.00000000000E+00  0.00000000000E+00  0.29930881657E+03  0.29930881657E+03  0.00000000000E+00 0. -1.
          1   -1    0    0  501    0 -0.00000000000E+00 -0.00000000000E+00 -0.17417583005E+03  0.17417583005E+03  0.00000000000E+00 0. -1.
         25    2    1    2    0    0 -0.55850791090E+02 -0.52925832014E+02  0.81676447522E+02  0.16797350884E+03  0.12499441200E+03 0.  0.
          2    1    1    2  501    0  0.74975793041E+01  0.34592908181E+02 -0.12467737057E+03  0.12960451274E+03  0.00000000000E+00 0. -1.
          1    1    1    2  502    0  0.48353211786E+02  0.18332923833E+02  0.16813390956E+03  0.17590662504E+03  0.00000000000E+00 0. -1.
         22    1    3    3    0    0 -0.64362824258E+02 -0.36459714267E+01  0.96285362536E+02  0.11587379899E+03  0.00000000000E+00 0. -1.
         22    1    3    3    0    0  0.85120331676E+01 -0.49279860587E+02 -0.14608915014E+02  0.52099709846E+02  0.00000000000E+00 0. -1.
</event>
<event>
 7    1  0.6681656E-006  0.1955045E+03  0.7818608E-02  0.1312499E+00
          2   -1    0    0  502    0  0.00000000000E+00  0.00000000000E+00  0.66052121244E+02  0.66052121244E+02  0.00000000000E+00 0. -1.
          1   -1    0    0  501    0 -0.00000000000E+00 -0.00000000000E+00 -0.15384411942E+04  0.15384411942E+04  0.00000000000E+00 0. -1.
         25    2    1    2    0    0  0.19664741086E+02 -0.16778974583E+03 -0.56775864273E+03  0.60540403835E+03  0.12499628956E+03 0.  0.
          2    1    1    2  501    0 -0.54927888903E+01 -0.37546759515E+02 -0.72473629133E+03  0.72572902784E+03  0.00000000000E+00 0. -1.
          1    1    1    2  502    0 -0.14171952195E+02  0.20533650535E+03 -0.17989413886E+03  0.27336024922E+03  0.00000000000E+00 0. -1.
         22    1    3    3    0    0  0.41989292231E+02 -0.15520001533E+03 -0.33878630010E+03  0.37500173674E+03  0.00000000000E+00 0. -1.
         22    1    3    3    0    0 -0.22324551145E+02 -0.12589730502E+02 -0.22897234263E+03  0.23040230161E+03  0.00000000000E+00 0. -1.
</event>
<event>
 7    1  0.6681656E-006  0.5673639E+02  0.7818608E-02  0.1488950E+00
          2   -1    0    0  502    0  0.00000000000E+00  0.00000000000E+00  0.94511904077E+03  0.94511904077E+03  0.00000000000E+00 0. -1.
          1   -1    0    0  501    0 -0.00000000000E+00 -0.00000000000E+00 -0.41218782721E+02  0.41218782721E+02  0.00000000000E+00 0. -1.
         25    2    1    2    0    0 -0.60177349290E+02  0.29186298381E+02  0.87266909227E+03  0.88411018574E+03  0.12500529008E+03 0.  0.
          2    1    1    2  501    0  0.56596848926E+02  0.28136938603E+01 -0.98975622845E+00  0.56675389711E+02  0.00000000000E+00 0. -1.
          1    1    1    2  502    0  0.35805003637E+01 -0.31999992242E+02  0.32220922011E+02  0.45552248040E+02  0.00000000000E+00 0. -1.
         22    1    3    3    0    0  0.73617244365E+01  0.54692613863E+02  0.19663840398E+03  0.20423549867E+03  0.00000000000E+00 0. -1.
         22    1    3    3    0    0 -0.67539073726E+02 -0.25506315482E+02  0.67603068829E+03  0.67987468707E+03  0.00000000000E+00 0. -1.
</event>
<event>
 7    1  0.6681656E-006  0.6006621E+02  0.7818608E-02  0.1444598E+00
          2   -1    0    0  502    0  0.00000000000E+00  0.00000000000E+00  0.43099113352E+03  0.43099113352E+03  0.00000000000E+00 0. -1.
          1   -1    0    0  501    0 -0.00000000000E+00 -0.00000000000E+00 -0.84699317954E+03  0.84699317954E+03  0.00000000000E+00 0. -1.
         25    2    1    2    0    0  0.32255471123E+02  0.28552835108E+02  0.12816992461E+03  0.18414197473E+03  0.12500022989E+03 0.  0.
          2    1    1    2  501    0 -0.47388993012E+01 -0.60086051941E+02 -0.81629638383E+03  0.81851852579E+03  0.00000000000E+00 0. -1.
          1    1    1    2  502    0 -0.27516571822E+02  0.31533216833E+02  0.27212441321E+03  0.27532381254E+03  0.00000000000E+00 0. -1.
         22    1    3    3    0    0  0.10900099838E+02 -0.28536328019E+02 -0.10793922087E+02  0.32398193580E+02  0.00000000000E+00 0.  1.
         22    1    3    3    0    0  0.21355371286E+02  0.57089163127E+02  0.13896384670E+03  0.15174378115E+03  0.00000000000E+00 0.  1.
</event>
<event>
 7    1  0.6681656E-006  0.4422008E+02  0.7818608E-02  0.1597775E+00
          2   -1    0    0  502    0  0.00000000000E+00  0.00000000000E+00  0.21996674005E+02  0.21996674005E+02  0.00000000000E+00 0. -1.
          1   -1    0    0  501    0 -0.00000000000E+00 -0.00000000000E+00 -0.89570883695E+03  0.89570883695E+03  0.00000000000E+00 0. -1.
         25    2    1    2    0    0 -0.22202041215E+02 -0.40529652822E+02 -0.22487975137E+03  0.26140221473E+03  0.12499852759E+03 0.  0.
          2    1    1    2  501    0  0.36149466269E+02  0.25654336084E+02 -0.61640884196E+03  0.61800063861E+03  0.00000000000E+00 0. -1.
          1    1    1    2  502    0 -0.13947425054E+02  0.14875316738E+02 -0.32423569619E+02  0.38302657618E+02  0.00000000000E+00 0. -1.
         22    1    3    3    0    0  0.45839753971E+02  0.11775513651E+02 -0.74752073501E+02  0.88474958370E+02  0.00000000000E+00 0. -1.
         22    1    3    3    0    0 -0.68041795185E+02 -0.52305166473E+02 -0.15012767787E+03  0.17292725636E+03  0.00000000000E+00 0. -1.
</event>
<event>
 7    1  0.6681656E-006  0.3921612E+03  0.7818608E-02  0.1062451E+00
          2   -1    0    0  502    0  0.00000000000E+00  0.00000000000E+00  0.26430055051E+04  0.26430055051E+04  0.00000000000E+00 0. -1.
          1   -1    0    0  501    0 -0.00000000000E+00 -0.00000000000E+00 -0.13340793026E+04  0.13340793026E+04  0.00000000000E+00 0. -1.
         25    2    1    2    0    0  0.33544885679E+03  0.12845767867E+03 -0.88740631141E+03  0.96547587648E+03  0.12500558313E+03 0.  0.
          2    1    1    2  501    0 -0.48326842898E+03 -0.40445138004E+03 -0.14729025117E+03  0.64716590713E+03  0.00000000000E+00 0. -1.
          1    1    1    2  502    0  0.14781957220E+03  0.27599370137E+03  0.23436227651E+04  0.23644430241E+04  0.00000000000E+00 0. -1.
         22    1    3    3    0    0  0.26592805310E+03  0.11296719414E+03 -0.81142610347E+03  0.86133131707E+03  0.00000000000E+00 0.  1.
         22    1    3    3    0    0  0.69520803688E+02  0.15490484527E+02 -0.75980207939E+02  0.10414455941E+03  0.00000000000E+00 0.  1.
</event>
<event>
 7    1  0.6681656E-006  0.1117982E+03  0.7818608E-02  0.1336448E+00
          2   -1    0    0  502    0  0.00000000000E+00  0.00000000000E+00  0.97849965746E+03  0.97849965746E+03  0.00000000000E+00 0. -1.
          1   -1    0    0  501    0 -0.00000000000E+00 -0.00000000000E+00 -0.23693195515E+03  0.23693195515E+03  0.00000000000E+00 0. -1.
         25    2    1    2    0    0 -0.10853031842E+03 -0.11222977261E+03  0.22354707864E+03  0.29995271123E+03  0.12499592284E+03 0.  0.
          2    1    1    2  501    0  0.21784253465E+02  0.49033243615E+02 -0.19099398123E+03  0.19838728171E+03  0.00000000000E+00 0. -1.
          1    1    1    2  502    0  0.86746064960E+02  0.63196528992E+02  0.70901460489E+03  0.71709161968E+03  0.00000000000E+00 0. -1.
         22    1    3    3    0    0 -0.94768754504E+02 -0.11771948937E+03  0.11372535160E+03  0.18913606373E+03  0.00000000000E+00 0.  1.
         22    1    3    3    0    0 -0.13761563921E+02  0.54897167621E+01  0.10982172704E+03  0.11081664749E+03  0.00000000000E+00 0.  1.
</event>
<event>
 7    1  0.6681656E-006  0.4385508E+02  0.7818608E-02  0.1559377E+00
          2   -1    0    0  502    0  0.00000000000E+00  0.00000000000E+00  0.17769437490E+04  0.17769437490E+04  0.00000000000E+00 0. -1.
          1   -1    0    0  501    0 -0.00000000000E+00 -0.00000000000E+00 -0.53871788011E+03  0.53871788011E+03  0.00000000000E+00 0. -1.
         25    2    1    2    0    0  0.39165964079E+02  0.46305184418E+02  0.27301119272E+02  0.14159014331E+03  0.12499709886E+03 0.  0.
          2    1    1    2  501    0 -0.13526227622E+02 -0.41564262163E+02 -0.48048085243E+03  0.48246491715E+03  0.00000000000E+00 0. -1.
          1    1    1    2  502    0 -0.25639736457E+02 -0.47409222545E+01  0.16914056021E+04  0.16916065686E+04  0.00000000000E+00 0. -1.
         22    1    3    3    0    0  0.18669033957E+02  0.56368050575E+02 -0.39284581156E+02  0.71198091766E+02  0.00000000000E+00 0. -1.
         22    1    3    3    0    0  0.20496930122E+02 -0.10062866157E+02  0.66585700428E+02  0.70392051549E+02  0.00000000000E+00 0. -1.
</event>
<event>
 7    1  0.6681656E-006  0.1477450E+03  0.7818608E-02  0.1374973E+00
          2   -1    0    0  502    0  0.00000000000E+00  0.00000000000E+00  0.59463020574E+03  0.59463020574E+03  0.00000000000E+00 0. -1.
          1   -1    0    0  501    0 -0.00000000000E+00 -0.00000000000E+00 -0.13951590132E+04  0.13951590132E+04  0.00000000000E+00 0. -1.
         25    2    1    2    0    0 -0.41036760967E+02  0.16091966570E+03 -0.15744272144E+03  0.26075215730E+03  0.12499728973E+03 0.  0.
          2    1    1    2  501    0  0.25286873512E+02 -0.14816998535E+02 -0.11759331833E+04  0.11762983555E+04  0.00000000000E+00 0. -1.
          1    1    1    2  502    0  0.15749887455E+02 -0.14610266717E+03  0.53284709726E+03  0.55273870623E+03  0.00000000000E+00 0. -1.
         22    1    3    3    0    0  0.15347024555E+02  0.21282473637E+02  0.16253550193E+02  0.30865073152E+02  0.00000000000E+00 0. -1.
         22    1    3    3    0    0 -0.56383785522E+02  0.13963719207E+03 -0.17369627164E+03  0.22988708415E+03  0.00000000000E+00 0. -1.
</event>
