<event>
 7    1  0.1416515E-005  0.1217156E+03  0.7818608E-02  0.1270835E+00
          2   -1    0    0  502    0  0.00000000000E+00  0.00000000000E+00  0.16451446886E+04  0.16451446886E+04  0.00000000000E+00 0. -1.
          1   -1    0    0  501    0 -0.00000000000E+00 -0.00000000000E+00 -0.20355303153E+04  0.20355303153E+04  0.00000000000E+00 0. -1.
         25    2    1    2    0    0 -0.64423188599E+01  0.87334042051E+02 -0.31917459595E+03  0.35379001289E+03  0.12500484849E+03 0.  0.
          2    1    1    2  501    0  0.96397792509E+02 -0.86957642473E+02 -0.16953215795E+04  0.17002851007E+04  0.00000000000E+00 0. -1.
          1    1    1    2  502    0 -0.89955473649E+02 -0.37639957862E+00  0.16241105487E+04  0.16265998903E+04  0.00000000000E+00 0. -1.
         22    1    3    3    0    0 -0.25577648009E+02  0.83856870675E+01 -0.23599005012E+03  0.23752018773E+03  0.00000000000E+00 0. -1.
         22    1    3    3    0    0  0.19135329149E+02  0.78948354984E+02 -0.83184545831E+02  0.11626982515E+03  0.00000000000E+00 0. -1.
</event>
<event>
 7    1  0.6152634E-006  0.5259655E+02  0.7818608E-02  0.1472643E+00
          2   -1    0    0  502    0  0.00000000000E+00  0.00000000000E+00  0.78120591922E+03  0.78120591922E+03  0.00000000000E+00 0. -1.
          1   -1    0    0  501    0 -0.00000000000E+00 -0.00000000000E+00 -0.21193777857E+03  0.21193777857E+03  0.00000000000E+00 0. -1.
         25    2    1    2    0    0 -0.53204291384E+02 -0.41256034007E+02  0.27259760082E+02  0.14457214129E+03  0.12500101022E+03 0.  0.
          2    1    1    2  501    0  0.37910784790E+02 -0.90218455144E+01 -0.14979193319E+03  0.15477804931E+03  0.00000000000E+00 0. -1.
          1    1    1    2  502    0  0.15293506594E+02  0.50277879521E+02  0.69180031375E+03  0.69379350719E+03  0.00000000000E+00 0. -1.
         22    1    3    3    0    0  0.30492362585E+02 -0.74229684025E+01  0.42692581230E+02  0.52986235269E+02  0.00000000000E+00 0.  1.
         22    1    3    3    0    0 -0.83696653969E+02 -0.33833065605E+02 -0.15432821148E+02  0.91585906025E+02  0.00000000000E+00 0.  1.
</event>
<event>
 7    1  0.6152634E-006  0.8500099E+02  0.7818608E-02  0.1323391E+00
          2   -1    0    0  502    0  0.00000000000E+00  0.00000000000E+00  0.84005758596E+03  0.84005758596E+03  0.00000000000E+00 0. -1.
          1   -1    0    0  501    0 -0.00000000000E+00 -0.00000000000E+00 -0.11563805349E+03  0.11563805349E+03  0.00000000000E+00 0. -1.
         25    2    1    2    0    0  0.19619420115E+02  0.86374639172E+02  0.36442316549E+03  0.39531878509E+03  0.12500879315E+03 0.  0.
          2    1    1    2  501    0  0.61635927210E+02 -0.58533590467E+02 -0.77198202260E+02  0.11482478464E+03  0.00000000000E+00 0. -1.
          1    1    1    2  502    0 -0.81255347325E+02 -0.27841048705E+02  0.43719456923E+03  0.44555206972E+03  0.00000000000E+00 0. -1.
         22    1    3    3    0    0 -0.19078381685E+02 -0.70425210348E+01  0.20843490236E+03  0.20942466490E+03  0.00000000000E+00 0. -1.
         22    1    3    3    0    0  0.38697801800E+02  0.93417160207E+02  0.15598826313E+03  0.18589412019E+03  0.00000000000E+00 0. -1.
</event>
<event>
 7    1  0.6152634E-006  0.3680796E+02  0.7818608E-02  0.1571522E+00
          2   -1    0    0  502    0  0.00000000000E+00  0.00000000000E+00  0.19077737756E+03  0.19077737756E+03  0.00000000000E+00 0. -1.
          1   -1    0    0  501    0 -0.00000000000E+00 -0.00000000000E+00 -0.68716138779E+03  0.68716138779E+03  0.00000000000E+00 0. -1.
         25    2    1    2    0    0 -0.40080875058E+02  0.43523463206E+02  0.13120968251E+03  0.19064037873E+03  0.12500801904E+03 0.  0.
          2    1    1    2  501    0  0.16682124664E+02 -0.23452595857E+02 -0.64908255019E+03  0.64972030482E+03  0.00000000000E+00 0. -1.
          1    1    1    2  502    0  0.23398750394E+02 -0.20070867349E+02  0.21488857456E+02  0.37578081789E+02  0.00000000000E+00 0. -1.
         22    1    3    3    0    0 -0.84108398273E+02  0.33544561215E+02  0.10414046119E+03  0.13800252137E+03  0.00000000000E+00 0. -1.
         22    1    3    3    0    0  0.44027523214E+02  0.99789019910E+01  0.27069221318E+02  0.52637857366E+02  0.00000000000E+00 0. -1.
</event>
<event>
 7    1  0.6152634E-006  0.1012086E+03  0.7818608E-02  0.1452900E+00
          2   -1    0    0  502    0  0.00000000000E+00  0.00000000000E+00  0.14574292647E+03  0.14574292647E+03  0.00000000000E+00 0. -1.
          1   -1    0    0  501    0 -0.00000000000E+00 -0.00000000000E+00 -0.15691462345E+04  0.15691462345E+04  0.00000000000E+00 0. -1.
         25    2    1    2    0    0  0.75846729763E+02 -0.65203036391E+02 -0.18980197491E+03  0.24830161022E+03  0.12499895034E+03 0.  0.
          2    1    1    2  501    0 -0.16091852851E+02 -0.16936177374E+02 -0.13278302862E+04  0.13280357867E+04  0.00000000000E+00 0. -1.
          1    1    1    2  502    0 -0.59754876911E+02  0.82139213764E+02  0.94228953017E+02  0.13855176411E+03  0.00000000000E+00 0. -1.
         22    1    3    3    0    0 -0.40371849990E+00 -0.62977678693E+02 -0.27016776849E+02  0.68529243637E+02  0.00000000000E+00 0. -1.
         22    1    3    3    0    0  0.76250448263E+02 -0.22253576973E+01 -0.16278519807E+03  0.17977236658E+03  0.00000000000E+00 0. -1.
</event>
<event>
 7    1  0.6152634E-006  0.3981223E+02  0.7818608E-02  0.1563791E+00
          2   -1    0    0  502    0  0.00000000000E+00  0.00000000000E+00  0.71216249358E+03  0.71216249358E+03  0.00000000000E+00 0. -1.
          1   -1    0    0  501    0 -0.00000000000E+00 -0.00000000000E+00 -0.12635878866E+03  0.12635878866E+03  0.00000000000E+00 0. -1.
         25    2    1    2    0    0 -0.23365437187E+02 -0.31588763155E+02  0.30942002611E+03  0.33601876497E+03  0.12499625689E+03 0.  0.
          2    1    1    2  501    0 -0.16226977421E+02  0.22734201594E+02 -0.11025660433E+03  0.11373951608E+03  0.00000000000E+00 0. -1.
          1    1    1    2  502    0  0.39592414609E+02  0.88545615618E+01  0.38664028314E+03  0.38876300120E+03  0.00000000000E+00 0. -1.
         22    1    3    3    0    0 -0.62553570904E+02  0.15603690486E+02  0.20516644198E+03  0.21505741862E+03  0.00000000000E+00 0. -1.
         22    1    3    3    0    0  0.39188133716E+02 -0.47192453641E+02  0.10425358414E+03  0.12096134635E+03  0.00000000000E+00 0. -1.
</event>
<event>
 7    1  0.6152634E-006  0.1308105E+03  0.7818608E-02  0.1229544E+00
          2   -1    0    0  502    0  0.00000000000E+00  0.00000000000E+00  0.16066828177E+04  0.16066828177E+04  0.00000000000E+00 0. -1.
          1   -1    0    0  501    0 -0.00000000000E+00 -0.00000000000E+00 -0.22534629291E+03  0.22534629291E+03  0.00000000000E+00 0. -1.
         25    2    1    2    0    0  0.73823790825E+02  0.42158348286E+02  0.92221194905E+02  0.17707761518E+03  0.12499781833E+03 0.  0.
          2    1    1    2  501    0  0.77745377432E+01 -0.14439873556E+03 -0.15090232626E+03  0.20900466583E+03  0.00000000000E+00 0. -1.
          1    1    1    2  502    0 -0.81598328568E+02  0.10224038727E+03  0.14400176561E+04  0.14459468296E+04  0.00000000000E+00 0. -1.
         22    1    3    3    0    0  0.65582876716E+02 -0.28698422356E+02  0.75026821340E+02  0.10370022702E+03  0.00000000000E+00 0. -1.
         22    1    3    3    0    0  0.82409141087E+01  0.70856770642E+02  0.17194373565E+02  0.73377388162E+02  0.00000000000E+00 0. -1.
</event>
<event>
 7    1  0.6152634E-006  0.7211587E+02  0.7818608E-02  0.1483662E+00
          2   -1    0    0  502    0  0.00000000000E+00  0.00000000000E+00  0.34327356191E+03  0.34327356191E+03  0.00000000000E+00 0. -1.
          1   -1    0    0  501    0 -0.00000000000E+00 -0.00000000000E+00 -0.15026658058E+04  0.15026658058E+04  0.00000000000E+00 0. -1.
         25    2    1    2    0    0 -0.52060958666E+02  0.23384287759E+02 -0.99237046832E+02  0.16949798635E+03  0.12499763031E+03 0.  0.
          2    1    1    2  501    0 -0.10309705712E+01  0.26268061879E+02 -0.13638828064E+04  0.13641361309E+04  0.00000000000E+00 0. -1.
          1    1    1    2  502    0  0.53091929238E+02 -0.49652349638E+02  0.30372760936E+03  0.31230525046E+03  0.00000000000E+00 0. -1.
         22    1    3    3    0    0 -0.91507208363E+02  0.89596272104E+01 -0.49581073402E+02  0.10446112646E+03  0.00000000000E+00 0.  1.
         22    1    3    3    0    0  0.39446249697E+02  0.14424660549E+02 -0.49655973431E+02  0.65036859890E+02  0.00000000000E+00 0.  1.
</event>
<event>
 7    1  0.6152634E-006  0.1877830E+03  0.7818608E-02  0.1308728E+00
          2   -1    0    0  502    0  0.00000000000E+00  0.00000000000E+00  0.68968182598E+03  0.68968182598E+03  0.00000000000E+00 0. -1.
          1   -1    0    0  501    0 -0.00000000000E+00 -0.00000000000E+00 -0.47027932837E+03  0.47027932837E+03  0.00000000000E+00 0. -1.
         25    2    1    2    0    0 -0.16220587753E+03  0.54050299123E+02 -0.48519647248E+02  0.21727933412E+03  0.12499588525E+03 0.  0.
          2    1    1    2  501    0 -0.26438089947E+02 -0.31181126509E+02 -0.32113819038E+03  0.32372978326E+03  0.00000000000E+00 0. -1.
          1    1    1    2  502    0  0.18864396747E+03 -0.22869172614E+02  0.58906033523E+03  0.61895203697E+03  0.00000000000E+00 0. -1.
         22    1    3    3    0    0  0.15580379247E+02  0.66773493817E+01 -0.27212462310E+02  0.32060151547E+02  0.00000000000E+00 0.  1.
         22    1    3    3    0    0 -0.17778625677E+03  0.47372949741E+02 -0.21307184938E+02  0.18521918258E+03  0.00000000000E+00 0.  1.
</event>
<event>
 7    1  0.6152634E-006  0.1817471E+03  0.7818608E-02  0.1207109E+00
          2   -1    0    0  502    0  0.00000000000E+00  0.00000000000E+00  0.38264481304E+03  0.38264481304E+03  0.00000000000E+00 0. -1.
          1   -1    0    0  501    0 -0.00000000000E+00 -0.00000000000E+00 -0.83653960915E+03  0.83653960915E+03  0.00000000000E+00 0. -1.
         25    2    1    2    0    0 -0.73450630882E+02  0.20514450935E+03 -0.60254698492E+02  0.25833120170E+03  0.12500046475E+03 0.  0.
          2    1    1    2  501    0 -0.38241776016E+02 -0.17675609748E+03 -0.65271378789E+03  0.67730380209E+03  0.00000000000E+00 0. -1.
          1    1    1    2  502    0  0.11169240690E+03 -0.28388411870E+02  0.25907369026E+03  0.28354941840E+03  0.00000000000E+00 0. -1.
         22    1    3    3    0    0 -0.43509350592E+01  0.14296421837E+03 -0.79153626847E+02  0.16347169484E+03  0.00000000000E+00 0.  1.
         22    1    3    3    0    0 -0.69099695823E+02  0.62180290971E+02  0.18898928354E+02  0.94859506856E+02  0.00000000000E+00 0.  1.
</event>
<event>
 7    1  0.6152634E-006  0.4849242E+03  0.7818608E-02  0.1199355E+00
          2   -1    0    0  502    0  0.00000000000E+00  0.00000000000E+00  0.10474869055E+04  0.10474869055E+04  0.00000000000E+00 0. -1.
          1   -1    0    0  501    0 -0.00000000000E+00 -0.00000000000E+00 -0.67280979767E+03  0.67280979767E+03  0.00000000000E+00 0. -1.
         25    2    1    2    0    0  0.45714674781E+03  0.18661795297E+03  0.20209013270E+03  0.54797344022E+03  0.12500024016E+03 0.  0.
          2    1    1    2  501    0 -0.30412362032E+02  0.35789078714E+02 -0.41227368638E+03  0.41494019136E+03  0.00000000000E+00 0. -1.
          1    1    1    2  502    0 -0.42673438578E+03 -0.22240703169E+03  0.58486066151E+03  0.75738307159E+03  0.00000000000E+00 0. -1.
         22    1    3    3    0    0  0.20822886953E+03  0.14357467252E+03  0.67674210350E+02  0.26182579598E+03  0.00000000000E+00 0. -1.
         22    1    3    3    0    0  0.24891787828E+03  0.43043280457E+02  0.13441592235E+03  0.28614764424E+03  0.00000000000E+00 0. -1.
</event>
<event>
 7    1  0.6152634E-006  0.1465836E+03  0.7818608E-02  0.1352981E+00
          2   -1    0    0  502    0  0.00000000000E+00  0.00000000000E+00  0.12428814663E+03  0.12428814663E+03  0.00000000000E+00 0. -1.
          1   -1    0    0  501    0 -0.00000000000E+00 -0.00000000000E+00 -0.94716972611E+03  0.94716972611E+03  0.00000000000E+00 0. -1.
         25    2    1    2    0    0  0.95076411119E+02  0.10459600370E+03 -0.94809595339E+02  0.21117358578E+03  0.12500230406E+03 0.  0.
          2    1    1    2  501    0  0.29655964318E+02 -0.19509751926E+02 -0.70693125325E+03  0.70782194333E+03  0.00000000000E+00 0. -1.
          1    1    1    2  502    0 -0.12473237544E+03 -0.85086251773E+02 -0.21140730890E+02  0.15246234363E+03  0.00000000000E+00 0. -1.
         22    1    3    3    0    0  0.90065767892E+02  0.71653441836E+02 -0.47970889359E+01  0.11519145079E+03  0.00000000000E+00 0.  1.
         22    1    3    3    0    0  0.50106432276E+01  0.32942561863E+02 -0.90012506403E+02  0.95982134987E+02  0.00000000000E+00 0.  1.
</event>
<event>
 7    1  0.6152634E-006  0.1915817E+03  0.7818608E-02  0.1217323E+00
          2   -1    0    0  502    0  0.00000000000E+00  0.00000000000E+00  0.61456975901E+02  0.61456975901E+02  0.00000000000E+00 0. -1.
          1   -1    0    0  501    0 -0.00000000000E+00 -0.00000000000E+00 -0.24816102489E+04  0.24816102489E+04  0.00000000000E+00 0. -1.
         25    2    1    2    0    0  0.70823110799E+02 -0.15892929603E+03 -0.58081965540E+03  0.61907261283E+03  0.12499997479E+03 0.  0.
          2    1    1    2  501    0 -0.16140275190E+03  0.12133121220E+03 -0.18105644663E+04  0.18217891749E+04  0.00000000000E+00 0. -1.
          1    1    1    2  502    0  0.90579641105E+02  0.37598083835E+02 -0.28769151318E+02  0.10220543703E+03  0.00000000000E+00 0. -1.
         22    1    3    3    0    0  0.21140360620E+02 -0.12392513108E+03 -0.51222745617E+03  0.52742897135E+03  0.00000000000E+00 0.  1.
         22    1    3    3    0    0  0.49682750179E+02 -0.35004164946E+02 -0.68592199228E+02  0.91643641481E+02  0.00000000000E+00 0.  1.
</event>
<event>
 7    1  0.6152634E-006  0.6958617E+02  0.7818608E-02  0.1465650E+00
          2   -1    0    0  502    0  0.00000000000E+00  0.00000000000E+00  0.20922248357E+04  0.20922248357E+04  0.00000000000E+00 0. -1.
          1   -1    0    0  501    0 -0.00000000000E+00 -0.00000000000E+00 -0.17018095239E+03  0.17018095239E+03  0.00000000000E+00 0. -1.
         25    2    1    2    0    0  0.30584224954E+02 -0.33547539360E+02  0.42827285803E+03  0.44844552551E+03  0.12499966484E+03 0.  0.
          2    1    1    2  501    0  0.30794501542E+02 -0.32920754785E+01 -0.15781422967E+03  0.16082434570E+03  0.00000000000E+00 0. -1.
          1    1    1    2  502    0 -0.61378726496E+02  0.36839614839E+02  0.16515852549E+04  0.16531359169E+04  0.00000000000E+00 0. -1.
         22    1    3    3    0    0  0.38054539661E+02 -0.78475033533E+02  0.26864741314E+03  0.28244983885E+03  0.00000000000E+00 0.  1.
         22    1    3    3    0    0 -0.74703147070E+01  0.44927494173E+02  0.15962544489E+03  0.16599568667E+03  0.00000000000E+00 0.  1.
</event>
<event>
 7    1  0.6152634E-006  0.4294779E+02  0.7818608E-02  0.1511878E+00
          2   -1    0    0  502    0  0.00000000000E+00  0.00000000000E+00  0.51932699052E+03  0.51932699052E+03  0.00000000000E+00 0. -1.
          1   -1    0    0  501    0 -0.00000000000E+00 -0.00000000000E+00 -0.32889903128E+03  0.32889903128E+03  0.00000000000E+00 0. -1.
         25    2    1    2    0    0  0.87912698923E+01  0.33630530080E-01  0.14793309188E+03  0.19387103387E+03  0.12499796215E+03 0.  0.
          2    1    1    2  501    0  0.36316119915E+02  0.13205421052E+01 -0.30337990507E+03  0.30554863966E+03  0.00000000000E+00 0. -1.
          1    1    1    2  502    0 -0.45107389807E+02 -0.13541726353E+01  0.34587477242E+03  0.34880634827E+03  0.00000000000E+00 0. -1.
         22    1    3    3    0    0 -0.13044160051E+02 -0.21881563741E+00  0.16539635564E+03  0.16591007339E+03  0.00000000000E+00 0.  1.
         22    1    3    3    0    0  0.21835429943E+02  0.25244616749E+00 -0.17463263760E+02  0.27960960481E+02  0.00000000000E+00 0.  1.
</event>
<event>
 7    1  0.6152634E-006  0.5545214E+02  0.7818608E-02  0.1533940E+00
          2   -1    0    0  502    0  0.00000000000E+00  0.00000000000E+00  0.38449038131E+03  0.38449038131E+03  0.00000000000E+00 0. -1.
          1   -1    0    0  501    0 -0.00000000000E+00 -0.00000000000E+00 -0.54182177302E+02  0.54182177302E+02  0.00000000000E+00 0. -1.
         25    2    1    2    0    0 -0.63869191765E+01 -0.66390794473E+02  0.23697255215E+03  0.27609772650E+03  0.12500173510E+03 0.  0.
          2    1    1    2  501    0  0.23737651286E+02  0.49379043277E+02 -0.10627634752E+02  0.55809610499E+02  0.00000000000E+00 0. -1.
          1    1    1    2  502    0 -0.17350732110E+02  0.17011751195E+02  0.10396328661E+03  0.10676522161E+03  0.00000000000E+00 0. -1.
         22    1    3    3    0    0 -0.17405351782E+02 -0.82610057291E+02  0.74950504055E+02  0.11289351573E+03  0.00000000000E+00 0.  1.
         22    1    3    3    0    0  0.11018432605E+02  0.16219262818E+02  0.16202204809E+03  0.16320421076E+03  0.00000000000E+00 0.  1.
</event>
<event>
 7    1  0.6152634E-006  0.1220166E+03  0.7818608E-02  0.1341567E+00
          2   -1    0    0  502    0  0.00000000000E+00  0.00000000000E+00  0.86128644511E+03  0.86128644511E+03  0.00000000000E+00 0. -1.
          1   -1    0    0  501    0 -0.00000000000E+00 -0.00000000000E+00 -0.19179555437E+03  0.19179555437E+03  0.00000000000E+00 0. -1.
         25    2    1    2    0    0 -0.88973892496E+02 -0.73195709191E+02  0.74186181824E+02  0.18546856356E+03  0.12498413142E+03 0.  0.
          2    1    1    2  501    0 -0.29012072833E+02  0.37009757040E+02 -0.12669585861E+03  0.13514164079E+03  0.00000000000E+00 0. -1.
          1    1    1    2  502    0  0.11798596533E+03  0.36185952151E+02  0.72200056753E+03  0.73247179513E+03  0.00000000000E+00 0. -1.
         22    1    3    3    0    0  0.25433736375E+02 -0.11874875913E+02  0.44014516944E+02  0.52203116054E+02  0.00000000000E+00 0.  1.
         22    1    3    3    0    0 -0.11440762887E+03 -0.61320833277E+02  0.30171664880E+02  0.13326544751E+03  0.00000000000E+00 0.  1.
</event>
<event>
 7    1  0.6152634E-006  0.1037527E+03  0.7818608E-02  0.1287254E+00
          2   -1    0    0  502    0  0.00000000000E+00  0.00000000000E+00  0.27413987733E+03  0.27413987733E+03  0.00000000000E+00 0. -1.
          1   -1    0    0  501    0 -0.00000000000E+00 -0.00000000000E+00 -0.13899964018E+04  0.13899964018E+04  0.00000000000E+00 0. -1.
         25    2    1    2    0    0 -0.10423692419E+03 -0.29000037466E+01 -0.44335908422E+03  0.47229148476E+03  0.12497288758E+03 0.  0.
          2    1    1    2  501    0  0.69495526949E+02  0.86189289614E+02 -0.92091323030E+03  0.92754482353E+03  0.00000000000E+00 0. -1.
          1    1    1    2  502    0  0.34741397242E+02 -0.83289285867E+02  0.24841579007E+03  0.26429997082E+03  0.00000000000E+00 0. -1.
         22    1    3    3    0    0 -0.40947399769E+02  0.62106953432E+01 -0.38008564364E+03  0.38233540091E+03  0.00000000000E+00 0. -1.
         22    1    3    3    0    0 -0.63289524422E+02 -0.91106990898E+01 -0.63273440577E+02  0.89956083851E+02  0.00000000000E+00 0. -1.
</event>
<event>
 7    1  0.6152634E-006  0.1694438E+03  0.7818608E-02  0.1308730E+00
          2   -1    0    0  502    0  0.00000000000E+00  0.00000000000E+00  0.22623684865E+03  0.22623684865E+03  0.00000000000E+00 0. -1.
          1   -1    0    0  501    0 -0.00000000000E+00 -0.00000000000E+00 -0.23173927356E+04  0.23173927356E+04  0.00000000000E+00 0. -1.
         25    2    1    2    0    0  0.15890378993E+03 -0.59747292548E+02 -0.14757174693E+03  0.25733571064E+03  0.12499637617E+03 0.  0.
          2    1    1    2  501    0 -0.16906013942E+03  0.15596184174E+02 -0.21084715035E+04  0.21152958783E+04  0.00000000000E+00 0. -1.
          1    1    1    2  502    0  0.10156349486E+02  0.44151108374E+02  0.16488736341E+03  0.17099799537E+03  0.00000000000E+00 0. -1.
         22    1    3    3    0    0 -0.12183250082E+02 -0.17088011711E+02  0.77344455722E+01  0.22366344697E+02  0.00000000000E+00 0.  1.
         22    1    3    3    0    0  0.17108704001E+03 -0.42659280836E+02 -0.15530619250E+03  0.23496936594E+03  0.00000000000E+00 0.  1.
</event>
<event>
 7    1  0.6152634E-006  0.8313068E+02  0.7818608E-02  0.1418212E+00
          2   -1    0    0  502    0  0.00000000000E+00  0.00000000000E+00  0.65668311288E+02  0.65668311288E+02  0.00000000000E+00 0. -1.
          1   -1    0    0  501    0 -0.00000000000E+00 -0.00000000000E+00 -0.41295171263E+03  0.41295171263E+03  0.00000000000E+00 0. -1.
         25    2    1    2    0    0 -0.57340889811E+02  0.40690830617E+02 -0.13361914625E+03  0.19601642302E+03  0.12499856202E+03 0.  0.
          2    1    1    2  501    0  0.44914629258E+02 -0.75457810642E+02 -0.22696458901E+03  0.24336008253E+03  0.00000000000E+00 0. -1.
          1    1    1    2  502    0  0.12426260554E+02  0.34766980026E+02  0.13300333914E+02  0.39243518365E+02  0.00000000000E+00 0. -1.
         22    1    3    3    0    0 -0.41609031953E+02  0.53518298550E+02 -0.15337659852E+03  0.16768989472E+03  0.00000000000E+00 0. -1.
         22    1    3    3    0    0 -0.15731857858E+02 -0.12827467933E+02  0.19757452266E+02  0.28326528296E+02  0.00000000000E+00 0. -1.
</event>
<event>
 7    1  0.6152634E-006  0.5234111E+02  0.7818608E-02  0.1484872E+00
          2   -1    0    0  502    0  0.00000000000E+00  0.00000000000E+00  0.57060468106E+03  0.57060468106E+03  0.00000000000E+00 0. -1.
          1   -1    0    0  501    0 -0.00000000000E+00 -0.00000000000E+00 -0.11890519105E+03  0.11890519105E+03  0.00000000000E+00 0. -1.
         25    2    1    2    0    0  0.54190837208E+02  0.68164379177E+02  0.23918046978E+03  0.28357624980E+03  0.12500065158E+03 0.  0.
          2    1    1    2  501    0 -0.34530390516E+02 -0.38110035201E+02 -0.88727521511E+02  0.10255386743E+03  0.00000000000E+00 0. -1.
          1    1    1    2  502    0 -0.19660446692E+02 -0.30054343975E+02  0.30124654174E+03  0.30337975488E+03  0.00000000000E+00 0. -1.
         22    1    3    3    0    0  0.61906256847E+02  0.24114654591E+02  0.22799594883E+03  0.23747853353E+03  0.00000000000E+00 0.  1.
         22    1    3    3    0    0 -0.77154196384E+01  0.44049724586E+02  0.11184520953E+02  0.46097716269E+02  0.00000000000E+00 0.  1.
</event>
<event>
 7    1  0.6152634E-006  0.1074004E+03  0.7818608E-02  0.1337754E+00
          2   -1    0    0  502    0  0.00000000000E+00  0.00000000000E+00  0.21900461234E+03  0.21900461234E+03  0.00000000000E+00 0. -1.
          1   -1    0    0  501    0 -0.00000000000E+00 -0.00000000000E+00 -0.16532050653E+04  0.16532050653E+04  0.00000000000E+00 0. -1.
         25    2    1    2    0    0  0.10025218494E+03  0.50265376943E+02 -0.93368699671E+03  0.94866978887E+03  0.12500340709E+03 0.  0.
          2    1    1    2  501    0  0.71879263335E+01 -0.54750769666E+02 -0.69719647091E+03  0.69937989112E+03  0.00000000000E+00 0. -1.
          1    1    1    2  502    0 -0.10744011128E+03  0.44853927234E+01  0.19668301469E+03  0.22415999761E+03  0.00000000000E+00 0. -1.
         22    1    3    3    0    0 -0.17691834951E+02 -0.18691976593E+02 -0.77788234565E+02  0.81935343104E+02  0.00000000000E+00 0. -1.
         22    1    3    3    0    0  0.11794401989E+03  0.68957353536E+02 -0.85589876214E+03  0.86673444576E+03  0.00000000000E+00 0. -1.
</event>
<event>
 7    1  0.6152634E-006  0.1232483E+03  0.7818608E-02  0.1361825E+00
          2   -1    0    0  502    0  0.00000000000E+00  0.00000000000E+00  0.59694314759E+03  0.59694314759E+03  0.00000000000E+00 0. -1.
          1   -1    0    0  501    0 -0.00000000000E+00 -0.00000000000E+00 -0.37435852343E+03  0.37435852343E+03  0.00000000000E+00 0. -1.
         25    2    1    2    0    0  0.37782951845E+01  0.12797380335E+03  0.30515018860E+02  0.18151385240E+03  0.12499816950E+03 0.  0.
          2    1    1    2  501    0  0.34238369019E+02 -0.11848300254E+03 -0.28529832792E+03  0.31081445223E+03  0.00000000000E+00 0. -1.
          1    1    1    2  502    0 -0.38016664203E+02 -0.94908008095E+01  0.47736793322E+03  0.47897336640E+03  0.00000000000E+00 0. -1.
         22    1    3    3    0    0 -0.28735834367E+02  0.84856720950E+02 -0.35375087322E+02  0.96321379092E+02  0.00000000000E+00 0. -1.
         22    1    3    3    0    0  0.32514129551E+02  0.43117082396E+02  0.65890106182E+02  0.85192473303E+02  0.00000000000E+00 0. -1.
</event>
<event>
 7    1  0.6152634E-006  0.4840528E+03  0.7818608E-02  0.1028308E+00
          2   -1    0    0  502    0  0.00000000000E+00  0.00000000000E+00  0.78419465977E+03  0.78419465977E+03  0.00000000000E+00 0. -1.
          1   -1    0    0  501    0 -0.00000000000E+00 -0.00000000000E+00 -0.20946314670E+04  0.20946314670E+04  0.00000000000E+00 0. -1.
         25    2    1    2    0    0  0.31340179146E+03  0.15720806185E+03 -0.15529296932E+03  0.40333117136E+03  0.12500027949E+03 0.  0.
          2    1    1    2  501    0  0.71623588240E+02 -0.47872456484E+03 -0.16806770686E+04  0.17489947274E+04  0.00000000000E+00 0. -1.
          1    1    1    2  502    0 -0.38502537970E+03  0.32151650299E+03  0.52553323073E+03  0.72650022802E+03  0.00000000000E+00 0. -1.
         22    1    3    3    0    0  0.27305723618E+03  0.16862877366E+03 -0.10460264632E+03  0.33754648740E+03  0.00000000000E+00 0.  1.
         22    1    3    3    0    0  0.40344555279E+02 -0.11420711809E+02 -0.50690322996E+02  0.65784683965E+02  0.00000000000E+00 0.  1.
</event>
<event>
 7    1  0.6152634E-006  0.3175922E+02  0.7818608E-02  0.1602272E+00
          2   -1    0    0  502    0  0.00000000000E+00  0.00000000000E+00  0.41110629138E+03  0.41110629138E+03  0.00000000000E+00 0. -1.
          1   -1    0    0  501    0 -0.00000000000E+00 -0.00000000000E+00 -0.82590681322E+02  0.82590681322E+02  0.00000000000E+00 0. -1.
         25    2    1    2    0    0  0.28175387485E+01 -0.10488612490E+02  0.30289617715E+03  0.32785927310E+03  0.12501063677E+03 0.  0.
          2    1    1    2  501    0  0.37317273524E+01 -0.27380947587E+02 -0.63245132865E+02  0.69018757674E+02  0.00000000000E+00 0. -1.
          1    1    1    2  502    0 -0.65492661008E+01  0.37869560077E+02  0.88864565774E+02  0.96818941933E+02  0.00000000000E+00 0. -1.
         22    1    3    3    0    0 -0.44769647540E+02 -0.44823818367E+02  0.19507185452E+03  0.20510125416E+03  0.00000000000E+00 0. -1.
         22    1    3    3    0    0  0.47587186288E+02  0.34335205877E+02  0.10782432264E+03  0.12275801894E+03  0.00000000000E+00 0. -1.
</event>
<event>
 7    1  0.6152634E-006  0.5457452E+02  0.7818608E-02  0.1470946E+00
          2   -1    0    0  502    0  0.00000000000E+00  0.00000000000E+00  0.13210990380E+04  0.13210990380E+04  0.00000000000E+00 0. -1.
          1   -1    0    0  501    0 -0.00000000000E+00 -0.00000000000E+00 -0.20261847011E+03  0.20261847011E+03  0.00000000000E+00 0. -1.
         25    2    1    2    0    0 -0.27091723798E+02  0.46377999405E+02  0.55839118713E+02  0.14706394230E+03  0.12499966247E+03 0.  0.
          2    1    1    2  501    0  0.52244751730E+02 -0.17873592668E+02 -0.15184455461E+03  0.16157273335E+03  0.00000000000E+00 0. -1.
          1    1    1    2  502    0 -0.25153027932E+02 -0.28504406738E+02  0.12144860038E+04  0.12150808324E+04  0.00000000000E+00 0. -1.
         22    1    3    3    0    0 -0.49552663545E+02  0.73174516057E+02  0.66399543916E+02  0.11053902341E+03  0.00000000000E+00 0.  1.
         22    1    3    3    0    0  0.22460939747E+02 -0.26796516651E+02 -0.10560425203E+02  0.36524918883E+02  0.00000000000E+00 0.  1.
</event>
<event>
 7    1  0.6152634E-006  0.1549311E+03  0.7818608E-02  0.1383011E+00
          2   -1    0    0  502    0  0.00000000000E+00  0.00000000000E+00  0.71678046000E+03  0.71678046000E+03  0.00000000000E+00 0. -1.
          1   -1    0    0  501    0 -0.00000000000E+00 -0.00000000000E+00 -0.25491715923E+03  0.25491715923E+03  0.00000000000E+00 0. -1.
         25    2    1    2    0    0 -0.17605109538E+03  0.15697502885E+02  0.21695301535E+03  0.30648633463E+03  0.12499945067E+03 0.  0.
          2    1    1    2  501    0  0.15090957551E+03 -0.22972318551E+02 -0.18197680831E+03  0.23752260137E+03  0.00000000000E+00 0. -1.
          1    1    1    2  502    0  0.25141519871E+02  0.72748156658E+01  0.42688709374E+03  0.42768868323E+03  0.00000000000E+00 0. -1.
         22    1    3    3    0    0  0.15787997131E+02 -0.88268197951E+01  0.41860131719E+02  0.45600923550E+02  0.00000000000E+00 0.  1.
         22    1    3    3    0    0 -0.19183909251E+03  0.24524322680E+02  0.17509288363E+03  0.26088541108E+03  0.00000000000E+00 0.  1.
</event>
<event>
 7    1  0.6152634E-006  0.6897433E+02  0.7818608E-02  0.1469314E+00
          2   -1    0    0  502    0  0.00000000000E+00  0.00000000000E+00  0.32627458849E+03  0.32627458849E+03  0.00000000000E+00 0. -1.
          1   -1    0    0  501    0 -0.00000000000E+00 -0.00000000000E+00 -0.18560531520E+04  0.18560531520E+04  0.00000000000E+00 0. -1.
         25    2    1    2    0    0 -0.34764443904E+02  0.33768862502E+02  0.19127378907E+02  0.13542849169E+03  0.12500446833E+03 0.  0.
          2    1    1    2  501    0  0.64157462109E+02 -0.25883260505E+02 -0.17963043781E+04  0.17976360983E+04  0.00000000000E+00 0. -1.
          1    1    1    2  502    0 -0.29393018205E+02 -0.78856019970E+01  0.24739843567E+03  0.24926315052E+03  0.00000000000E+00 0. -1.
         22    1    3    3    0    0 -0.70159582567E+02  0.32103443648E+02 -0.22875615403E+02  0.80475411774E+02  0.00000000000E+00 0. -1.
         22    1    3    3    0    0  0.35395138663E+02  0.16654188534E+01  0.42002994310E+02  0.54953079913E+02  0.00000000000E+00 0. -1.
</event>
<event>
 7    1  0.6152634E-006  0.1635410E+03  0.7818608E-02  0.1200856E+00
          2   -1    0    0  502    0  0.00000000000E+00  0.00000000000E+00  0.41351639129E+03  0.41351639129E+03  0.00000000000E+00 0. -1.
          1   -1    0    0  501    0 -0.00000000000E+00 -0.00000000000E+00 -0.45286595558E+03  0.45286595558E+03  0.00000000000E+00 0. -1.
         25    2    1    2    0    0 -0.42007162198E+02 -0.77798115358E+02  0.33459157355E+02  0.15672362962E+03  0.12500252974E+03 0.  0.
          2    1    1    2  501    0 -0.12737670049E+03 -0.50466522708E+02 -0.34100565726E+03  0.36750041092E+03  0.00000000000E+00 0. -1.
          1    1    1    2  502    0  0.16938386269E+03  0.12826463807E+03  0.26819693561E+03  0.34215830633E+03  0.00000000000E+00 0. -1.
         22    1    3    3    0    0 -0.58653877928E+02 -0.62118480422E+02  0.72120671434E+02  0.11180507258E+03  0.00000000000E+00 0. -1.
         22    1    3    3    0    0  0.16646715730E+02 -0.15679634936E+02 -0.38661514079E+02  0.44918557047E+02  0.00000000000E+00 0. -1.
</event>
<event>
 7    1  0.6152634E-006  0.8846453E+02  0.7818608E-02  0.1375618E+00
          2   -1    0    0  502    0  0.00000000000E+00  0.00000000000E+00  0.59835350717E+03  0.59835350717E+03  0.00000000000E+00 0. -1.
          1   -1    0    0  501    0 -0.00000000000E+00 -0.00000000000E+00 -0.15947408747E+03  0.15947408747E+03  0.00000000000E+00 0. -1.
         25    2    1    2    0    0 -0.30800317816E+02  0.11611082956E+03  0.35130146931E+03  0.39174941718E+03  0.12499799681E+03 0.  0.
          2    1    1    2  501    0  0.50427570782E+02 -0.71552784312E+02 -0.12242698628E+03  0.15050284983E+03  0.00000000000E+00 0. -1.
          1    1    1    2  502    0 -0.19627252967E+02 -0.44558045250E+02  0.21000493667E+03  0.21557532763E+03  0.00000000000E+00 0. -1.
         22    1    3    3    0    0  0.13838835243E+02  0.21070698144E+01 -0.51053050448E+01  0.14900243074E+02  0.00000000000E+00 0.  1.
         22    1    3    3    0    0 -0.44639153058E+02  0.11400375975E+03  0.35640677435E+03  0.37684917411E+03  0.00000000000E+00 0.  1.
</event>
<event>
 7    1  0.6152634E-006  0.1421167E+03  0.7818608E-02  0.1251048E+00
          2   -1    0    0  502    0  0.00000000000E+00  0.00000000000E+00  0.12511794400E+04  0.12511794400E+04  0.00000000000E+00 0. -1.
          1   -1    0    0  501    0 -0.00000000000E+00 -0.00000000000E+00 -0.95596678913E+03  0.95596678913E+03  0.00000000000E+00 0. -1.
         25    2    1    2    0    0  0.14097563983E+02 -0.23046842100E+03  0.10878172760E+03  0.28420654949E+03  0.12500185648E+03 0.  0.
          2    1    1    2  501    0 -0.69769975669E+00  0.93550488520E+02 -0.86122421571E+03  0.86629055773E+03  0.00000000000E+00 0. -1.
          1    1    1    2  502    0 -0.13399864226E+02  0.13691793249E+03  0.10476551390E+04  0.10566491219E+04  0.00000000000E+00 0. -1.
         22    1    3    3    0    0 -0.29071199035E+02 -0.52666382057E+02  0.78262472918E+02  0.98711180114E+02  0.00000000000E+00 0. -1.
         22    1    3    3    0    0  0.43168763018E+02 -0.17780203895E+03  0.30519254679E+02  0.18549536938E+03  0.00000000000E+00 0. -1.
</event>
<event>
 7    1  0.6152634E-006  0.8528103E+02  0.7818608E-02  0.1418388E+00
          2   -1    0    0  502    0  0.00000000000E+00  0.00000000000E+00  0.23154262520E+04  0.23154262520E+04  0.00000000000E+00 0. -1.
          1   -1    0    0  501    0 -0.00000000000E+00 -0.00000000000E+00 -0.13301673305E+02  0.13301673305E+02  0.00000000000E+00 0. -1.
         25    2    1    2    0    0  0.15294280767E+02  0.65147370208E+02  0.84211004387E+03  0.85396190135E+03  0.12499403226E+03 0.  0.
          2    1    1    2  501    0  0.34314012202E+02  0.10691969443E+02  0.48604919146E+02  0.60450043913E+02  0.00000000000E+00 0. -1.
          1    1    1    2  502    0 -0.49608292969E+02 -0.75839339650E+02  0.14114096156E+04  0.14143159800E+04  0.00000000000E+00 0. -1.
         22    1    3    3    0    0 -0.24789210297E+02 -0.13042932546E+02  0.49880763182E+03  0.49959351137E+03  0.00000000000E+00 0.  1.
         22    1    3    3    0    0  0.40083491064E+02  0.78190302754E+02  0.34330241205E+03  0.35436838998E+03  0.00000000000E+00 0.  1.
</event>
<event>
 7    1  0.6152634E-006  0.1084314E+03  0.7818608E-02  0.1413764E+00
          2   -1    0    0  502    0  0.00000000000E+00  0.00000000000E+00  0.79519222949E+03  0.79519222949E+03  0.00000000000E+00 0. -1.
          1   -1    0    0  501    0 -0.00000000000E+00 -0.00000000000E+00 -0.26249344992E+03  0.26249344992E+03  0.00000000000E+00 0. -1.
         25    2    1    2    0    0 -0.79684242592E+02 -0.72581376198E+02  0.43018129454E+03  0.46075846681E+03  0.12499913551E+03 0.  0.
          2    1    1    2  501    0  0.96918978677E+02  0.48890174844E+02 -0.23462212034E+03  0.25851707289E+03  0.00000000000E+00 0. -1.
          1    1    1    2  502    0 -0.17234736086E+02  0.23691201355E+02  0.33713960537E+03  0.33841013971E+03  0.00000000000E+00 0. -1.
         22    1    3    3    0    0 -0.26371144956E+02  0.18106987976E+02  0.20989464234E+02  0.38260396087E+02  0.00000000000E+00 0.  1.
         22    1    3    3    0    0 -0.53313097635E+02 -0.90688364175E+02  0.40919183030E+03  0.42249807072E+03  0.00000000000E+00 0.  1.
</event>
<event>
 7    1  0.6152634E-006  0.9043161E+02  0.7818608E-02  0.1347863E+00
          2   -1    0    0  502    0  0.00000000000E+00  0.00000000000E+00  0.50159202918E+03  0.50159202918E+03  0.00000000000E+00 0. -1.
          1   -1    0    0  501    0 -0.00000000000E+00 -0.00000000000E+00 -0.11428446348E+04  0.11428446348E+04  0.00000000000E+00 0. -1.
         25    2    1    2    0    0 -0.95432769907E+02  0.28486887175E+02 -0.63345490297E+02  0.17191455114E+03  0.12499218151E+03 0.  0.
          2    1    1    2  501    0  0.85412156549E+02  0.30777969531E+02 -0.10211723910E+04  0.10252002595E+04  0.00000000000E+00 0. -1.
          1    1    1    2  502    0  0.10020613358E+02 -0.59264856706E+02  0.44326527564E+03  0.44732185339E+03  0.00000000000E+00 0. -1.
         22    1    3    3    0    0  0.16739007154E+02 -0.23877475206E+02  0.63605604590E+01  0.29846020037E+02  0.00000000000E+00 0. -1.
         22    1    3    3    0    0 -0.11217177706E+03  0.52364362381E+02 -0.69706050756E+02  0.14206853110E+03  0.00000000000E+00 0. -1.
</event>
<event>
 7    1  0.6152634E-006  0.4440686E+02  0.7818608E-02  0.1521038E+00
          2   -1    0    0  502    0  0.00000000000E+00  0.00000000000E+00  0.47112023972E+03  0.47112023972E+03  0.00000000000E+00 0. -1.
          1   -1    0    0  501    0 -0.00000000000E+00 -0.00000000000E+00 -0.17695825942E+04  0.17695825942E+04  0.00000000000E+00 0. -1.
         25    2    1    2    0    0  0.60338656063E+02 -0.46165112890E+02  0.13216341071E+03  0.19713959272E+03  0.12499952329E+03 0.  0.
          2    1    1    2  501    0 -0.26761169830E+02  0.19391553991E+02 -0.17354319547E+04  0.17357466007E+04  0.00000000000E+00 0. -1.
          1    1    1    2  502    0 -0.33577486233E+02  0.26773558898E+02  0.30480618947E+03  0.30781664051E+03  0.00000000000E+00 0. -1.
         22    1    3    3    0    0 -0.71720181712E+01  0.33199952930E+02  0.77139845931E+01  0.34830737539E+02  0.00000000000E+00 0.  1.
         22    1    3    3    0    0  0.67510674234E+02 -0.79365065819E+02  0.12444942612E+03  0.16230885518E+03  0.00000000000E+00 0.  1.
</event>
<event>
 7    1  0.6152634E-006  0.4371402E+02  0.7818608E-02  0.1565017E+00
          2   -1    0    0  502    0  0.00000000000E+00  0.00000000000E+00  0.11064741105E+04  0.11064741105E+04  0.00000000000E+00 0. -1.
          1   -1    0    0  501    0 -0.00000000000E+00 -0.00000000000E+00 -0.64157132554E+02  0.64157132554E+02  0.00000000000E+00 0. -1.
         25    2    1    2    0    0 -0.49933100878E+02 -0.44370828516E+02  0.14277461840E+03  0.20117871964E+03  0.12500480228E+03 0.  0.
          2    1    1    2  501    0  0.22982481056E+02  0.10439927340E+02 -0.29826312087E+02  0.39074229501E+02  0.00000000000E+00 0. -1.
          1    1    1    2  502    0  0.26950619822E+02  0.33930901176E+02  0.92936867165E+03  0.93037829393E+03  0.00000000000E+00 0. -1.
         22    1    3    3    0    0 -0.39775423239E+02 -0.20431691002E+02 -0.10319629643E+02  0.45891535679E+02  0.00000000000E+00 0. -1.
         22    1    3    3    0    0 -0.10157677639E+02 -0.23939137515E+02  0.15309424804E+03  0.15528718396E+03  0.00000000000E+00 0. -1.
</event>
<event>
 7    1  0.6152634E-006  0.7125602E+02  0.7818608E-02  0.1361546E+00
          2   -1    0    0  502    0  0.00000000000E+00  0.00000000000E+00  0.25567681757E+04  0.25567681757E+04  0.00000000000E+00 0. -1.
          1   -1    0    0  501    0 -0.00000000000E+00 -0.00000000000E+00 -0.28383442114E+02  0.28383442114E+02  0.00000000000E+00 0. -1.
         25    2    1    2    0    0  0.49371080345E+02  0.40728385900E+02  0.16067351879E+04  0.16128602299E+04  0.12499540886E+03 0.  0.
          2    1    1    2  501    0 -0.57576727172E+02  0.41980242078E+02  0.30891384116E+02  0.77664006137E+02  0.00000000000E+00 0. -1.
          1    1    1    2  502    0  0.82056468265E+01 -0.82708627978E+02  0.89075816163E+03  0.89462738181E+03  0.00000000000E+00 0. -1.
         22    1    3    3    0    0 -0.37791169180E+01  0.13066346325E+00 -0.85710040553E+00  0.38772952848E+01  0.00000000000E+00 0. -1.
         22    1    3    3    0    0  0.53150197263E+02  0.40597722437E+02  0.16075922883E+04  0.16089829346E+04  0.00000000000E+00 0. -1.
</event>
<event>
 7    1  0.6152634E-006  0.6564080E+02  0.7818608E-02  0.1502695E+00
          2   -1    0    0  502    0  0.00000000000E+00  0.00000000000E+00  0.29795984047E+02  0.29795984047E+02  0.00000000000E+00 0. -1.
          1   -1    0    0  501    0 -0.00000000000E+00 -0.00000000000E+00 -0.91104087439E+03  0.91104087439E+03  0.00000000000E+00 0. -1.
         25    2    1    2    0    0 -0.25404148274E+02  0.64651686634E+02 -0.33132954361E+03  0.36087394767E+03  0.12500211319E+03 0.  0.
          2    1    1    2  501    0  0.44634915381E+02 -0.48197044440E+02 -0.55073611283E+03  0.55463997038E+03  0.00000000000E+00 0. -1.
          1    1    1    2  502    0 -0.19230767107E+02 -0.16454642194E+02  0.82076609406E+00  0.25322940395E+02  0.00000000000E+00 0. -1.
         22    1    3    3    0    0 -0.21845412074E+02  0.82748028982E+02 -0.11292262390E+03  0.14168972199E+03  0.00000000000E+00 0.  1.
         22    1    3    3    0    0 -0.35587361994E+01 -0.18096342348E+02 -0.21840691970E+03  0.21918422567E+03  0.00000000000E+00 0.  1.
</event>
<event>
 7    1  0.6152634E-006  0.8857518E+02  0.7818608E-02  0.1373884E+00
          2   -1    0    0  502    0  0.00000000000E+00  0.00000000000E+00  0.36721507350E+03  0.36721507350E+03  0.00000000000E+00 0. -1.
          1   -1    0    0  501    0 -0.00000000000E+00 -0.00000000000E+00 -0.93669485840E+03  0.93669485840E+03  0.00000000000E+00 0. -1.
         25    2    1    2    0    0  0.11325193969E+03 -0.66863805650E+02 -0.27652238820E+03  0.33073632047E+03  0.12500044861E+03 0.  0.
          2    1    1    2  501    0 -0.66189894394E+02  0.52089830953E+02 -0.62845249597E+03  0.63407175643E+03  0.00000000000E+00 0. -1.
          1    1    1    2  502    0 -0.47062045296E+02  0.14773974697E+02  0.33549509926E+03  0.33910185500E+03  0.00000000000E+00 0. -1.
         22    1    3    3    0    0  0.78183069409E+02 -0.10308117356E+03 -0.17782746293E+03  0.21991118039E+03  0.00000000000E+00 0.  1.
         22    1    3    3    0    0  0.35068870281E+02  0.36217367914E+02 -0.98694925264E+02  0.11082514008E+03  0.00000000000E+00 0.  1.
</event>
<event>
 7    1  0.7870833E-006  0.8640913E+02  0.7818608E-02  0.1345538E+00
          2   -1    0    0  502    0  0.00000000000E+00  0.00000000000E+00  0.12177574865E+04  0.12177574865E+04  0.00000000000E+00 0. -1.
          1   -1    0    0  501    0 -0.00000000000E+00 -0.00000000000E+00 -0.65601926561E+03  0.65601926561E+03  0.00000000000E+00 0. -1.
         25    2    1    2    0    0  0.53637775995E+02 -0.42808579265E+02 -0.26529128594E+03  0.30118974536E+03  0.12500484326E+03 0.  0.
          2    1    1    2  501    0 -0.17763835253E+02  0.96014804243E+02 -0.36550715163E+03  0.37832509086E+03  0.00000000000E+00 0. -1.
          1    1    1    2  502    0 -0.35873940742E+02 -0.53206224978E+02  0.11925366585E+04  0.11942619159E+04  0.00000000000E+00 0. -1.
         22    1    3    3    0    0 -0.13016284939E+01  0.72481769290E+01 -0.20595211285E+03  0.20608372836E+03  0.00000000000E+00 0. -1.
         22    1    3    3    0    0  0.54939404489E+02 -0.50056756194E+02 -0.59339173088E+02  0.95106016997E+02  0.00000000000E+00 0. -1.
</event>
<event>
 7    1  0.6152634E-006  0.1425423E+03  0.7818608E-02  0.1262027E+00
          2   -1    0    0  502    0  0.00000000000E+00  0.00000000000E+00  0.32005486197E+04  0.32005486197E+04  0.00000000000E+00 0. -1.
          1   -1    0    0  501    0 -0.00000000000E+00 -0.00000000000E+00 -0.35646929935E+03  0.35646929935E+03  0.00000000000E+00 0. -1.
         25    2    1    2    0    0  0.13370484883E+03  0.17524469376E+03  0.57710123635E+03  0.63028899206E+03  0.12502274680E+03 0.  0.
          2    1    1    2  501    0 -0.44864836811E+02 -0.70639879522E+02 -0.32272187900E+03  0.33339504698E+03  0.00000000000E+00 0. -1.
          1    1    1    2  502    0 -0.88840012018E+02 -0.10460481424E+03  0.25896999630E+04  0.25933338800E+04  0.00000000000E+00 0. -1.
         22    1    3    3    0    0  0.64734580199E+02  0.10578748714E+03  0.46598907491E+03  0.48221092505E+03  0.00000000000E+00 0.  1.
         22    1    3    3    0    0  0.68970268629E+02  0.69457206622E+02  0.11111216145E+03  0.14807806701E+03  0.00000000000E+00 0.  1.
</event>
<event>
 7    1  0.6152634E-006  0.1131672E+03  0.7818608E-02  0.1327582E+00
          2   -1    0    0  502    0  0.00000000000E+00  0.00000000000E+00  0.99812803871E+03  0.99812803871E+03  0.00000000000E+00 0. -1.
          1   -1    0    0  501    0 -0.00000000000E+00 -0.00000000000E+00 -0.11508958054E+03  0.11508958054E+03  0.00000000000E+00 0. -1.
         25    2    1    2    0    0  0.65178245159E+02 -0.10305156246E+03  0.52145447844E+03  0.54991757227E+03  0.12500693999E+03 0.  0.
          2    1    1    2  501    0 -0.87757408340E+01  0.11310403630E+03 -0.66433946777E+02  0.13146484678E+03  0.00000000000E+00 0. -1.
          1    1    1    2  502    0 -0.56402504325E+02 -0.10052473841E+02  0.42801792651E+03  0.43183520020E+03  0.00000000000E+00 0. -1.
         22    1    3    3    0    0  0.94896406142E+02 -0.63806806172E+02  0.26251470263E+03  0.28634001730E+03  0.00000000000E+00 0. -1.
         22    1    3    3    0    0 -0.29718160982E+02 -0.39244756284E+02  0.25893977581E+03  0.26357755497E+03  0.00000000000E+00 0. -1.
</event>
<event>
 7    1  0.6152634E-006  0.5236893E+02  0.7818608E-02  0.1463435E+00
          2   -1    0    0  502    0  0.00000000000E+00  0.00000000000E+00  0.10542692971E+03  0.10542692971E+03  0.00000000000E+00 0. -1.
          1   -1    0    0  501    0 -0.00000000000E+00 -0.00000000000E+00 -0.22788244190E+03  0.22788244190E+03  0.00000000000E+00 0. -1.
         25    2    1    2    0    0  0.36292685450E+02  0.74952265551E+01 -0.25434358494E+01  0.13040265998E+03  0.12500018890E+03 0.  0.
          2    1    1    2  501    0 -0.56832523503E+00  0.41811054109E+02 -0.13403183033E+03  0.14040305831E+03  0.00000000000E+00 0. -1.
          1    1    1    2  502    0 -0.35724360215E+02 -0.49306280664E+02  0.14119753995E+02  0.62503653322E+02  0.00000000000E+00 0. -1.
         22    1    3    3    0    0 -0.67430250809E+01  0.19155259283E+02 -0.56715270452E+02  0.60241300184E+02  0.00000000000E+00 0.  1.
         22    1    3    3    0    0  0.43035710531E+02 -0.11660032727E+02  0.54171834602E+02  0.70161359795E+02  0.00000000000E+00 0.  1.
</event>
<event>
 7    1  0.6152634E-006  0.4534900E+02  0.7818608E-02  0.1494767E+00
          2   -1    0    0  502    0  0.00000000000E+00  0.00000000000E+00  0.86381665891E+03  0.86381665891E+03  0.00000000000E+00 0. -1.
          1   -1    0    0  501    0 -0.00000000000E+00 -0.00000000000E+00 -0.28229430916E+04  0.28229430916E+04  0.00000000000E+00 0. -1.
         25    2    1    2    0    0 -0.56632417758E+02 -0.49396804088E+02  0.31228847594E+03  0.34466852721E+03  0.12500010578E+03 0.  0.
          2    1    1    2  501    0  0.18810714876E+02  0.41249498957E+02 -0.28058706827E+04  0.28062369201E+04  0.00000000000E+00 0. -1.
          1    1    1    2  502    0  0.37821702882E+02  0.81473051311E+01  0.53445577405E+03  0.53585430315E+03  0.00000000000E+00 0. -1.
         22    1    3    3    0    0  0.24096671390E+02 -0.54607747946E+02  0.17965662803E+03  0.18931233373E+03  0.00000000000E+00 0. -1.
         22    1    3    3    0    0 -0.80729089148E+02  0.52109438584E+01  0.13263184791E+03  0.15535619347E+03  0.00000000000E+00 0. -1.
</event>
<event>
 7    1  0.6152634E-006  0.4745582E+02  0.7818608E-02  0.1510517E+00
          2   -1    0    0  502    0  0.00000000000E+00  0.00000000000E+00  0.69929901728E+03  0.69929901728E+03  0.00000000000E+00 0. -1.
          1   -1    0    0  501    0 -0.00000000000E+00 -0.00000000000E+00 -0.25744862476E+03  0.25744862476E+03  0.00000000000E+00 0. -1.
         25    2    1    2    0    0  0.29948407448E+02 -0.11375221351E+02  0.45090827574E+02  0.13669245454E+03  0.12500136650E+03 0.  0.
          2    1    1    2  501    0 -0.44507294825E+02 -0.18453915597E+02 -0.20844502838E+03  0.21394105765E+03  0.00000000000E+00 0. -1.
          1    1    1    2  502    0  0.14558887377E+02  0.29829136948E+02  0.60520459332E+03  0.60611412984E+03  0.00000000000E+00 0. -1.
         22    1    3    3    0    0 -0.33621590835E+02  0.32610503961E+02 -0.70088074448E+00  0.46843863767E+02  0.00000000000E+00 0.  1.
         22    1    3    3    0    0  0.63569998283E+02 -0.43985725311E+02  0.45791708319E+02  0.89848590772E+02  0.00000000000E+00 0.  1.
</event>
<event>
 7    1  0.6152634E-006  0.1183122E+03  0.7818608E-02  0.1314511E+00
          2   -1    0    0  502    0  0.00000000000E+00  0.00000000000E+00  0.92864804865E+03  0.92864804865E+03  0.00000000000E+00 0. -1.
          1   -1    0    0  501    0 -0.00000000000E+00 -0.00000000000E+00 -0.32894465366E+03  0.32894465366E+03  0.00000000000E+00 0. -1.
         25    2    1    2    0    0 -0.69048565211E+02  0.15748933633E+03  0.29072200567E+03  0.36015997454E+03  0.12500130904E+03 0.  0.
          2    1    1    2  501    0  0.26939659134E+02 -0.55370140699E+02 -0.28586278297E+03  0.29241943917E+03  0.00000000000E+00 0. -1.
          1    1    1    2  502    0  0.42108906077E+02 -0.10211919563E+03  0.59484417228E+03  0.60501328860E+03  0.00000000000E+00 0. -1.
         22    1    3    3    0    0 -0.76943799677E+02  0.17336225849E+03  0.23678466085E+03  0.30338390958E+03  0.00000000000E+00 0.  1.
         22    1    3    3    0    0  0.78952344655E+01 -0.15872922168E+02  0.53937344825E+02  0.56776064959E+02  0.00000000000E+00 0.  1.
</event>
<event>
 7    1  0.6152634E-006  0.7971538E+02  0.7818608E-02  0.1359986E+00
          2   -1    0    0  502    0  0.00000000000E+00  0.00000000000E+00  0.25497168126E+03  0.25497168126E+03  0.00000000000E+00 0. -1.
          1   -1    0    0  501    0 -0.00000000000E+00 -0.00000000000E+00 -0.13399325097E+04  0.13399325097E+04  0.00000000000E+00 0. -1.
         25    2    1    2    0    0  0.78352145252E+02 -0.10561382243E+03 -0.11790481431E+03  0.21637959068E+03  0.12500097548E+03 0.  0.
          2    1    1    2  501    0 -0.15903117992E+02  0.59433220483E+02 -0.11646187975E+04  0.11662427536E+04  0.00000000000E+00 0. -1.
          1    1    1    2  502    0 -0.62449027260E+02  0.46180601951E+02  0.19756278343E+03  0.21228184661E+03  0.00000000000E+00 0. -1.
         22    1    3    3    0    0  0.94705518686E+02 -0.76984427283E+02 -0.34707249466E+02  0.12688707767E+03  0.00000000000E+00 0.  1.
         22    1    3    3    0    0 -0.16353373434E+02 -0.28629395150E+02 -0.83197564840E+02  0.89492513009E+02  0.00000000000E+00 0.  1.
</event>
<event>
 7    1  0.6152634E-006  0.1128002E+03  0.7818608E-02  0.1362027E+00
          2   -1    0    0  502    0  0.00000000000E+00  0.00000000000E+00  0.68666849990E+03  0.68666849990E+03  0.00000000000E+00 0. -1.
          1   -1    0    0  501    0 -0.00000000000E+00 -0.00000000000E+00 -0.26676201414E+03  0.26676201414E+03  0.00000000000E+00 0. -1.
         25    2    1    2    0    0  0.65893086074E+02  0.28208390368E+02  0.32433849568E+03  0.35490538333E+03  0.12499903703E+03 0.  0.
          2    1    1    2  501    0 -0.10597370976E+03 -0.43050319270E+02 -0.23703317787E+03  0.26318906618E+03  0.00000000000E+00 0. -1.
          1    1    1    2  502    0  0.40080623683E+02  0.14841928901E+02  0.33260116796E+03  0.33533606453E+03  0.00000000000E+00 0. -1.
         22    1    3    3    0    0  0.59082032096E+02  0.21561936624E+02  0.49854088470E+02  0.80256051266E+02  0.00000000000E+00 0.  1.
         22    1    3    3    0    0  0.68110539784E+01  0.66464537438E+01  0.27448440721E+03  0.27464933206E+03  0.00000000000E+00 0.  1.
</event>
<event>
 7    1  0.6152634E-006  0.1320733E+03  0.7818608E-02  0.1280050E+00
          2   -1    0    0  502    0  0.00000000000E+00  0.00000000000E+00  0.50063389875E+03  0.50063389875E+03  0.00000000000E+00 0. -1.
          1   -1    0    0  501    0 -0.00000000000E+00 -0.00000000000E+00 -0.74354006156E+03  0.74354006156E+03  0.00000000000E+00 0. -1.
         25    2    1    2    0    0 -0.52408742061E+02  0.40758464301E+02  0.98473584671E+02  0.17242573277E+03  0.12500263112E+03 0.  0.
          2    1    1    2  501    0  0.12825445246E+03 -0.43437147736E+02 -0.69602440652E+03  0.70907401930E+03  0.00000000000E+00 0. -1.
          1    1    1    2  502    0 -0.75845710400E+02  0.26786834346E+01  0.35464465904E+03  0.36267420823E+03  0.00000000000E+00 0. -1.
         22    1    3    3    0    0 -0.52454697881E+02 -0.90583133848E+01 -0.89825201302E+01  0.53983646034E+02  0.00000000000E+00 0. -1.
         22    1    3    3    0    0  0.45955820257E-01  0.49816777686E+02  0.10745610480E+03  0.11844208673E+03  0.00000000000E+00 0. -1.
</event>
<event>
 7    1  0.6152634E-006  0.7990835E+02  0.7818608E-02  0.1365517E+00
          2   -1    0    0  502    0  0.00000000000E+00  0.00000000000E+00  0.68591070021E+03  0.68591070021E+03  0.00000000000E+00 0. -1.
          1   -1    0    0  501    0 -0.00000000000E+00 -0.00000000000E+00 -0.10543882628E+03  0.10543882628E+03  0.00000000000E+00 0. -1.
         25    2    1    2    0    0 -0.55204503931E+02  0.28235290448E+02  0.38541632605E+03  0.40989847126E+03  0.12500497379E+03 0.  0.
          2    1    1    2  501    0  0.24148563260E+02 -0.77928370067E+02 -0.71529842258E+02  0.10850116268E+03  0.00000000000E+00 0. -1.
          1    1    1    2  502    0  0.31055940671E+02  0.49693079619E+02  0.26658539014E+03  0.27294989256E+03  0.00000000000E+00 0. -1.
         22    1    3    3    0    0 -0.20110013530E+02  0.64515515032E+02  0.10424592971E+03  0.12423316057E+03  0.00000000000E+00 0. -1.
         22    1    3    3    0    0 -0.35094490401E+02 -0.36280224585E+02  0.28117039634E+03  0.28566531069E+03  0.00000000000E+00 0. -1.
</event>
<event>
 7    1  0.6152634E-006  0.2719781E+03  0.7818608E-02  0.1234272E+00
          2   -1    0    0  502    0  0.00000000000E+00  0.00000000000E+00  0.10116982028E+04  0.10116982028E+04  0.00000000000E+00 0. -1.
          1   -1    0    0  501    0 -0.00000000000E+00 -0.00000000000E+00 -0.22296444698E+03  0.22296444698E+03  0.00000000000E+00 0. -1.
         25    2    1    2    0    0 -0.23900588763E+03 -0.43248695928E+02  0.12470897149E+03  0.30028789889E+03  0.12500492241E+03 0.  0.
          2    1    1    2  501    0  0.29371886457E+03  0.24241947743E+02  0.28362549869E+02  0.29607917466E+03  0.00000000000E+00 0. -1.
          1    1    1    2  502    0 -0.54712976938E+02  0.19006748185E+02  0.63566223445E+03  0.63829557622E+03  0.00000000000E+00 0. -1.
         22    1    3    3    0    0 -0.16267930959E+03  0.32195931309E+02  0.74302209308E+02  0.18171943779E+03  0.00000000000E+00 0. -1.
         22    1    3    3    0    0 -0.76326578040E+02 -0.75444627237E+02  0.50406762180E+02  0.11856846110E+03  0.00000000000E+00 0. -1.
</event>
<event>
 7    1  0.6152634E-006  0.3436979E+03  0.7818608E-02  0.1126045E+00
          2   -1    0    0  502    0  0.00000000000E+00  0.00000000000E+00  0.25241897077E+04  0.25241897077E+04  0.00000000000E+00 0. -1.
          1   -1    0    0  501    0 -0.00000000000E+00 -0.00000000000E+00 -0.12415018383E+04  0.12415018383E+04  0.00000000000E+00 0. -1.
         25    2    1    2    0    0 -0.35467459111E+03  0.31084557793E+03  0.77258102726E+03  0.91374247889E+03  0.12499934061E+03 0.  0.
          2    1    1    2  501    0  0.11840697174E+03 -0.10010012339E+03 -0.11507687498E+04  0.11611670686E+04  0.00000000000E+00 0. -1.
          1    1    1    2  502    0  0.23626761937E+03 -0.21074545454E+03  0.16608755920E+04  0.16907819986E+04  0.00000000000E+00 0. -1.
         22    1    3    3    0    0 -0.22587011555E+03  0.24647636012E+03  0.45103195729E+03  0.56142473377E+03  0.00000000000E+00 0.  1.
         22    1    3    3    0    0 -0.12880447556E+03  0.64369217804E+02  0.32154906997E+03  0.35231774511E+03  0.00000000000E+00 0.  1.
</event>
<event>
 7    1  0.6152634E-006  0.1539173E+03  0.7818608E-02  0.1393917E+00
          2   -1    0    0  502    0  0.00000000000E+00  0.00000000000E+00  0.11061618761E+04  0.11061618761E+04  0.00000000000E+00 0. -1.
          1   -1    0    0  501    0 -0.00000000000E+00 -0.00000000000E+00 -0.10688735279E+04  0.10688735279E+04  0.00000000000E+00 0. -1.
         25    2    1    2    0    0 -0.10835094498E+03 -0.73502494361E+02  0.25621476789E+03  0.31371405155E+03  0.12501181906E+03 0.  0.
          2    1    1    2  501    0  0.13111838596E+03  0.81496238609E+02 -0.10342158343E+04  0.10456749304E+04  0.00000000000E+00 0. -1.
          1    1    1    2  502    0 -0.22767440988E+02 -0.79937442473E+01  0.81528941462E+03  0.81564642212E+03  0.00000000000E+00 0. -1.
         22    1    3    3    0    0 -0.98436686124E+02 -0.49723655539E+02  0.81549029925E+02  0.13715854832E+03  0.00000000000E+00 0. -1.
         22    1    3    3    0    0 -0.99142588513E+01 -0.23778838822E+02  0.17466573796E+03  0.17655550323E+03  0.00000000000E+00 0. -1.
</event>
<event>
 7    1  0.6152634E-006  0.3292823E+02  0.7818608E-02  0.1604956E+00
          2   -1    0    0  502    0  0.00000000000E+00  0.00000000000E+00  0.31079414593E+03  0.31079414593E+03  0.00000000000E+00 0. -1.
          1   -1    0    0  501    0 -0.00000000000E+00 -0.00000000000E+00 -0.14695983116E+04  0.14695983116E+04  0.00000000000E+00 0. -1.
         25    2    1    2    0    0  0.17292552514E+02  0.24446375785E+02  0.34851735620E+02  0.13317467265E+03  0.12499676915E+03 0.  0.
          2    1    1    2  501    0  0.15773741190E+02 -0.20954652017E+02 -0.14190962478E+04  0.14193386026E+04  0.00000000000E+00 0. -1.
          1    1    1    2  502    0 -0.33066293704E+02 -0.34917237682E+01  0.22544034647E+03  0.22787918231E+03  0.00000000000E+00 0. -1.
         22    1    3    3    0    0 -0.45056970221E+02  0.26910322973E+02 -0.13552642616E+02  0.54203045762E+02  0.00000000000E+00 0. -1.
         22    1    3    3    0    0  0.62349522734E+02 -0.24639471881E+01  0.48404378236E+02  0.78971626888E+02  0.00000000000E+00 0. -1.
</event>
<event>
 7    1  0.6152634E-006  0.1143012E+03  0.7818608E-02  0.1266461E+00
          2   -1    0    0  502    0  0.00000000000E+00  0.00000000000E+00  0.20118179533E+03  0.20118179533E+03  0.00000000000E+00 0. -1.
          1   -1    0    0  501    0 -0.00000000000E+00 -0.00000000000E+00 -0.31919746555E+03  0.31919746555E+03  0.00000000000E+00 0. -1.
         25    2    1    2    0    0  0.20620094122E+02 -0.88121335048E+02 -0.13580128740E+03  0.20556675439E+03  0.12500057152E+03 0.  0.
          2    1    1    2  501    0  0.56174424697E+02  0.15207787479E+03 -0.74829805176E+02  0.17855740179E+03  0.00000000000E+00 0. -1.
          1    1    1    2  502    0 -0.76794518820E+02 -0.63956539746E+02  0.92615422351E+02  0.13625510469E+03  0.00000000000E+00 0. -1.
         22    1    3    3    0    0  0.64166253843E+02 -0.88015795492E+02 -0.11071093624E+03  0.15530936801E+03  0.00000000000E+00 0. -1.
         22    1    3    3    0    0 -0.43546159721E+02 -0.10553955556E+00 -0.25090351162E+02  0.50257386387E+02  0.00000000000E+00 0. -1.
</event>
<event>
 7    1  0.6152634E-006  0.2040050E+03  0.7818608E-02  0.1273430E+00
          2   -1    0    0  502    0  0.00000000000E+00  0.00000000000E+00  0.36699518873E+03  0.36699518873E+03  0.00000000000E+00 0. -1.
          1   -1    0    0  501    0 -0.00000000000E+00 -0.00000000000E+00 -0.12188311013E+04  0.12188311013E+04  0.00000000000E+00 0. -1.
         25    2    1    2    0    0 -0.11261162660E+03  0.19092056527E+03 -0.11820808342E+03  0.28058851880E+03  0.12499890083E+03 0.  0.
          2    1    1    2  501    0  0.13995778170E+03 -0.14628679299E+03 -0.10068722626E+04  0.10270247123E+04  0.00000000000E+00 0. -1.
          1    1    1    2  502    0 -0.27346155096E+02 -0.44633772283E+02  0.27324443338E+03  0.27821305901E+03  0.00000000000E+00 0. -1.
         22    1    3    3    0    0 -0.10485855467E+03  0.74587546110E+02 -0.24465994362E+02  0.13098550836E+03  0.00000000000E+00 0. -1.
         22    1    3    3    0    0 -0.77530719383E+01  0.11633301916E+03 -0.93742089057E+02  0.14960301044E+03  0.00000000000E+00 0. -1.
</event>
<event>
 7    1  0.6152634E-006  0.1205804E+03  0.7818608E-02  0.1352394E+00
          2   -1    0    0  502    0  0.00000000000E+00  0.00000000000E+00  0.18825524385E+03  0.18825524385E+03  0.00000000000E+00 0. -1.
          1   -1    0    0  501    0 -0.00000000000E+00 -0.00000000000E+00 -0.25669434787E+03  0.25669434787E+03  0.00000000000E+00 0. -1.
         25    2    1    2    0    0  0.84391481340E+02  0.53691120797E+02 -0.13269868051E+03  0.20793914026E+03  0.12500035067E+03 0.  0.
          2    1    1    2  501    0 -0.57944563067E+01  0.42979911751E+02 -0.51232990830E+02  0.67124271969E+02  0.00000000000E+00 0. -1.
          1    1    1    2  502    0 -0.78597025033E+02 -0.96671032548E+02  0.11549256732E+03  0.16988617949E+03  0.00000000000E+00 0. -1.
         22    1    3    3    0    0  0.10026139763E+03  0.79226505431E+02 -0.12001631957E+03  0.17530859643E+03  0.00000000000E+00 0. -1.
         22    1    3    3    0    0 -0.15869916294E+02 -0.25535384634E+02 -0.12682360935E+02  0.32630543828E+02  0.00000000000E+00 0. -1.
</event>
<event>
 7    1  0.6152634E-006  0.9825976E+02  0.7818608E-02  0.1472799E+00
          2   -1    0    0  502    0  0.00000000000E+00  0.00000000000E+00  0.47429933307E+03  0.47429933307E+03  0.00000000000E+00 0. -1.
          1   -1    0    0  501    0 -0.00000000000E+00 -0.00000000000E+00 -0.10876538802E+04  0.10876538802E+04  0.00000000000E+00 0. -1.
         25    2    1    2    0    0 -0.85211911023E+02  0.28523239711E+02  0.26921415453E+03  0.31012206298E+03  0.12499915184E+03 0.  0.
          2    1    1    2  501    0 -0.81250220041E+01  0.19187050005E+02 -0.10522100846E+04  0.10524163725E+04  0.00000000000E+00 0. -1.
          1    1    1    2  502    0  0.93336933027E+02 -0.47710289716E+02  0.16964138295E+03  0.19941477784E+03  0.00000000000E+00 0. -1.
         22    1    3    3    0    0  0.26543526577E+02  0.58122366655E+00  0.13778015888E+02  0.29912043493E+02  0.00000000000E+00 0.  1.
         22    1    3    3    0    0 -0.11175543760E+03  0.27942016045E+02  0.25543613864E+03  0.28021001948E+03  0.00000000000E+00 0.  1.
</event>
<event>
 7    1  0.6152634E-006  0.5576487E+02  0.7818608E-02  0.1473282E+00
          2   -1    0    0  502    0  0.00000000000E+00  0.00000000000E+00  0.29079415008E+04  0.29079415008E+04  0.00000000000E+00 0. -1.
          1   -1    0    0  501    0 -0.00000000000E+00 -0.00000000000E+00 -0.14523512899E+03  0.14523512899E+03  0.00000000000E+00 0. -1.
         25    2    1    2    0    0 -0.36718866778E+02  0.32877080301E+02  0.96816433093E+03  0.97744444091E+03  0.12500514300E+03 0.  0.
          2    1    1    2  501    0  0.27840886097E+02  0.23740014496E+02 -0.13778261200E+03  0.14255788788E+03  0.00000000000E+00 0. -1.
          1    1    1    2  502    0  0.88779806814E+01 -0.56617094797E+02  0.19323246528E+04  0.19331743010E+04  0.00000000000E+00 0. -1.
         22    1    3    3    0    0  0.23319953976E+02  0.58230659856E+02  0.62551135357E+03  0.62864861684E+03  0.00000000000E+00 0. -1.
         22    1    3    3    0    0 -0.60038820754E+02 -0.25353579554E+02  0.34265297736E+03  0.34879582407E+03  0.00000000000E+00 0. -1.
</event>
<event>
 7    1  0.6152634E-006  0.7455152E+02  0.7818608E-02  0.1383516E+00
          2   -1    0    0  502    0  0.00000000000E+00  0.00000000000E+00  0.86341702107E+03  0.86341702107E+03  0.00000000000E+00 0. -1.
          1   -1    0    0  501    0 -0.00000000000E+00 -0.00000000000E+00 -0.73460961968E+03  0.73460961968E+03  0.00000000000E+00 0. -1.
         25    2    1    2    0    0  0.15536050404E+02  0.15354423339E+02 -0.25593791837E+03  0.28566849218E+03  0.12500056875E+03 0.  0.
          2    1    1    2  501    0  0.49958145068E+02  0.20940401017E+02 -0.46056413072E+03  0.46373875745E+03  0.00000000000E+00 0. -1.
          1    1    1    2  502    0 -0.65494195472E+02 -0.36294824356E+02  0.84530945048E+03  0.84861939112E+03  0.00000000000E+00 0. -1.
         22    1    3    3    0    0 -0.48571249881E+01 -0.24646546404E+02 -0.23462752566E+03  0.23596847186E+03  0.00000000000E+00 0. -1.
         22    1    3    3    0    0  0.20393175392E+02  0.40000969743E+02 -0.21310392709E+02  0.49700020325E+02  0.00000000000E+00 0. -1.
</event>
<event>
 7    1  0.6152634E-006  0.6514219E+02  0.7818608E-02  0.1396930E+00
          2   -1    0    0  502    0  0.00000000000E+00  0.00000000000E+00  0.31226415507E+03  0.31226415507E+03  0.00000000000E+00 0. -1.
          1   -1    0    0  501    0 -0.00000000000E+00 -0.00000000000E+00 -0.96618584801E+02  0.96618584801E+02  0.00000000000E+00 0. -1.
         25    2    1    2    0    0  0.32532117017E+01  0.27703220170E+02  0.48866467255E+02  0.13707391368E+03  0.12499309739E+03 0.  0.
          2    1    1    2  501    0 -0.47952141342E+02  0.28262016550E+02 -0.29410736083E+02  0.62953481521E+02  0.00000000000E+00 0. -1.
          1    1    1    2  502    0  0.44698929640E+02 -0.55965236719E+02  0.19618983909E+03  0.20885534467E+03  0.00000000000E+00 0. -1.
         22    1    3    3    0    0 -0.20117176623E+02  0.68995140256E+02  0.43285317929E+01  0.71998377494E+02  0.00000000000E+00 0. -1.
         22    1    3    3    0    0  0.23370388325E+02 -0.41291920087E+02  0.44537935462E+02  0.65075536188E+02  0.00000000000E+00 0. -1.
</event>
<event>
 7    1  0.6152634E-006  0.1383297E+03  0.7818608E-02  0.1340918E+00
          2   -1    0    0  502    0  0.00000000000E+00  0.00000000000E+00  0.30628956504E+02  0.30628956504E+02  0.00000000000E+00 0. -1.
          1   -1    0    0  501    0 -0.00000000000E+00 -0.00000000000E+00 -0.19956060414E+04  0.19956060414E+04  0.00000000000E+00 0. -1.
         25    2    1    2    0    0 -0.72315188593E+02  0.14374786194E+03 -0.64137738991E+03  0.67296601917E+03  0.12500148941E+03 0.  0.
          2    1    1    2  501    0 -0.63108834513E+01 -0.41233242709E+02 -0.10486415978E+04  0.10494709183E+04  0.00000000000E+00 0. -1.
          1    1    1    2  502    0  0.78626072044E+02 -0.10251461923E+03 -0.27495809712E+03  0.30379806045E+03  0.00000000000E+00 0. -1.
         22    1    3    3    0    0  0.24594593737E+01 -0.68564195338E+01 -0.20777518137E+03  0.20790282687E+03  0.00000000000E+00 0. -1.
         22    1    3    3    0    0 -0.74774647966E+02  0.15060428147E+03 -0.43360220854E+03  0.46506319230E+03  0.00000000000E+00 0. -1.
</event>
<event>
 7    1  0.6152634E-006  0.4853311E+02  0.7818608E-02  0.1539717E+00
          2   -1    0    0  502    0  0.00000000000E+00  0.00000000000E+00  0.11955728182E+04  0.11955728182E+04  0.00000000000E+00 0. -1.
          1   -1    0    0  501    0 -0.00000000000E+00 -0.00000000000E+00 -0.58876157093E+03  0.58876157093E+03  0.00000000000E+00 0. -1.
         25    2    1    2    0    0 -0.48959597948E+02 -0.29004175046E+02  0.24811461531E+03  0.28359180345E+03  0.12500065701E+03 0.  0.
          2    1    1    2  501    0  0.48472965861E+02  0.22741799887E+01 -0.56979926952E+03  0.57186187831E+03  0.00000000000E+00 0. -1.
          1    1    1    2  502    0  0.48663208708E+00  0.26729995058E+02  0.92849590147E+03  0.92888070735E+03  0.00000000000E+00 0. -1.
         22    1    3    3    0    0  0.23247284149E+02 -0.55638018968E+02  0.10413758951E+03  0.12033562616E+03  0.00000000000E+00 0. -1.
         22    1    3    3    0    0 -0.72206882097E+02  0.26633843921E+02  0.14397702580E+03  0.16325617729E+03  0.00000000000E+00 0. -1.
</event>
<event>
 7    1  0.6152634E-006  0.1236741E+03  0.7818608E-02  0.1285381E+00
          2   -1    0    0  502    0  0.00000000000E+00  0.00000000000E+00  0.43348017964E+03  0.43348017964E+03  0.00000000000E+00 0. -1.
          1   -1    0    0  501    0 -0.00000000000E+00 -0.00000000000E+00 -0.22941365297E+04  0.22941365297E+04  0.00000000000E+00 0. -1.
         25    2    1    2    0    0 -0.68067508774E+01 -0.19409585516E+03 -0.49969167731E+03  0.55048730367E+03  0.12499986512E+03 0.  0.
          2    1    1    2  501    0 -0.58154974666E+01  0.11808120596E+03 -0.17634125370E+04  0.17673711458E+04  0.00000000000E+00 0. -1.
          1    1    1    2  502    0  0.12622248344E+02  0.76014649192E+02  0.40244786430E+03  0.40975825986E+03  0.00000000000E+00 0. -1.
         22    1    3    3    0    0  0.13468914805E+02  0.17419319889E+01 -0.13812275386E+03  0.13878883646E+03  0.00000000000E+00 0.  1.
         22    1    3    3    0    0 -0.20275665682E+02 -0.19583778714E+03 -0.36156892345E+03  0.41169846721E+03  0.00000000000E+00 0.  1.
</event>
<event>
 7    1  0.6152634E-006  0.1392972E+03  0.7818608E-02  0.1322049E+00
          2   -1    0    0  502    0  0.00000000000E+00  0.00000000000E+00  0.17733983729E+02  0.17733983729E+02  0.00000000000E+00 0. -1.
          1   -1    0    0  501    0 -0.00000000000E+00 -0.00000000000E+00 -0.34065488269E+04  0.34065488269E+04  0.00000000000E+00 0. -1.
         25    2    1    2    0    0  0.11135199793E+03 -0.49151594284E+02 -0.73752964766E+03  0.75788524367E+03  0.12499965888E+03 0.  0.
          2    1    1    2  501    0 -0.10568756141E+03  0.97707291085E+02 -0.25486919903E+04  0.25527529134E+04  0.00000000000E+00 0. -1.
          1    1    1    2  502    0 -0.56644365215E+01 -0.48555696801E+02 -0.10259320523E+03  0.11364465360E+03  0.00000000000E+00 0. -1.
         22    1    3    3    0    0 -0.13038757114E+02 -0.46201195558E+02 -0.15719835534E+03  0.16436508930E+03  0.00000000000E+00 0. -1.
         22    1    3    3    0    0  0.12439075504E+03 -0.29503987259E+01 -0.58033129232E+03  0.59352015437E+03  0.00000000000E+00 0. -1.
</event>
<event>
 7    1  0.6152634E-006  0.1544598E+03  0.7818608E-02  0.1260055E+00
          2   -1    0    0  502    0  0.00000000000E+00  0.00000000000E+00  0.66881441799E+02  0.66881441799E+02  0.00000000000E+00 0. -1.
          1   -1    0    0  501    0 -0.00000000000E+00 -0.00000000000E+00 -0.27533836752E+04  0.27533836752E+04  0.00000000000E+00 0. -1.
         25    2    1    2    0    0 -0.95624930809E+01  0.10210347793E+03 -0.93504916965E+03  0.94892527553E+03  0.12500266960E+03 0.  0.
          2    1    1    2  501    0  0.59639732688E+02  0.51403166858E+02 -0.17000710659E+04  0.17018933023E+04  0.00000000000E+00 0. -1.
          1    1    1    2  502    0 -0.50077239607E+02 -0.15350664479E+03 -0.51381997802E+02  0.16944653912E+03  0.00000000000E+00 0. -1.
         22    1    3    3    0    0  0.26767639475E+02 -0.85344994799E+01 -0.61075261148E+02  0.67227462608E+02  0.00000000000E+00 0.  1.
         22    1    3    3    0    0 -0.36330132556E+02  0.11063797741E+03 -0.87397390850E+03  0.88169781292E+03  0.00000000000E+00 0.  1.
</event>
<event>
 7    1  0.6152634E-006  0.6461259E+02  0.7818608E-02  0.1431401E+00
          2   -1    0    0  502    0  0.00000000000E+00  0.00000000000E+00  0.20033856159E+04  0.20033856159E+04  0.00000000000E+00 0. -1.
          1   -1    0    0  501    0 -0.00000000000E+00 -0.00000000000E+00 -0.18264050321E+03  0.18264050321E+03  0.00000000000E+00 0. -1.
         25    2    1    2    0    0  0.81567078172E+02  0.53973837912E+02  0.16500582618E+03  0.22895406944E+03  0.12500671910E+03 0.  0.
          2    1    1    2  501    0 -0.42855197344E+02 -0.28623739877E+01 -0.14702384000E+03  0.15316909170E+03  0.00000000000E+00 0. -1.
          1    1    1    2  502    0 -0.38711880828E+02 -0.51111463924E+02  0.18027631265E+04  0.18039029580E+04  0.00000000000E+00 0. -1.
         22    1    3    3    0    0  0.10928454235E+03  0.66446713675E+02  0.13968575554E+03  0.18939479205E+03  0.00000000000E+00 0.  1.
         22    1    3    3    0    0 -0.27717464179E+02 -0.12472875764E+02  0.25320070637E+02  0.39559277387E+02  0.00000000000E+00 0.  1.
</event>
<event>
 7    1  0.6152634E-006  0.2056981E+03  0.7818608E-02  0.1243495E+00
          2   -1    0    0  502    0  0.00000000000E+00  0.00000000000E+00  0.16175891167E+04  0.16175891167E+04  0.00000000000E+00 0. -1.
          1   -1    0    0  501    0 -0.00000000000E+00 -0.00000000000E+00 -0.58846061813E+03  0.58846061813E+03  0.00000000000E+00 0. -1.
         25    2    1    2    0    0 -0.98372389407E+02  0.18957558263E+03  0.74357090162E+03  0.78366993826E+03  0.12499943152E+03 0.  0.
          2    1    1    2  501    0  0.14914331708E+03 -0.14178584941E+03 -0.54828311817E+03  0.58562900696E+03  0.00000000000E+00 0. -1.
          1    1    1    2  502    0 -0.50770927673E+02 -0.47789733212E+02  0.83384071512E+03  0.83675078960E+03  0.00000000000E+00 0. -1.
         22    1    3    3    0    0 -0.12218016261E+03  0.15377620572E+03  0.67262689864E+03  0.70071539040E+03  0.00000000000E+00 0. -1.
         22    1    3    3    0    0  0.23807773203E+02  0.35799376903E+02  0.70944002982E+02  0.82954547860E+02  0.00000000000E+00 0. -1.
</event>
<event>
 7    1  0.6152634E-006  0.6539681E+02  0.7818608E-02  0.1433945E+00
          2   -1    0    0  502    0  0.00000000000E+00  0.00000000000E+00  0.76764801398E+03  0.76764801398E+03  0.00000000000E+00 0. -1.
          1   -1    0    0  501    0 -0.00000000000E+00 -0.00000000000E+00 -0.49808534787E+02  0.49808534787E+02  0.00000000000E+00 0. -1.
         25    2    1    2    0    0 -0.18413077909E+02  0.48292012372E+02  0.29908870070E+03  0.32825328844E+03  0.12500004236E+03 0.  0.
          2    1    1    2  501    0 -0.19698354630E+02 -0.65037886107E+02 -0.43365936747E+00  0.67956897110E+02  0.00000000000E+00 0. -1.
          1    1    1    2  502    0  0.38111432540E+02  0.16745873735E+02  0.41918443786E+03  0.42124636321E+03  0.00000000000E+00 0. -1.
         22    1    3    3    0    0  0.12174643121E+02  0.12749682589E+02 -0.67230320569E+01  0.18867313038E+02  0.00000000000E+00 0.  1.
         22    1    3    3    0    0 -0.30587721031E+02  0.35542329783E+02  0.30581173276E+03  0.30938597540E+03  0.00000000000E+00 0.  1.
</event>
<event>
 7    1  0.6152634E-006  0.4331427E+02  0.7818608E-02  0.1506426E+00
          2   -1    0    0  502    0  0.00000000000E+00  0.00000000000E+00  0.16841600868E+04  0.16841600868E+04  0.00000000000E+00 0. -1.
          1   -1    0    0  501    0 -0.00000000000E+00 -0.00000000000E+00 -0.25612486582E+02  0.25612486582E+02  0.00000000000E+00 0. -1.
         25    2    1    2    0    0  0.24243793953E-01  0.25041342716E+02  0.79859704215E+03  0.80870767537E+03  0.12499519602E+03 0.  0.
          2    1    1    2  501    0 -0.37244852157E+02  0.32996107070E+01 -0.23798896982E+01  0.37466389177E+02  0.00000000000E+00 0. -1.
          1    1    1    2  502    0  0.37220608363E+02 -0.28340953423E+02  0.86233044776E+03  0.86359850884E+03  0.00000000000E+00 0. -1.
         22    1    3    3    0    0  0.60649298047E+02 -0.28082855776E+01  0.36933168020E+03  0.37428881070E+03  0.00000000000E+00 0.  1.
         22    1    3    3    0    0 -0.60625054253E+02  0.27849628294E+02  0.42926536195E+03  0.43441886466E+03  0.00000000000E+00 0.  1.
</event>
<event>
 7    1  0.6152634E-006  0.1342624E+03  0.7818608E-02  0.1407315E+00
          2   -1    0    0  502    0  0.00000000000E+00  0.00000000000E+00  0.87067796812E+03  0.87067796812E+03  0.00000000000E+00 0. -1.
          1   -1    0    0  501    0 -0.00000000000E+00 -0.00000000000E+00 -0.14871750652E+03  0.14871750652E+03  0.00000000000E+00 0. -1.
         25    2    1    2    0    0 -0.56607793068E+02  0.11104282759E+03  0.11908715470E+03  0.21293579147E+03  0.12499979631E+03 0.  0.
          2    1    1    2  501    0  0.81483352949E+02 -0.11053886942E+03 -0.55135428302E+02  0.14798072143E+03  0.00000000000E+00 0. -1.
          1    1    1    2  502    0 -0.24875559881E+02 -0.50395816790E+00  0.65800873520E+03  0.65847896174E+03  0.00000000000E+00 0. -1.
         22    1    3    3    0    0 -0.69717707345E+02  0.12884979833E+03  0.12197912189E+03  0.19063508445E+03  0.00000000000E+00 0.  1.
         22    1    3    3    0    0  0.13109914277E+02 -0.17806970737E+02 -0.28919671931E+01  0.22300707016E+02  0.00000000000E+00 0.  1.
</event>
<event>
 7    1  0.6152634E-006  0.5998606E+02  0.7818608E-02  0.1431920E+00
          2   -1    0    0  502    0  0.00000000000E+00  0.00000000000E+00  0.31003528599E+03  0.31003528599E+03  0.00000000000E+00 0. -1.
          1   -1    0    0  501    0 -0.00000000000E+00 -0.00000000000E+00 -0.16116609260E+04  0.16116609260E+04  0.00000000000E+00 0. -1.
         25    2    1    2    0    0 -0.23959143965E+02  0.66476123309E+01 -0.32418834309E+03  0.34833847135E+03  0.12499350981E+03 0.  0.
          2    1    1    2  501    0 -0.61701701785E+01  0.45667345708E+02 -0.12719179866E+04  0.12727525062E+04  0.00000000000E+00 0. -1.
          1    1    1    2  502    0  0.30129314144E+02 -0.52314958039E+02  0.29448068965E+03  0.30060523445E+03  0.00000000000E+00 0. -1.
         22    1    3    3    0    0 -0.61502221782E+02  0.18651301050E+02 -0.88482138767E+02  0.10935942207E+03  0.00000000000E+00 0.  1.
         22    1    3    3    0    0  0.37543077817E+02 -0.12003688719E+02 -0.23570620432E+03  0.23897904927E+03  0.00000000000E+00 0.  1.
</event>
<event>
 7    1  0.6152634E-006  0.6274651E+02  0.7818608E-02  0.1422907E+00
          2   -1    0    0  502    0  0.00000000000E+00  0.00000000000E+00  0.18703082525E+04  0.18703082525E+04  0.00000000000E+00 0. -1.
          1   -1    0    0  501    0 -0.00000000000E+00 -0.00000000000E+00 -0.68694982426E+02  0.68694982426E+02  0.00000000000E+00 0. -1.
         25    2    1    2    0    0  0.84540664292E+02  0.56363719334E+02  0.71890336333E+03  0.73673030674E+03  0.12500202518E+03 0.  0.
          2    1    1    2  501    0 -0.27767063927E+02 -0.38146094561E+02 -0.49563865723E+02  0.68430337970E+02  0.00000000000E+00 0. -1.
          1    1    1    2  502    0 -0.56773600365E+02 -0.18217624774E+02  0.11322737725E+04  0.11338425902E+04  0.00000000000E+00 0. -1.
         22    1    3    3    0    0  0.58716528239E+02 -0.22154930067E+02  0.16208209859E+03  0.17380758988E+03  0.00000000000E+00 0. -1.
         22    1    3    3    0    0  0.25824136054E+02  0.78518649401E+02  0.55682126473E+03  0.56292271687E+03  0.00000000000E+00 0. -1.
</event>
<event>
 7    1  0.6152634E-006  0.1286215E+03  0.7818608E-02  0.1295547E+00
          2   -1    0    0  502    0  0.00000000000E+00  0.00000000000E+00  0.52628162867E+03  0.52628162867E+03  0.00000000000E+00 0. -1.
          1   -1    0    0  501    0 -0.00000000000E+00 -0.00000000000E+00 -0.85161770696E+03  0.85161770696E+03  0.00000000000E+00 0. -1.
         25    2    1    2    0    0 -0.31185919019E+01 -0.13979065362E+03  0.50006099450E+02  0.19411292532E+03  0.12501226076E+03 0.  0.
          2    1    1    2  501    0 -0.59281977080E+02  0.11440195129E+03 -0.77137613055E+03  0.78206348466E+03  0.00000000000E+00 0. -1.
          1    1    1    2  502    0  0.62400568982E+02  0.25388702334E+02  0.39603395281E+03  0.40172292565E+03  0.00000000000E+00 0. -1.
         22    1    3    3    0    0 -0.76374867242E+01 -0.14264548403E+03 -0.97425909331E+00  0.14285312212E+03  0.00000000000E+00 0. -1.
         22    1    3    3    0    0  0.45188948223E+01  0.28548304147E+01  0.50980358543E+02  0.51259803202E+02  0.00000000000E+00 0. -1.
</event>
<event>
 7    1  0.6152634E-006  0.6270353E+02  0.7818608E-02  0.1516691E+00
          2   -1    0    0  502    0  0.00000000000E+00  0.00000000000E+00  0.47350260937E+03  0.47350260937E+03  0.00000000000E+00 0. -1.
          1   -1    0    0  501    0 -0.00000000000E+00 -0.00000000000E+00 -0.35800075547E+03  0.35800075547E+03  0.00000000000E+00 0. -1.
         25    2    1    2    0    0 -0.19914296832E+02  0.68934310672E+02  0.26585723413E+03  0.30243114721E+03  0.12504403807E+03 0.  0.
          2    1    1    2  501    0 -0.33244440108E+01 -0.62563081298E+02 -0.33604008256E+03  0.34183055475E+03  0.00000000000E+00 0. -1.
          1    1    1    2  502    0  0.23238740843E+02 -0.63712293738E+01  0.18568470233E+03  0.18724166288E+03  0.00000000000E+00 0. -1.
         22    1    3    3    0    0 -0.20960107769E+02 -0.31793325206E+02  0.40534284926E+02  0.55616273696E+02  0.00000000000E+00 0. -1.
         22    1    3    3    0    0  0.10458109367E+01  0.10072763588E+03  0.22532294921E+03  0.24681487352E+03  0.00000000000E+00 0. -1.
</event>
<event>
 7    1  0.6152634E-006  0.1342823E+03  0.7818608E-02  0.1424708E+00
          2   -1    0    0  502    0  0.00000000000E+00  0.00000000000E+00  0.21251894681E+04  0.21251894681E+04  0.00000000000E+00 0. -1.
          1   -1    0    0  501    0 -0.00000000000E+00 -0.00000000000E+00 -0.30777818257E+03  0.30777818257E+03  0.00000000000E+00 0. -1.
         25    2    1    2    0    0 -0.93451548807E+02  0.12471711793E+03  0.17737911483E+04  0.17850063598E+04  0.12500045988E+03 0.  0.
          2    1    1    2  501    0  0.80171604881E+02 -0.10749792141E+03 -0.28691728311E+03  0.31670935680E+03  0.00000000000E+00 0. -1.
          1    1    1    2  502    0  0.13279943926E+02 -0.17219196525E+02  0.33053742034E+03  0.33125193416E+03  0.00000000000E+00 0. -1.
         22    1    3    3    0    0 -0.70717884968E+02  0.11661978268E+03  0.84775154729E+03  0.85865236208E+03  0.00000000000E+00 0.  1.
         22    1    3    3    0    0 -0.22733663839E+02  0.80973352516E+01  0.92603960104E+03  0.92635399768E+03  0.00000000000E+00 0.  1.
</event>
<event>
 7    1  0.6152634E-006  0.1167049E+03  0.7818608E-02  0.1265017E+00
          2   -1    0    0  502    0  0.00000000000E+00  0.00000000000E+00  0.25033082330E+04  0.25033082330E+04  0.00000000000E+00 0. -1.
          1   -1    0    0  501    0 -0.00000000000E+00 -0.00000000000E+00 -0.38729500146E+03  0.38729500146E+03  0.00000000000E+00 0. -1.
         25    2    1    2    0    0 -0.10364355208E+02  0.11335167160E+03  0.47244941763E+03  0.50178622146E+03  0.12499975408E+03 0.  0.
          2    1    1    2  501    0 -0.83922450572E+02 -0.82306522869E+02 -0.36209823105E+03  0.38069997419E+03  0.00000000000E+00 0. -1.
          1    1    1    2  502    0  0.94286805780E+02 -0.31045148730E+02  0.20056620450E+04  0.20081170388E+04  0.00000000000E+00 0. -1.
         22    1    3    3    0    0 -0.25480916014E+02  0.12143896163E+03  0.25423627896E+03  0.28290066105E+03  0.00000000000E+00 0. -1.
         22    1    3    3    0    0  0.15116560806E+02 -0.80872900307E+01  0.21821313867E+03  0.21888556042E+03  0.00000000000E+00 0. -1.
</event>
<event>
 7    1  0.6152634E-006  0.1412775E+03  0.7818608E-02  0.1423206E+00
          2   -1    0    0  502    0  0.00000000000E+00  0.00000000000E+00  0.89927195670E+02  0.89927195670E+02  0.00000000000E+00 0. -1.
          1   -1    0    0  501    0 -0.00000000000E+00 -0.00000000000E+00 -0.25758181032E+04  0.25758181032E+04  0.00000000000E+00 0. -1.
         25    2    1    2    0    0  0.10004076466E+03 -0.12561983775E+03 -0.10684060024E+04  0.10876145752E+04  0.12500232000E+03 0.  0.
          2    1    1    2  501    0 -0.94160570407E+01  0.18666901305E+02 -0.14365088739E+04  0.14366610109E+04  0.00000000000E+00 0. -1.
          1    1    1    2  502    0 -0.90624707624E+02  0.10695293644E+03  0.19023968791E+02  0.14146971278E+03  0.00000000000E+00 0. -1.
         22    1    3    3    0    0  0.11870809858E+03 -0.12983292830E+03 -0.10275293916E+04  0.10424801449E+04  0.00000000000E+00 0.  1.
         22    1    3    3    0    0 -0.18667333911E+02  0.42130905490E+01 -0.40876610811E+02  0.45134430302E+02  0.00000000000E+00 0.  1.
</event>
<event>
 7    1  0.6152634E-006  0.1469459E+03  0.7818608E-02  0.1336493E+00
          2   -1    0    0  502    0  0.00000000000E+00  0.00000000000E+00  0.96134015333E+03  0.96134015333E+03  0.00000000000E+00 0. -1.
          1   -1    0    0  501    0 -0.00000000000E+00 -0.00000000000E+00 -0.11466376119E+04  0.11466376119E+04  0.00000000000E+00 0. -1.
         25    2    1    2    0    0 -0.10107859210E+03  0.38825633624E+02  0.43594356088E+03  0.46625730591E+03  0.12499910172E+03 0.  0.
          2    1    1    2  501    0  0.14187066174E+03 -0.39854590686E+02 -0.11258556110E+04  0.11354587310E+04  0.00000000000E+00 0. -1.
          1    1    1    2  502    0 -0.40792069640E+02  0.10289570621E+01  0.50461459146E+03  0.50626172837E+03  0.00000000000E+00 0. -1.
         22    1    3    3    0    0  0.11481382298E+01 -0.32228143859E+02  0.41037531382E+02  0.52192436807E+02  0.00000000000E+00 0.  1.
         22    1    3    3    0    0 -0.10222673033E+03  0.71053777483E+02  0.39490602950E+03  0.41406486910E+03  0.00000000000E+00 0.  1.
</event>
<event>
 7    1  0.6152634E-006  0.9667735E+02  0.7818608E-02  0.1354507E+00
          2   -1    0    0  502    0  0.00000000000E+00  0.00000000000E+00  0.15529846425E+04  0.15529846425E+04  0.00000000000E+00 0. -1.
          1   -1    0    0  501    0 -0.00000000000E+00 -0.00000000000E+00 -0.77851461216E+02  0.77851461216E+02  0.00000000000E+00 0. -1.
         25    2    1    2    0    0 -0.34113681749E+02  0.48067111525E+02  0.77614001484E+03  0.78834852537E+03  0.12500353729E+03 0.  0.
          2    1    1    2  501    0  0.87204472641E+02 -0.46025726570E+02 -0.36450931259E+02  0.10512686595E+03  0.00000000000E+00 0. -1.
          1    1    1    2  502    0 -0.53090790892E+02 -0.20413849549E+01  0.73544409775E+03  0.73736071244E+03  0.00000000000E+00 0. -1.
         22    1    3    3    0    0 -0.34060313638E+02 -0.38601308297E+02  0.27856495437E+03  0.28328183805E+03  0.00000000000E+00 0.  1.
         22    1    3    3    0    0 -0.53368111368E-01  0.86668419822E+02  0.49757506047E+03  0.50506668732E+03  0.00000000000E+00 0.  1.
</event>
<event>
 7    1  0.6152634E-006  0.9637913E+02  0.7818608E-02  0.1358078E+00
          2   -1    0    0  502    0  0.00000000000E+00  0.00000000000E+00  0.47147202251E+02  0.47147202251E+02  0.00000000000E+00 0. -1.
          1   -1    0    0  501    0 -0.00000000000E+00 -0.00000000000E+00 -0.11026261482E+04  0.11026261482E+04  0.00000000000E+00 0. -1.
         25    2    1    2    0    0 -0.68863792995E+02  0.12522002978E+03 -0.64686762010E+03  0.67415554275E+03  0.12500280013E+03 0.  0.
          2    1    1    2  501    0  0.19533104934E+02 -0.47879119012E+02 -0.37402137089E+03  0.37757904882E+03  0.00000000000E+00 0. -1.
          1    1    1    2  502    0  0.49330688061E+02 -0.77340910773E+02 -0.34589954996E+02  0.98038758919E+02  0.00000000000E+00 0. -1.
         22    1    3    3    0    0  0.17432203484E+02  0.94877883800E+02 -0.28402352323E+03  0.29995842428E+03  0.00000000000E+00 0.  1.
         22    1    3    3    0    0 -0.86295996478E+02  0.30342145984E+02 -0.36284409688E+03  0.37419711847E+03  0.00000000000E+00 0.  1.
</event>
<event>
 7    1  0.6152634E-006  0.1320488E+03  0.7818608E-02  0.1266923E+00
          2   -1    0    0  502    0  0.00000000000E+00  0.00000000000E+00  0.24048451278E+04  0.24048451278E+04  0.00000000000E+00 0. -1.
          1   -1    0    0  501    0 -0.00000000000E+00 -0.00000000000E+00 -0.55268619164E+03  0.55268619164E+03  0.00000000000E+00 0. -1.
         25    2    1    2    0    0  0.14939556972E+03  0.54348130442E+02 -0.26720002347E+03  0.33510340590E+03  0.12500273825E+03 0.  0.
          2    1    1    2  501    0 -0.12382935066E+03  0.27889041250E+02 -0.23468359422E+03  0.26681059969E+03  0.00000000000E+00 0. -1.
          1    1    1    2  502    0 -0.25566219059E+02 -0.82237171692E+02  0.23540425539E+04  0.23556173139E+04  0.00000000000E+00 0. -1.
         22    1    3    3    0    0  0.20891034846E+02  0.69603497346E+02 -0.10245721990E+03  0.12561275449E+03  0.00000000000E+00 0.  1.
         22    1    3    3    0    0  0.12850453487E+03 -0.15255366904E+02 -0.16474280357E+03  0.20949065141E+03  0.00000000000E+00 0.  1.
</event>
<event>
 7    1  0.6152634E-006  0.8492851E+02  0.7818608E-02  0.1429223E+00
          2   -1    0    0  502    0  0.00000000000E+00  0.00000000000E+00  0.80967553740E+03  0.80967553740E+03  0.00000000000E+00 0. -1.
          1   -1    0    0  501    0 -0.00000000000E+00 -0.00000000000E+00 -0.76022031561E+02  0.76022031561E+02  0.00000000000E+00 0. -1.
         25    2    1    2    0    0  0.33488665361E+02 -0.60948788082E+02  0.19620159297E+03  0.24281246735E+03  0.12500633480E+03 0.  0.
          2    1    1    2  501    0 -0.13128680075E+02  0.87198568609E+02 -0.14989058444E+02  0.89446209986E+02  0.00000000000E+00 0. -1.
          1    1    1    2  502    0 -0.20359985286E+02 -0.26249780526E+02  0.55244097131E+03  0.55343889162E+03  0.00000000000E+00 0. -1.
         22    1    3    3    0    0  0.31713597645E+01 -0.88786194556E+02  0.17557776153E+03  0.19677549698E+03  0.00000000000E+00 0.  1.
         22    1    3    3    0    0  0.30317305596E+02  0.27837406474E+02  0.20623831440E+02  0.46036970373E+02  0.00000000000E+00 0.  1.
</event>
<event>
 7    1  0.6152634E-006  0.4068066E+03  0.7818608E-02  0.1127476E+00
          2   -1    0    0  502    0  0.00000000000E+00  0.00000000000E+00  0.15438507844E+04  0.15438507844E+04  0.00000000000E+00 0. -1.
          1   -1    0    0  501    0 -0.00000000000E+00 -0.00000000000E+00 -0.97057526279E+03  0.97057526279E+03  0.00000000000E+00 0. -1.
         25    2    1    2    0    0  0.24072362453E+03 -0.19223781087E+03  0.10648049438E+03  0.34909389646E+03  0.12500085412E+03 0.  0.
          2    1    1    2  501    0  0.92909839005E+02 -0.89061831549E+02 -0.80785792631E+03  0.81804564489E+03  0.00000000000E+00 0. -1.
          1    1    1    2  502    0 -0.33363346354E+03  0.28129964242E+03  0.12746529535E+04  0.13472865058E+04  0.00000000000E+00 0. -1.
         22    1    3    3    0    0  0.85151340979E+02 -0.36842061492E+01  0.81873992025E+01  0.85623348166E+02  0.00000000000E+00 0. -1.
         22    1    3    3    0    0  0.15557228355E+03 -0.18855360472E+03  0.98293095176E+02  0.26347054830E+03  0.00000000000E+00 0. -1.
</event>
<event>
 7    1  0.6152634E-006  0.9691061E+02  0.7818608E-02  0.1395544E+00
          2   -1    0    0  502    0  0.00000000000E+00  0.00000000000E+00  0.26101492771E+04  0.26101492771E+04  0.00000000000E+00 0. -1.
          1   -1    0    0  501    0 -0.00000000000E+00 -0.00000000000E+00 -0.15630941291E+02  0.15630941291E+02  0.00000000000E+00 0. -1.
         25    2    1    2    0    0 -0.61320957312E+02 -0.50221053972E+02  0.10233753404E+04  0.10340218072E+04  0.12498638406E+03 0.  0.
          2    1    1    2  501    0  0.96058924011E+02  0.35241357715E+02  0.25073525357E+03  0.27080885797E+03  0.00000000000E+00 0. -1.
          1    1    1    2  502    0 -0.34737966699E+02  0.14979696257E+02  0.13204077418E+04  0.13209495533E+04  0.00000000000E+00 0. -1.
         22    1    3    3    0    0  0.77936900709E+01 -0.43730970105E+02  0.11956892564E+03  0.12755339012E+03  0.00000000000E+00 0.  1.
         22    1    3    3    0    0 -0.69114647383E+02 -0.64900838675E+01  0.90380641480E+03  0.90646841704E+03  0.00000000000E+00 0.  1.
</event>
<event>
 7    1  0.6152634E-006  0.8057960E+02  0.7818608E-02  0.1345263E+00
          2   -1    0    0  502    0  0.00000000000E+00  0.00000000000E+00  0.28807483511E+04  0.28807483511E+04  0.00000000000E+00 0. -1.
          1   -1    0    0  501    0 -0.00000000000E+00 -0.00000000000E+00 -0.15648723223E+03  0.15648723223E+03  0.00000000000E+00 0. -1.
         25    2    1    2    0    0 -0.11509436971E+03 -0.64233792331E+02  0.51149557070E+03  0.54279488894E+03  0.12500351433E+03 0.  0.
          2    1    1    2  501    0  0.79582141944E+02  0.51021323091E+01 -0.12900047385E+03  0.15165906278E+03  0.00000000000E+00 0. -1.
          1    1    1    2  502    0  0.35512227761E+02  0.59131660022E+02  0.23417660220E+04  0.23427816316E+04  0.00000000000E+00 0. -1.
         22    1    3    3    0    0 -0.12831609779E+03 -0.47261526549E+02  0.29407872887E+03  0.32431615998E+03  0.00000000000E+00 0.  1.
         22    1    3    3    0    0  0.13221728089E+02 -0.16972265782E+02  0.21741684183E+03  0.21847872896E+03  0.00000000000E+00 0.  1.
</event>
<event>
 7    1  0.6152634E-006  0.7027874E+02  0.7818608E-02  0.1399377E+00
          2   -1    0    0  502    0  0.00000000000E+00  0.00000000000E+00  0.89534775485E+03  0.89534775485E+03  0.00000000000E+00 0. -1.
          1   -1    0    0  501    0 -0.00000000000E+00 -0.00000000000E+00 -0.34558856643E+03  0.34558856643E+03  0.00000000000E+00 0. -1.
         25    2    1    2    0    0 -0.83193282160E+02  0.73083157931E+02  0.45151408860E+03  0.48140634288E+03  0.12499929836E+03 0.  0.
          2    1    1    2  501    0  0.65062121007E+02 -0.25842818652E+02 -0.32541435026E+03  0.33285947519E+03  0.00000000000E+00 0. -1.
          1    1    1    2  502    0  0.18131161153E+02 -0.47240339279E+02  0.42365945009E+03  0.42667050321E+03  0.00000000000E+00 0. -1.
         22    1    3    3    0    0 -0.70856669353E+02  0.86975697357E+02  0.20086795187E+03  0.23007253989E+03  0.00000000000E+00 0.  1.
         22    1    3    3    0    0 -0.12336612807E+02 -0.13892539426E+02  0.25064613673E+03  0.25133380299E+03  0.00000000000E+00 0.  1.
</event>
<event>
 7    1  0.6152634E-006  0.4532421E+02  0.7818608E-02  0.1520162E+00
          2   -1    0    0  502    0  0.00000000000E+00  0.00000000000E+00  0.12001081784E+04  0.12001081784E+04  0.00000000000E+00 0. -1.
          1   -1    0    0  501    0 -0.00000000000E+00 -0.00000000000E+00 -0.99532062108E+02  0.99532062108E+02  0.00000000000E+00 0. -1.
         25    2    1    2    0    0 -0.15777870195E+02  0.37489828532E+01  0.14718606113E+03  0.19378104723E+03  0.12499744643E+03 0.  0.
          2    1    1    2  501    0 -0.18818244635E+02  0.26582897910E+02 -0.72216457785E+02  0.79221168683E+02  0.00000000000E+00 0. -1.
          1    1    1    2  502    0  0.34596114830E+02 -0.30331880763E+02  0.10256065129E+04  0.10266380246E+04  0.00000000000E+00 0. -1.
         22    1    3    3    0    0 -0.68732998976E+01  0.62720302104E+02  0.97606348709E+02  0.11622425674E+03  0.00000000000E+00 0. -1.
         22    1    3    3    0    0 -0.89045702971E+01 -0.58971319251E+02  0.49579712424E+02  0.77556790485E+02  0.00000000000E+00 0. -1.
</event>
<event>
 7    1  0.6152634E-006  0.1835713E+03  0.7818608E-02  0.1220762E+00
          2   -1    0    0  502    0  0.00000000000E+00  0.00000000000E+00  0.34681140310E+03  0.34681140310E+03  0.00000000000E+00 0. -1.
          1   -1    0    0  501    0 -0.00000000000E+00 -0.00000000000E+00 -0.29093242681E+04  0.29093242681E+04  0.00000000000E+00 0. -1.
         25    2    1    2    0    0  0.48090006073E+02 -0.13922985274E+03 -0.44088810439E+03  0.48135997341E+03  0.12501001091E+03 0.  0.
          2    1    1    2  501    0 -0.88766697846E+02 -0.43191795449E+02 -0.24203701072E+04  0.24223824046E+04  0.00000000000E+00 0. -1.
          1    1    1    2  502    0  0.40676691773E+02  0.18242164819E+03  0.29874534664E+03  0.35239329324E+03  0.00000000000E+00 0. -1.
         22    1    3    3    0    0 -0.19187953201E+02 -0.94992991427E+02 -0.33251117361E+03  0.34634596366E+03  0.00000000000E+00 0. -1.
         22    1    3    3    0    0  0.67277959274E+02 -0.44236861315E+02 -0.10837693079E+03  0.13501400975E+03  0.00000000000E+00 0. -1.
</event>
<event>
 7    1  0.6152634E-006  0.1478657E+03  0.7818608E-02  0.1409028E+00
          2   -1    0    0  502    0  0.00000000000E+00  0.00000000000E+00  0.12355058698E+04  0.12355058698E+04  0.00000000000E+00 0. -1.
          1   -1    0    0  501    0 -0.00000000000E+00 -0.00000000000E+00 -0.11637114605E+03  0.11637114605E+03  0.00000000000E+00 0. -1.
         25    2    1    2    0    0  0.11903975370E+03 -0.78712409211E+02  0.57740279323E+03  0.60777043164E+03  0.12499922248E+03 0.  0.
          2    1    1    2  501    0 -0.11041070120E+03  0.99265382433E+02 -0.46398621180E+02  0.15555375642E+03  0.00000000000E+00 0. -1.
          1    1    1    2  502    0 -0.86290524941E+01 -0.20552973222E+02  0.58813055172E+03  0.58855282781E+03  0.00000000000E+00 0. -1.
         22    1    3    3    0    0  0.13598496678E+03 -0.51805574715E+02  0.53693287684E+03  0.55630265413E+03  0.00000000000E+00 0.  1.
         22    1    3    3    0    0 -0.16945213084E+02 -0.26906834497E+02  0.40469916394E+02  0.51467777512E+02  0.00000000000E+00 0.  1.
</event>
<event>
 7    1  0.6152634E-006  0.8060036E+02  0.7818608E-02  0.1371343E+00
          2   -1    0    0  502    0  0.00000000000E+00  0.00000000000E+00  0.25413210158E+03  0.25413210158E+03  0.00000000000E+00 0. -1.
          1   -1    0    0  501    0 -0.00000000000E+00 -0.00000000000E+00 -0.66095006190E+03  0.66095006190E+03  0.00000000000E+00 0. -1.
         25    2    1    2    0    0  0.22314373197E+02  0.70828701165E+02 -0.15091585640E+03  0.20955972748E+03  0.12500019004E+03 0.  0.
          2    1    1    2  501    0  0.32725798002E+02 -0.76721622205E+02 -0.47360421417E+03  0.48089306176E+03  0.00000000000E+00 0. -1.
          1    1    1    2  502    0 -0.55040171199E+02  0.58929210402E+01  0.21770211025E+03  0.22462937424E+03  0.00000000000E+00 0. -1.
         22    1    3    3    0    0  0.65938610280E+01  0.47149752548E+02 -0.16919591209E+03  0.17576642124E+03  0.00000000000E+00 0.  1.
         22    1    3    3    0    0  0.15720512169E+02  0.23678948617E+02  0.18280055691E+02  0.33793306238E+02  0.00000000000E+00 0.  1.
</event>
<event>
 7    1  0.6152634E-006  0.4060116E+02  0.7818608E-02  0.1523208E+00
          2   -1    0    0  502    0  0.00000000000E+00  0.00000000000E+00  0.14943207503E+04  0.14943207503E+04  0.00000000000E+00 0. -1.
          1   -1    0    0  501    0 -0.00000000000E+00 -0.00000000000E+00 -0.23832995571E+03  0.23832995571E+03  0.00000000000E+00 0. -1.
         25    2    1    2    0    0 -0.24385848268E+02 -0.51251175417E+01  0.12632312801E+04  0.12696450380E+04  0.12499727649E+03 0.  0.
          2    1    1    2  501    0 -0.33238326464E+02 -0.12825120567E+02 -0.22972948395E+03  0.23247560272E+03  0.00000000000E+00 0. -1.
          1    1    1    2  502    0  0.57624174732E+02  0.17950238109E+02  0.22248899847E+03  0.23053006529E+03  0.00000000000E+00 0. -1.
         22    1    3    3    0    0 -0.34722021271E+02 -0.20215229399E+02  0.12566397825E+03  0.13193070033E+03  0.00000000000E+00 0.  1.
         22    1    3    3    0    0  0.10336173003E+02  0.15090111857E+02  0.11375673019E+04  0.11377143377E+04  0.00000000000E+00 0.  1.
</event>
<event>
 7    1  0.6152634E-006  0.1282976E+03  0.7818608E-02  0.1316700E+00
          2   -1    0    0  502    0  0.00000000000E+00  0.00000000000E+00  0.24161114301E+04  0.24161114301E+04  0.00000000000E+00 0. -1.
          1   -1    0    0  501    0 -0.00000000000E+00 -0.00000000000E+00 -0.38637948823E+03  0.38637948823E+03  0.00000000000E+00 0. -1.
         25    2    1    2    0    0  0.37514051646E+02  0.81007247570E+02  0.19500724291E+02  0.15483734014E+03  0.12499938170E+03 0.  0.
          2    1    1    2  501    0 -0.89206796153E+02 -0.10168909847E+03 -0.30400773100E+03  0.33274498605E+03  0.00000000000E+00 0. -1.
          1    1    1    2  502    0  0.51692744508E+02  0.20681850902E+02  0.23142389486E+04  0.23149085921E+04  0.00000000000E+00 0. -1.
         22    1    3    3    0    0 -0.19804769638E+02  0.28001444932E+02 -0.42877312302E+02  0.54906955196E+02  0.00000000000E+00 0. -1.
         22    1    3    3    0    0  0.57318821283E+02  0.53005802639E+02  0.62378036594E+02  0.99930384948E+02  0.00000000000E+00 0. -1.
</event>
<event>
 7    1  0.6152634E-006  0.1852612E+03  0.7818608E-02  0.1267360E+00
          2   -1    0    0  502    0  0.00000000000E+00  0.00000000000E+00  0.73236181514E+03  0.73236181514E+03  0.00000000000E+00 0. -1.
          1   -1    0    0  501    0 -0.00000000000E+00 -0.00000000000E+00 -0.41034317426E+03  0.41034317426E+03  0.00000000000E+00 0. -1.
         25    2    1    2    0    0  0.51960992180E+02  0.15529089285E+03  0.36047004746E+02  0.20914127482E+03  0.12500192067E+03 0.  0.
          2    1    1    2  501    0  0.61077598101E+02 -0.23690472028E+01 -0.30587193487E+03  0.31191942215E+03  0.00000000000E+00 0. -1.
          1    1    1    2  502    0 -0.11303859028E+03 -0.15292184564E+03  0.59184357100E+03  0.62164429243E+03  0.00000000000E+00 0. -1.
         22    1    3    3    0    0  0.14100585075E+02  0.14465745551E+00  0.46997373684E+02  0.49067306410E+02  0.00000000000E+00 0. -1.
         22    1    3    3    0    0  0.37860407106E+02  0.15514623539E+03 -0.10950368937E+02  0.16007396841E+03  0.00000000000E+00 0. -1.
</event>
<event>
 7    1  0.6152634E-006  0.4992771E+02  0.7818608E-02  0.1474707E+00
          2   -1    0    0  502    0  0.00000000000E+00  0.00000000000E+00  0.42781547811E+03  0.42781547811E+03  0.00000000000E+00 0. -1.
          1   -1    0    0  501    0 -0.00000000000E+00 -0.00000000000E+00 -0.18949106900E+04  0.18949106900E+04  0.00000000000E+00 0. -1.
         25    2    1    2    0    0 -0.28979485478E+02  0.82254035246E+02 -0.56947524370E+02  0.16270733075E+03  0.12500047222E+03 0.  0.
          2    1    1    2  501    0  0.23116202286E+02 -0.33197976177E+02 -0.17832253412E+04  0.17836841318E+04  0.00000000000E+00 0. -1.
          1    1    1    2  502    0  0.58632831920E+01 -0.49056059069E+02  0.37307765364E+03  0.37633470563E+03  0.00000000000E+00 0. -1.
         22    1    3    3    0    0  0.29993028971E+02  0.17042344326E+02 -0.65846757332E+02  0.74335850961E+02  0.00000000000E+00 0.  1.
         22    1    3    3    0    0 -0.58972514449E+02  0.65211690920E+02  0.88992329624E+01  0.88371479791E+02  0.00000000000E+00 0.  1.
</event>
<event>
 7    1  0.6152634E-006  0.9435758E+02  0.7818608E-02  0.1336802E+00
          2   -1    0    0  502    0  0.00000000000E+00  0.00000000000E+00  0.14182242765E+04  0.14182242765E+04  0.00000000000E+00 0. -1.
          1   -1    0    0  501    0 -0.00000000000E+00 -0.00000000000E+00 -0.47524503246E+03  0.47524503246E+03  0.00000000000E+00 0. -1.
         25    2    1    2    0    0 -0.13749636807E+02 -0.15315369791E+03 -0.29885415222E+02  0.20040754276E+03  0.12499974983E+03 0.  0.
          2    1    1    2  501    0  0.76079789306E+01  0.90075508290E+02 -0.35365698066E+03  0.36502703805E+03  0.00000000000E+00 0. -1.
          1    1    1    2  502    0  0.61416578760E+01  0.63078189620E+02  0.13265216400E+04  0.13280347282E+04  0.00000000000E+00 0. -1.
         22    1    3    3    0    0  0.22735961933E+02 -0.14525046528E+03 -0.53251741375E+02  0.15636613952E+03  0.00000000000E+00 0.  1.
         22    1    3    3    0    0 -0.36485598740E+02 -0.79032326270E+01  0.23366326154E+02  0.44041403239E+02  0.00000000000E+00 0.  1.
</event>
<event>
 7    1  0.6152634E-006  0.6866917E+02  0.7818608E-02  0.1514933E+00
          2   -1    0    0  502    0  0.00000000000E+00  0.00000000000E+00  0.10047918669E+04  0.10047918669E+04  0.00000000000E+00 0. -1.
          1   -1    0    0  501    0 -0.00000000000E+00 -0.00000000000E+00 -0.61143680777E+03  0.61143680777E+03  0.00000000000E+00 0. -1.
         25    2    1    2    0    0 -0.61688029687E+02 -0.66561918030E+02  0.36822139590E+03  0.39930783411E+03  0.12499539209E+03 0.  0.
          2    1    1    2  501    0  0.47701469401E+02  0.49238866927E+02 -0.59372095196E+03  0.59766584727E+03  0.00000000000E+00 0. -1.
          1    1    1    2  502    0  0.13986560285E+02  0.17323051102E+02  0.61885461517E+03  0.61925499326E+03  0.00000000000E+00 0. -1.
         22    1    3    3    0    0 -0.65176417360E+02  0.12597174070E+02  0.23603745952E+03  0.24519448703E+03  0.00000000000E+00 0.  1.
         22    1    3    3    0    0  0.34883876729E+01 -0.79159092100E+02  0.13218393638E+03  0.15411334708E+03  0.00000000000E+00 0.  1.
</event>
<event>
 7    1  0.6152634E-006  0.3577260E+03  0.7818608E-02  0.1183023E+00
          2   -1    0    0  502    0  0.00000000000E+00  0.00000000000E+00  0.20550592128E+04  0.20550592128E+04  0.00000000000E+00 0. -1.
          1   -1    0    0  501    0 -0.00000000000E+00 -0.00000000000E+00 -0.87587181617E+03  0.87587181617E+03  0.00000000000E+00 0. -1.
         25    2    1    2    0    0 -0.59220354117E+02  0.36829120397E+03 -0.45625995673E+03  0.60244734966E+03  0.12499679890E+03 0.  0.
          2    1    1    2  501    0 -0.68101839100E+02 -0.34243506883E+02 -0.32596505725E+03  0.33475916239E+03  0.00000000000E+00 0. -1.
          1    1    1    2  502    0  0.12732219322E+03 -0.33404769708E+03  0.19614124106E+04  0.19937245169E+04  0.00000000000E+00 0. -1.
         22    1    3    3    0    0 -0.55683156530E+02  0.27021451303E+03 -0.24283581966E+03  0.36754010976E+03  0.00000000000E+00 0.  1.
         22    1    3    3    0    0 -0.35371975873E+01  0.98076690932E+02 -0.21342413708E+03  0.23490723990E+03  0.00000000000E+00 0.  1.
</event>
<event>
 7    1  0.6152634E-006  0.8181765E+02  0.7818608E-02  0.1392951E+00
          2   -1    0    0  502    0  0.00000000000E+00  0.00000000000E+00  0.63666535585E+03  0.63666535585E+03  0.00000000000E+00 0. -1.
          1   -1    0    0  501    0 -0.00000000000E+00 -0.00000000000E+00 -0.48762416884E+03  0.48762416884E+03  0.00000000000E+00 0. -1.
         25    2    1    2    0    0  0.12543251876E+02 -0.11546195328E+03  0.16727630482E+03  0.23894363739E+03  0.12499561540E+03 0.  0.
          2    1    1    2  501    0  0.15989706866E+02  0.79705088789E+02 -0.44690675546E+03  0.45424026680E+03  0.00000000000E+00 0. -1.
          1    1    1    2  502    0 -0.28532958742E+02  0.35756864495E+02  0.42867163765E+03  0.43110562049E+03  0.00000000000E+00 0. -1.
         22    1    3    3    0    0  0.52257960825E+02 -0.11958620923E+03  0.12320698148E+03  0.17947622737E+03  0.00000000000E+00 0.  1.
         22    1    3    3    0    0 -0.39714708949E+02  0.41242559411E+01  0.44069323342E+02  0.59467410014E+02  0.00000000000E+00 0.  1.
</event>
<event>
 7    1  0.6152634E-006  0.5819886E+02  0.7818608E-02  0.1440636E+00
          2   -1    0    0  502    0  0.00000000000E+00  0.00000000000E+00  0.19277366255E+04  0.19277366255E+04  0.00000000000E+00 0. -1.
          1   -1    0    0  501    0 -0.00000000000E+00 -0.00000000000E+00 -0.27736846710E+02  0.27736846710E+02  0.00000000000E+00 0. -1.
         25    2    1    2    0    0 -0.40909256301E+02  0.53099151259E+02  0.36891356497E+03  0.39524152669E+03  0.12500223553E+03 0.  0.
          2    1    1    2  501    0 -0.31936072936E+01 -0.58931722977E+02  0.46912999446E+02  0.75392152228E+02  0.00000000000E+00 0. -1.
          1    1    1    2  502    0  0.44102863594E+02  0.58325717184E+01  0.14841732143E+04  0.14848397933E+04  0.00000000000E+00 0. -1.
         22    1    3    3    0    0 -0.25043545201E+02  0.44152670770E+02  0.36965192268E+02  0.62793812846E+02  0.00000000000E+00 0. -1.
         22    1    3    3    0    0 -0.15865711100E+02  0.89464804884E+01  0.33194837270E+03  0.33244771384E+03  0.00000000000E+00 0. -1.
</event>
<event>
 7    1  0.6152634E-006  0.8256852E+02  0.7818608E-02  0.1435821E+00
          2   -1    0    0  502    0  0.00000000000E+00  0.00000000000E+00  0.19446969950E+04  0.19446969950E+04  0.00000000000E+00 0. -1.
          1   -1    0    0  501    0 -0.00000000000E+00 -0.00000000000E+00 -0.50803514464E+02  0.50803514464E+02  0.00000000000E+00 0. -1.
         25    2    1    2    0    0  0.35356207137E+02  0.82681306165E+02  0.68798083471E+03  0.70500268769E+03  0.12499960382E+03 0.  0.
          2    1    1    2  501    0 -0.32504482782E+02 -0.50927914066E+00 -0.34476844394E+02  0.47386217042E+02  0.00000000000E+00 0. -1.
          1    1    1    2  502    0 -0.28517243544E+01 -0.82172027024E+02  0.12403894902E+04  0.12431116047E+04  0.00000000000E+00 0. -1.
         22    1    3    3    0    0  0.65927194334E+02  0.78310011255E+02  0.63865669725E+03  0.64680849542E+03  0.00000000000E+00 0.  1.
         22    1    3    3    0    0 -0.30570987197E+02  0.43712949104E+01  0.49324137464E+02  0.58194192270E+02  0.00000000000E+00 0.  1.
</event>
<event>
 7    1  0.6152634E-006  0.7944412E+02  0.7818608E-02  0.1386417E+00
          2   -1    0    0  502    0  0.00000000000E+00  0.00000000000E+00  0.60200269168E+03  0.60200269168E+03  0.00000000000E+00 0. -1.
          1   -1    0    0  501    0 -0.00000000000E+00 -0.00000000000E+00 -0.58116720196E+02  0.58116720196E+02  0.00000000000E+00 0. -1.
         25    2    1    2    0    0 -0.47161504033E+02 -0.83780060250E+01  0.22026575021E+03  0.25775319919E+03  0.12500125011E+03 0.  0.
          2    1    1    2  501    0  0.69348398653E+02  0.52798823755E+02  0.13384378105E+02  0.88181958262E+02  0.00000000000E+00 0. -1.
          1    1    1    2  502    0 -0.22186894620E+02 -0.44420817730E+02  0.31023584317E+03  0.31418425442E+03  0.00000000000E+00 0. -1.
         22    1    3    3    0    0 -0.52009312655E+02 -0.42704768032E+02  0.49592648542E+02  0.83594835995E+02  0.00000000000E+00 0. -1.
         22    1    3    3    0    0  0.48478086222E+01  0.34326762007E+02  0.17067310167E+03  0.17415836320E+03  0.00000000000E+00 0. -1.
</event>
<event>
 7    1  0.6152634E-006  0.4730595E+02  0.7818608E-02  0.1527504E+00
          2   -1    0    0  502    0  0.00000000000E+00  0.00000000000E+00  0.15517681785E+03  0.15517681785E+03  0.00000000000E+00 0. -1.
          1   -1    0    0  501    0 -0.00000000000E+00 -0.00000000000E+00 -0.23724987219E+03  0.23724987219E+03  0.00000000000E+00 0. -1.
         25    2    1    2    0    0 -0.74224448348E+02 -0.13898725519E+02 -0.69571601539E+02  0.16176759898E+03  0.12500442006E+03 0.  0.
          2    1    1    2  501    0  0.28412506927E+02  0.87106658506E+01 -0.11472922746E+03  0.11851557654E+03  0.00000000000E+00 0. -1.
          1    1    1    2  502    0  0.45811941421E+02  0.51880596689E+01  0.10222777465E+03  0.11214351452E+03  0.00000000000E+00 0. -1.
         22    1    3    3    0    0  0.17961238606E+02  0.33835744130E+02 -0.36248430175E+02  0.52739097103E+02  0.00000000000E+00 0.  1.
         22    1    3    3    0    0 -0.92185686954E+02 -0.47734469649E+02 -0.33323171364E+02  0.10902850188E+03  0.00000000000E+00 0.  1.
</event>
<event>
 7    1  0.6152634E-006  0.5723127E+02  0.7818608E-02  0.1413589E+00
          2   -1    0    0  502    0  0.00000000000E+00  0.00000000000E+00  0.30212022180E+03  0.30212022180E+03  0.00000000000E+00 0. -1.
          1   -1    0    0  501    0 -0.00000000000E+00 -0.00000000000E+00 -0.33581141751E+03  0.33581141751E+03  0.00000000000E+00 0. -1.
         25    2    1    2    0    0 -0.17283881109E+01 -0.52150981780E+02  0.21870968761E+03  0.25725655379E+03  0.12499717912E+03 0.  0.
          2    1    1    2  501    0  0.56949631325E+02  0.56708238884E+01 -0.29254029319E+03  0.29808596393E+03  0.00000000000E+00 0. -1.
          1    1    1    2  502    0 -0.55221243215E+02  0.46480157892E+02  0.40139409874E+02  0.82589121589E+02  0.00000000000E+00 0. -1.
         22    1    3    3    0    0  0.42698762537E+02 -0.73919366600E+02  0.12642256847E+03  0.15254482259E+03  0.00000000000E+00 0.  1.
         22    1    3    3    0    0 -0.44427150648E+02  0.21768384819E+02  0.92287119137E+02  0.10471173120E+03  0.00000000000E+00 0.  1.
</event>
<event>
 7    1  0.6152634E-006  0.6041232E+02  0.7818608E-02  0.1474259E+00
          2   -1    0    0  502    0  0.00000000000E+00  0.00000000000E+00  0.79015853012E+03  0.79015853012E+03  0.00000000000E+00 0. -1.
          1   -1    0    0  501    0 -0.00000000000E+00 -0.00000000000E+00 -0.22292410988E+04  0.22292410988E+04  0.00000000000E+00 0. -1.
         25    2    1    2    0    0 -0.32545644907E+02  0.29438702279E+02  0.14840476300E+03  0.19893437771E+03  0.12500022704E+03 0.  0.
          2    1    1    2  501    0 -0.28219516731E+02 -0.18126072993E+02 -0.22022990329E+04  0.22025544094E+04  0.00000000000E+00 0. -1.
          1    1    1    2  502    0  0.60765161637E+02 -0.11312629286E+02  0.61481170128E+03  0.61791084185E+03  0.00000000000E+00 0. -1.
         22    1    3    3    0    0  0.18318760452E+02 -0.41365475922E+02  0.47900997962E+02  0.65887670990E+02  0.00000000000E+00 0. -1.
         22    1    3    3    0    0 -0.50864405358E+02  0.70804178201E+02  0.10050376504E+03  0.13304670672E+03  0.00000000000E+00 0. -1.
</event>
<event>
 7    1  0.6152634E-006  0.1441171E+03  0.7818608E-02  0.1375935E+00
          2   -1    0    0  502    0  0.00000000000E+00  0.00000000000E+00  0.29838656341E+03  0.29838656341E+03  0.00000000000E+00 0. -1.
          1   -1    0    0  501    0 -0.00000000000E+00 -0.00000000000E+00 -0.11788168650E+04  0.11788168650E+04  0.00000000000E+00 0. -1.
         25    2    1    2    0    0 -0.89831780210E+02 -0.72346241017E+02 -0.72058980971E+03  0.74039062289E+03  0.12499949314E+03 0.  0.
          2    1    1    2  501    0 -0.19868901631E+02 -0.22222507716E+02 -0.42959860800E+03  0.43063160253E+03  0.00000000000E+00 0. -1.
          1    1    1    2  502    0  0.10970068184E+03  0.94568748733E+02  0.26975811613E+03  0.30618120297E+03  0.00000000000E+00 0. -1.
         22    1    3    3    0    0 -0.10424544152E+03 -0.34054218856E+02 -0.33180121344E+03  0.34945507171E+03  0.00000000000E+00 0.  1.
         22    1    3    3    0    0  0.14413661311E+02 -0.38292022161E+02 -0.38878859626E+03  0.39093555118E+03  0.00000000000E+00 0.  1.
</event>
<event>
 7    1  0.6152634E-006  0.1224570E+03  0.7818608E-02  0.1247713E+00
          2   -1    0    0  502    0  0.00000000000E+00  0.00000000000E+00  0.28414483409E+03  0.28414483409E+03  0.00000000000E+00 0. -1.
          1   -1    0    0  501    0 -0.00000000000E+00 -0.00000000000E+00 -0.55092884454E+03  0.55092884454E+03  0.00000000000E+00 0. -1.
         25    2    1    2    0    0 -0.79188451320E+01 -0.13858588383E+03  0.18672377315E+03  0.26412731500E+03  0.12501486217E+03 0.  0.
          2    1    1    2  501    0 -0.90388325580E+02  0.84395502292E+02 -0.44098524136E+03  0.45799632455E+03  0.00000000000E+00 0. -1.
          1    1    1    2  502    0  0.98307170712E+02  0.54190381534E+02 -0.12522542245E+02  0.11295003908E+03  0.00000000000E+00 0. -1.
         22    1    3    3    0    0 -0.21704247264E+02 -0.62788960098E+02  0.48519699082E+01  0.66611331404E+02  0.00000000000E+00 0. -1.
         22    1    3    3    0    0  0.13785402132E+02 -0.75796923729E+02  0.18187180325E+03  0.19751598359E+03  0.00000000000E+00 0. -1.
</event>
<event>
 7    1  0.6152634E-006  0.2487808E+03  0.7818608E-02  0.1199709E+00
          2   -1    0    0  502    0  0.00000000000E+00  0.00000000000E+00  0.85516842910E+03  0.85516842910E+03  0.00000000000E+00 0. -1.
          1   -1    0    0  501    0 -0.00000000000E+00 -0.00000000000E+00 -0.17649066846E+04  0.17649066846E+04  0.00000000000E+00 0. -1.
         25    2    1    2    0    0  0.23473640902E+00  0.32549375541E+03 -0.52981529601E+03  0.63425442597E+03  0.12501275559E+03 0.  0.
          2    1    1    2  501    0 -0.39449454096E+02 -0.82219964090E+02 -0.11621380994E+04  0.11657106605E+04  0.00000000000E+00 0. -1.
          1    1    1    2  502    0  0.39214717687E+02 -0.24327379132E+03  0.78221513993E+03  0.82011002723E+03  0.00000000000E+00 0. -1.
         22    1    3    3    0    0  0.60995522400E+01  0.32607966941E+03 -0.45830758786E+03  0.56250422259E+03  0.00000000000E+00 0. -1.
         22    1    3    3    0    0 -0.58648158309E+01 -0.58591400150E+00 -0.71507708148E+02  0.71750203376E+02  0.00000000000E+00 0. -1.
</event>
<event>
 7    1  0.6152634E-006  0.1888474E+03  0.7818608E-02  0.1263822E+00
          2   -1    0    0  502    0  0.00000000000E+00  0.00000000000E+00  0.30990206179E+04  0.30990206179E+04  0.00000000000E+00 0. -1.
          1   -1    0    0  501    0 -0.00000000000E+00 -0.00000000000E+00 -0.51761320112E+02  0.51761320112E+02  0.00000000000E+00 0. -1.
         25    2    1    2    0    0 -0.12189013245E+03 -0.54679034579E+02  0.20698927965E+03  0.27625218824E+03  0.12499483353E+03 0.  0.
          2    1    1    2  501    0 -0.61197606461E+02 -0.10336793097E+02  0.56321790500E+02  0.83810145049E+02  0.00000000000E+00 0. -1.
          1    1    1    2  502    0  0.18308773891E+03  0.65015827675E+02  0.27839482277E+04  0.27907196048E+04  0.00000000000E+00 0. -1.
         22    1    3    3    0    0 -0.90983904700E+02 -0.91208297089E+02  0.17988510934E+03  0.22125929796E+03  0.00000000000E+00 0. -1.
         22    1    3    3    0    0 -0.30906227750E+02  0.36529262511E+02  0.27104170308E+02  0.54992890281E+02  0.00000000000E+00 0. -1.
</event>
<event>
 7    1  0.6152634E-006  0.2021139E+03  0.7818608E-02  0.1197100E+00
          2   -1    0    0  502    0  0.00000000000E+00  0.00000000000E+00  0.12748199785E+04  0.12748199785E+04  0.00000000000E+00 0. -1.
          1   -1    0    0  501    0 -0.00000000000E+00 -0.00000000000E+00 -0.33876325373E+03  0.33876325373E+03  0.00000000000E+00 0. -1.
         25    2    1    2    0    0 -0.21371921607E+03  0.18145171172E+03  0.33455738766E+03  0.45404355447E+03  0.12500510676E+03 0.  0.
          2    1    1    2  501    0  0.18353421471E+03 -0.69980585486E+02 -0.24001157051E+03  0.31014132955E+03  0.00000000000E+00 0. -1.
          1    1    1    2  502    0  0.30185001352E+02 -0.11147112623E+03  0.84151090758E+03  0.84939834817E+03  0.00000000000E+00 0. -1.
         22    1    3    3    0    0 -0.20485041058E+03  0.11593911127E+03  0.29347277936E+03  0.37620717758E+03  0.00000000000E+00 0. -1.
         22    1    3    3    0    0 -0.88688054825E+01  0.65512600446E+02  0.41084608299E+02  0.77836376888E+02  0.00000000000E+00 0. -1.
</event>
<event>
 7    1  0.6152634E-006  0.1335432E+03  0.7818608E-02  0.1232130E+00
          2   -1    0    0  502    0  0.00000000000E+00  0.00000000000E+00  0.20723776177E+04  0.20723776177E+04  0.00000000000E+00 0. -1.
          1   -1    0    0  501    0 -0.00000000000E+00 -0.00000000000E+00 -0.50096022479E+03  0.50096022479E+03  0.00000000000E+00 0. -1.
         25    2    1    2    0    0  0.11983889546E+03 -0.20140731081E+03  0.80180558971E+02  0.27745118417E+03  0.12499588733E+03 0.  0.
          2    1    1    2  501    0 -0.17014645403E+02  0.11937990974E+03 -0.39094217800E+03  0.40911715626E+03  0.00000000000E+00 0. -1.
          1    1    1    2  502    0 -0.10282425005E+03  0.82027401077E+02  0.18821790119E+04  0.18867695020E+04  0.00000000000E+00 0. -1.
         22    1    3    3    0    0  0.63619597700E+02 -0.17157032346E+03  0.10282430754E+03  0.20989680161E+03  0.00000000000E+00 0.  1.
         22    1    3    3    0    0  0.56219297757E+02 -0.29836987353E+02 -0.22643748570E+02  0.67554382566E+02  0.00000000000E+00 0.  1.
</event>
<event>
 7    1  0.6152634E-006  0.5667640E+02  0.7818608E-02  0.1520191E+00
          2   -1    0    0  502    0  0.00000000000E+00  0.00000000000E+00  0.30694283892E+04  0.30694283892E+04  0.00000000000E+00 0. -1.
          1   -1    0    0  501    0 -0.00000000000E+00 -0.00000000000E+00 -0.23466018787E+02  0.23466018787E+02  0.00000000000E+00 0. -1.
         25    2    1    2    0    0  0.36813088574E+02  0.84966985553E+01  0.34975500293E+03  0.37333786319E+03  0.12500080256E+03 0.  0.
          2    1    1    2  501    0  0.10375030475E+02  0.23884888817E+02  0.35392668416E+01  0.26280326880E+02  0.00000000000E+00 0. -1.
          1    1    1    2  502    0 -0.47188119049E+02 -0.32381587373E+02  0.26926681007E+04  0.26932762179E+04  0.00000000000E+00 0. -1.
         22    1    3    3    0    0  0.55248333781E+02  0.56549985462E+02  0.21727860429E+03  0.23121477272E+03  0.00000000000E+00 0. -1.
         22    1    3    3    0    0 -0.18435245207E+02 -0.48053286907E+02  0.13247639864E+03  0.14212309047E+03  0.00000000000E+00 0. -1.
</event>
<event>
 7    1  0.6152634E-006  0.5953507E+02  0.7818608E-02  0.1551144E+00
          2   -1    0    0  502    0  0.00000000000E+00  0.00000000000E+00  0.65737412654E+02  0.65737412654E+02  0.00000000000E+00 0. -1.
          1   -1    0    0  501    0 -0.00000000000E+00 -0.00000000000E+00 -0.55498207055E+03  0.55498207055E+03  0.00000000000E+00 0. -1.
         25    2    1    2    0    0  0.50517640669E+02 -0.17205022404E+02 -0.39776882176E+02  0.14161205254E+03  0.12499491292E+03 0.  0.
          2    1    1    2  501    0 -0.59883004303E+02 -0.74079139482E+00 -0.45435369385E+03  0.45828353897E+03  0.00000000000E+00 0. -1.
          1    1    1    2  502    0  0.93653636339E+01  0.17945813799E+02  0.48859181338E+01  0.20823891685E+02  0.00000000000E+00 0. -1.
         22    1    3    3    0    0 -0.24122419685E+02  0.86290012785E+01 -0.55454794119E+02  0.61086700560E+02  0.00000000000E+00 0. -1.
         22    1    3    3    0    0  0.74640060354E+02 -0.25834023683E+02  0.15677911943E+02  0.80525351984E+02  0.00000000000E+00 0. -1.
</event>
<event>
 7    1  0.6152634E-006  0.1328700E+03  0.7818608E-02  0.1275558E+00
          2   -1    0    0  502    0  0.00000000000E+00  0.00000000000E+00  0.62244346968E+03  0.62244346968E+03  0.00000000000E+00 0. -1.
          1   -1    0    0  501    0 -0.00000000000E+00 -0.00000000000E+00 -0.44265942513E+03  0.44265942513E+03  0.00000000000E+00 0. -1.
         25    2    1    2    0    0 -0.32518982057E+01  0.13357739261E+03  0.17321753253E+03  0.25195861625E+03  0.12500134425E+03 0.  0.
          2    1    1    2  501    0 -0.72645487729E+02 -0.11259615280E+03 -0.38816114675E+03  0.41063893673E+03  0.00000000000E+00 0. -1.
          1    1    1    2  502    0  0.75897385934E+02 -0.20981239806E+02  0.39472765876E+03  0.40250534184E+03  0.00000000000E+00 0. -1.
         22    1    3    3    0    0  0.37435943973E+02  0.22570063041E+02  0.18351383774E+01  0.43751861443E+02  0.00000000000E+00 0. -1.
         22    1    3    3    0    0 -0.40687842179E+02  0.11100732957E+03  0.17138239416E+03  0.20820675480E+03  0.00000000000E+00 0. -1.
</event>
<event>
 7    1  0.6152634E-006  0.1180143E+03  0.7818608E-02  0.1417613E+00
          2   -1    0    0  502    0  0.00000000000E+00  0.00000000000E+00  0.12714276179E+04  0.12714276179E+04  0.00000000000E+00 0. -1.
          1   -1    0    0  501    0 -0.00000000000E+00 -0.00000000000E+00 -0.28167882029E+04  0.28167882029E+04  0.00000000000E+00 0. -1.
         25    2    1    2    0    0  0.45210481614E+02  0.12445902118E+03  0.92657798204E+03  0.94430129203E+03  0.12499655090E+03 0.  0.
          2    1    1    2  501    0 -0.58935145694E+02 -0.10222591980E+03 -0.28061768194E+04  0.28086565885E+04  0.00000000000E+00 0. -1.
          1    1    1    2  502    0  0.13724664080E+02 -0.22233101377E+02  0.33423825240E+03  0.33525794035E+03  0.00000000000E+00 0. -1.
         22    1    3    3    0    0  0.43772839380E+02  0.14848423643E+03  0.85158725968E+03  0.86554288789E+03  0.00000000000E+00 0. -1.
         22    1    3    3    0    0  0.14376422334E+01 -0.24025215247E+02  0.74990722356E+02  0.78758404137E+02  0.00000000000E+00 0. -1.
</event>
<event>
 7    1  0.6152634E-006  0.1812521E+03  0.7818608E-02  0.1225777E+00
          2   -1    0    0  502    0  0.00000000000E+00  0.00000000000E+00  0.21372764430E+04  0.21372764430E+04  0.00000000000E+00 0. -1.
          1   -1    0    0  501    0 -0.00000000000E+00 -0.00000000000E+00 -0.22317406170E+04  0.22317406170E+04  0.00000000000E+00 0. -1.
         25    2    1    2    0    0  0.83805103424E+01 -0.10771880349E+03  0.71603042735E+03  0.73484282510E+03  0.12498332344E+03 0.  0.
          2    1    1    2  501    0 -0.88379559357E+02  0.15873166605E+03 -0.22170204269E+04  0.22244519013E+04  0.00000000000E+00 0. -1.
          1    1    1    2  502    0  0.79999049015E+02 -0.51012862565E+02  0.14065258254E+04  0.14097223335E+04  0.00000000000E+00 0. -1.
         22    1    3    3    0    0 -0.15741162361E+01 -0.12792990063E+03  0.68287788384E+03  0.69475948468E+03  0.00000000000E+00 0.  1.
         22    1    3    3    0    0  0.99546265785E+01  0.20211097146E+02  0.33152543508E+02  0.40083340420E+02  0.00000000000E+00 0.  1.
</event>
<event>
 7    1  0.6152634E-006  0.7148643E+02  0.7818608E-02  0.1488752E+00
          2   -1    0    0  502    0  0.00000000000E+00  0.00000000000E+00  0.56262860316E+03  0.56262860316E+03  0.00000000000E+00 0. -1.
          1   -1    0    0  501    0 -0.00000000000E+00 -0.00000000000E+00 -0.24885222774E+03  0.24885222774E+03  0.00000000000E+00 0. -1.
         25    2    1    2    0    0  0.32866417269E+02  0.37747547681E+02 -0.39391548872E+02  0.14029630483E+03  0.12500512104E+03 0.  0.
          2    1    1    2  501    0 -0.53186769460E+02 -0.53303596315E+02 -0.14974988440E+03  0.16761603056E+03  0.00000000000E+00 0. -1.
          1    1    1    2  502    0  0.20320352191E+02  0.15556048634E+02  0.50291780869E+03  0.50356849550E+03  0.00000000000E+00 0. -1.
         22    1    3    3    0    0  0.77467703739E+02  0.25143773591E+02 -0.45906751627E+02  0.93492696602E+02  0.00000000000E+00 0.  1.
         22    1    3    3    0    0 -0.44601286470E+02  0.12603774090E+02  0.65152027549E+01  0.46803608226E+02  0.00000000000E+00 0.  1.
</event>
<event>
 7    1  0.6152634E-006  0.1142122E+03  0.7818608E-02  0.1307368E+00
          2   -1    0    0  502    0  0.00000000000E+00  0.00000000000E+00  0.47354155376E+02  0.47354155376E+02  0.00000000000E+00 0. -1.
          1   -1    0    0  501    0 -0.00000000000E+00 -0.00000000000E+00 -0.20762436259E+04  0.20762436259E+04  0.00000000000E+00 0. -1.
         25    2    1    2    0    0  0.77266100309E+02 -0.12856230167E+03 -0.14301998589E+04  0.14434669840E+04  0.12500792782E+03 0.  0.
          2    1    1    2  501    0 -0.18267628857E+02  0.94648377344E+02 -0.60421459935E+03  0.61185562322E+03  0.00000000000E+00 0. -1.
          1    1    1    2  502    0 -0.58998471452E+02  0.33913924327E+02  0.55249877068E+01  0.68275174010E+02  0.00000000000E+00 0. -1.
         22    1    3    3    0    0  0.53258450627E+02 -0.12062481580E+03 -0.67028771279E+03  0.68313426694E+03  0.00000000000E+00 0. -1.
         22    1    3    3    0    0  0.24007649681E+02 -0.79374858711E+01 -0.75991214609E+03  0.76033271710E+03  0.00000000000E+00 0. -1.
</event>
<event>
 7    1  0.6152634E-006  0.9209071E+02  0.7818608E-02  0.1299495E+00
          2   -1    0    0  502    0  0.00000000000E+00  0.00000000000E+00  0.52981536735E+03  0.52981536735E+03  0.00000000000E+00 0. -1.
          1   -1    0    0  501    0 -0.00000000000E+00 -0.00000000000E+00 -0.15387546273E+03  0.15387546273E+03  0.00000000000E+00 0. -1.
         25    2    1    2    0    0 -0.28642468370E+02  0.15811696832E+02  0.21929521917E+02  0.13105673502E+03  0.12499825244E+03 0.  0.
          2    1    1    2  501    0  0.10826422438E+03 -0.59282657932E+02 -0.53951222141E+02  0.13470824096E+03  0.00000000000E+00 0. -1.
          1    1    1    2  502    0 -0.79621756010E+02  0.43470961100E+02  0.40796160485E+03  0.41792585409E+03  0.00000000000E+00 0. -1.
         22    1    3    3    0    0  0.40700817263E+02  0.37807162867E+02  0.17208491817E+02  0.58155569643E+02  0.00000000000E+00 0.  1.
         22    1    3    3    0    0 -0.69343285633E+02 -0.21995466034E+02  0.47210301008E+01  0.72901165379E+02  0.00000000000E+00 0.  1.
</event>
<event>
 7    1  0.6152634E-006  0.2610282E+02  0.7818608E-02  0.1677597E+00
          2   -1    0    0  502    0  0.00000000000E+00  0.00000000000E+00  0.11923496745E+04  0.11923496745E+04  0.00000000000E+00 0. -1.
          1   -1    0    0  501    0 -0.00000000000E+00 -0.00000000000E+00 -0.55948756594E+03  0.55948756594E+03  0.00000000000E+00 0. -1.
         25    2    1    2    0    0 -0.13775726263E+02 -0.16606424672E+02  0.51953909278E+03  0.53480127652E+03  0.12500396980E+03 0.  0.
          2    1    1    2  501    0 -0.12749324828E+02  0.17745343657E+02 -0.55137507541E+03  0.55180786175E+03  0.00000000000E+00 0. -1.
          1    1    1    2  502    0  0.26525051091E+02 -0.11389189848E+01  0.66469809116E+03  0.66522810213E+03  0.00000000000E+00 0. -1.
         22    1    3    3    0    0 -0.40491196822E+02  0.44497719326E+02  0.24576434879E+03  0.25302114374E+03  0.00000000000E+00 0.  1.
         22    1    3    3    0    0  0.26715470559E+02 -0.61104143998E+02  0.27377474400E+03  0.28178013278E+03  0.00000000000E+00 0.  1.
</event>
<event>
 7    1  0.6152634E-006  0.1004753E+03  0.7818608E-02  0.1460045E+00
          2   -1    0    0  502    0  0.00000000000E+00  0.00000000000E+00  0.47188699005E+02  0.47188699005E+02  0.00000000000E+00 0. -1.
          1   -1    0    0  501    0 -0.00000000000E+00 -0.00000000000E+00 -0.10982007104E+04  0.10982007104E+04  0.00000000000E+00 0. -1.
         25    2    1    2    0    0  0.69566214246E+02  0.68751830234E+02 -0.56871982999E+03  0.59045166943E+03  0.12499862633E+03 0.  0.
          2    1    1    2  501    0 -0.15149637868E+02  0.16413509378E+02 -0.44749080310E+03  0.44804791448E+03  0.00000000000E+00 0. -1.
          1    1    1    2  502    0 -0.54416576378E+02 -0.85165339611E+02 -0.34801378272E+02  0.10688982545E+03  0.00000000000E+00 0. -1.
         22    1    3    3    0    0  0.19573472260E+02  0.42355906553E+02 -0.49673268380E+03  0.49891933495E+03  0.00000000000E+00 0.  1.
         22    1    3    3    0    0  0.49992741986E+02  0.26395923680E+02 -0.71987146196E+02  0.91532334482E+02  0.00000000000E+00 0.  1.
</event>
<event>
 7    1  0.6152634E-006  0.8657382E+02  0.7818608E-02  0.1365345E+00
          2   -1    0    0  502    0  0.00000000000E+00  0.00000000000E+00  0.23898471753E+03  0.23898471753E+03  0.00000000000E+00 0. -1.
          1   -1    0    0  501    0 -0.00000000000E+00 -0.00000000000E+00 -0.18835599712E+03  0.18835599712E+03  0.00000000000E+00 0. -1.
         25    2    1    2    0    0  0.93477288038E+02  0.96590057752E+02  0.34020658816E+01  0.18358677420E+03  0.12499954790E+03 0.  0.
          2    1    1    2  501    0 -0.36039579652E+02 -0.40435322457E+02 -0.78009595004E+02  0.94970329663E+02  0.00000000000E+00 0. -1.
          1    1    1    2  502    0 -0.57437708385E+02 -0.56154735294E+02  0.12523624953E+03  0.14878361078E+03  0.00000000000E+00 0. -1.
         22    1    3    3    0    0 -0.46981751935E+01  0.23691035654E+02  0.47751070410E+02  0.53511706624E+02  0.00000000000E+00 0.  1.
         22    1    3    3    0    0  0.98175463231E+02  0.72899022097E+02 -0.44349004529E+02  0.13007506758E+03  0.00000000000E+00 0.  1.
</event>
<event>
 7    1  0.6152634E-006  0.1723165E+03  0.7818608E-02  0.1228083E+00
          2   -1    0    0  502    0  0.00000000000E+00  0.00000000000E+00  0.49729383972E+03  0.49729383972E+03  0.00000000000E+00 0. -1.
          1   -1    0    0  501    0 -0.00000000000E+00 -0.00000000000E+00 -0.33388777373E+03  0.33388777373E+03  0.00000000000E+00 0. -1.
         25    2    1    2    0    0  0.49472591025E+02  0.69319975956E+02  0.22492341672E+03  0.27105137023E+03  0.12500202233E+03 0.  0.
          2    1    1    2  501    0  0.11536813775E+03 -0.12799671747E+03 -0.24956165833E+03  0.30327213554E+03  0.00000000000E+00 0. -1.
          1    1    1    2  502    0 -0.16484072877E+03  0.58676741515E+02  0.18804430759E+03  0.25685810767E+03  0.00000000000E+00 0. -1.
         22    1    3    3    0    0  0.79558705883E+02  0.27479319039E+02  0.75788433067E+02  0.11326335349E+03  0.00000000000E+00 0.  1.
         22    1    3    3    0    0 -0.30086114858E+02  0.41840656917E+02  0.14913498365E+03  0.15778801674E+03  0.00000000000E+00 0.  1.
</event>
<event>
 7    1  0.6152634E-006  0.9012563E+02  0.7818608E-02  0.1374589E+00
          2   -1    0    0  502    0  0.00000000000E+00  0.00000000000E+00  0.11678052621E+04  0.11678052621E+04  0.00000000000E+00 0. -1.
          1   -1    0    0  501    0 -0.00000000000E+00 -0.00000000000E+00 -0.11018933614E+03  0.11018933614E+03  0.00000000000E+00 0. -1.
         25    2    1    2    0    0 -0.26772623529E+02 -0.37248405478E+02  0.14988924471E+03  0.20048901124E+03  0.12499936346E+03 0.  0.
          2    1    1    2  501    0 -0.29642803539E+02 -0.38003891847E+02 -0.75618759601E+02  0.89672673657E+02  0.00000000000E+00 0. -1.
          1    1    1    2  502    0  0.56415427067E+02  0.75252297325E+02  0.98334544082E+03  0.98783291332E+03  0.00000000000E+00 0. -1.
         22    1    3    3    0    0 -0.34976991809E+02 -0.76460452587E+02  0.63837388304E+02  0.10556894861E+03  0.00000000000E+00 0.  1.
         22    1    3    3    0    0  0.82043682799E+01  0.39212047109E+02  0.86051856409E+02  0.94920062625E+02  0.00000000000E+00 0.  1.
</event>
<event>
 7    1  0.6152634E-006  0.1855703E+03  0.7818608E-02  0.1326850E+00
          2   -1    0    0  502    0  0.00000000000E+00  0.00000000000E+00  0.11479025845E+04  0.11479025845E+04  0.00000000000E+00 0. -1.
          1   -1    0    0  501    0 -0.00000000000E+00 -0.00000000000E+00 -0.29674759190E+03  0.29674759190E+03  0.00000000000E+00 0. -1.
         25    2    1    2    0    0 -0.19250636346E+02 -0.17869029205E+03  0.36009895649E+03  0.42142222135E+03  0.12499849083E+03 0.  0.
          2    1    1    2  501    0 -0.35108630476E+02 -0.19876265402E+01 -0.25309691413E+03  0.25552810909E+03  0.00000000000E+00 0. -1.
          1    1    1    2  502    0  0.54359266822E+02  0.18067791859E+03  0.74415295028E+03  0.76769984601E+03  0.00000000000E+00 0. -1.
         22    1    3    3    0    0  0.22538074811E+02 -0.68103488908E+02  0.24923255326E+03  0.25935095069E+03  0.00000000000E+00 0. -1.
         22    1    3    3    0    0 -0.41788711156E+02 -0.11058680314E+03  0.11086640323E+03  0.16207127066E+03  0.00000000000E+00 0. -1.
</event>
<event>
 7    1  0.6152634E-006  0.1087377E+03  0.7818608E-02  0.1339181E+00
          2   -1    0    0  502    0  0.00000000000E+00  0.00000000000E+00  0.12031125453E+04  0.12031125453E+04  0.00000000000E+00 0. -1.
          1   -1    0    0  501    0 -0.00000000000E+00 -0.00000000000E+00 -0.52228612146E+03  0.52228612146E+03  0.00000000000E+00 0. -1.
         25    2    1    2    0    0  0.35994300405E+02  0.12861679807E+03  0.11676473869E+03  0.21701842189E+03  0.12500048333E+03 0.  0.
          2    1    1    2  501    0  0.13496242482E+02 -0.10734126261E+03 -0.46524845379E+03  0.47766140621E+03  0.00000000000E+00 0. -1.
          1    1    1    2  502    0 -0.49490542888E+02 -0.21275535462E+02  0.10293101389E+04  0.10307188387E+04  0.00000000000E+00 0. -1.
         22    1    3    3    0    0  0.49105620117E+02  0.15000680675E+03  0.10092350861E+03  0.18734716061E+03  0.00000000000E+00 0.  1.
         22    1    3    3    0    0 -0.13111319711E+02 -0.21390008678E+02  0.15841230082E+02  0.29671261286E+02  0.00000000000E+00 0.  1.
</event>
<event>
 7    1  0.6152634E-006  0.7189431E+02  0.7818608E-02  0.1415163E+00
          2   -1    0    0  502    0  0.00000000000E+00  0.00000000000E+00  0.15593411262E+04  0.15593411262E+04  0.00000000000E+00 0. -1.
          1   -1    0    0  501    0 -0.00000000000E+00 -0.00000000000E+00 -0.73153919420E+03  0.73153919420E+03  0.00000000000E+00 0. -1.
         25    2    1    2    0    0  0.23125958372E+02  0.19755588879E+02 -0.47855656123E+03  0.49554631476E+03  0.12499869813E+03 0.  0.
          2    1    1    2  501    0  0.42701246113E+02  0.93327024991E+01 -0.24169150365E+03  0.24561204916E+03  0.00000000000E+00 0. -1.
          1    1    1    2  502    0 -0.65827204484E+02 -0.29088291378E+02  0.15480499969E+04  0.15497219565E+04  0.00000000000E+00 0. -1.
         22    1    3    3    0    0  0.60454269255E+02 -0.25921540103E+02 -0.19122210168E+03  0.20221903245E+03  0.00000000000E+00 0.  1.
         22    1    3    3    0    0 -0.37328310883E+02  0.45677128982E+02 -0.28733445955E+03  0.29332728232E+03  0.00000000000E+00 0.  1.
</event>
<event>
 7    1  0.6152634E-006  0.8673556E+02  0.7818608E-02  0.1485040E+00
          2   -1    0    0  502    0  0.00000000000E+00  0.00000000000E+00  0.21741446820E+03  0.21741446820E+03  0.00000000000E+00 0. -1.
          1   -1    0    0  501    0 -0.00000000000E+00 -0.00000000000E+00 -0.13103916298E+04  0.13103916298E+04  0.00000000000E+00 0. -1.
         25    2    1    2    0    0  0.51721788628E+02  0.59496774132E+02 -0.22945430840E+02  0.14955346994E+03  0.12499895209E+03 0.  0.
          2    1    1    2  501    0 -0.10941951113E+02  0.18677745503E+02 -0.12114260765E+04  0.12116194631E+04  0.00000000000E+00 0. -1.
          1    1    1    2  502    0 -0.40779837515E+02 -0.78174519635E+02  0.14139434574E+03  0.16663316499E+03  0.00000000000E+00 0. -1.
         22    1    3    3    0    0  0.69478561972E+02  0.50879155951E+02 -0.61784355920E+02  0.10598710167E+03  0.00000000000E+00 0. -1.
         22    1    3    3    0    0 -0.17756773344E+02  0.86176181808E+01  0.38838925080E+02  0.43566368268E+02  0.00000000000E+00 0. -1.
</event>
<event>
 7    1  0.6152634E-006  0.1109036E+03  0.7818608E-02  0.1402677E+00
          2   -1    0    0  502    0  0.00000000000E+00  0.00000000000E+00  0.10942184251E+03  0.10942184251E+03  0.00000000000E+00 0. -1.
          1   -1    0    0  501    0 -0.00000000000E+00 -0.00000000000E+00 -0.12441302235E+04  0.12441302235E+04  0.00000000000E+00 0. -1.
         25    2    1    2    0    0  0.93239561001E+02  0.19099458651E+02 -0.45156684945E+03  0.47811719289E+03  0.12500010226E+03 0.  0.
          2    1    1    2  501    0  0.75102589246E+01  0.30323206527E+02 -0.74610507933E+03  0.74675878987E+03  0.00000000000E+00 0. -1.
          1    1    1    2  502    0 -0.10074981993E+03 -0.49422665178E+02  0.62963547791E+02  0.12867608324E+03  0.00000000000E+00 0. -1.
         22    1    3    3    0    0  0.92986977592E+02  0.20491878586E+02 -0.45990566615E+03  0.46965914964E+03  0.00000000000E+00 0.  1.
         22    1    3    3    0    0  0.25258340918E+00 -0.13924199346E+01  0.83388167004E+01  0.84580432499E+01  0.00000000000E+00 0.  1.
</event>
<event>
 7    1  0.6152634E-006  0.1693229E+03  0.7818608E-02  0.1327398E+00
          2   -1    0    0  502    0  0.00000000000E+00  0.00000000000E+00  0.95740407733E+03  0.95740407733E+03  0.00000000000E+00 0. -1.
          1   -1    0    0  501    0 -0.00000000000E+00 -0.00000000000E+00 -0.24906339954E+03  0.24906339954E+03  0.00000000000E+00 0. -1.
         25    2    1    2    0    0  0.72867227786E+02  0.12270395745E+03  0.20880459170E+03  0.28211851785E+03  0.12500242613E+03 0.  0.
          2    1    1    2  501    0  0.19912861727E+01  0.38301348614E+02 -0.19948060690E+03  0.20313412086E+03  0.00000000000E+00 0. -1.
          1    1    1    2  502    0 -0.74858513958E+02 -0.16100530607E+03  0.69901669299E+03  0.72121483815E+03  0.00000000000E+00 0. -1.
         22    1    3    3    0    0  0.13750172544E+02  0.11399573024E+03  0.18512536544E+03  0.21784282106E+03  0.00000000000E+00 0.  1.
         22    1    3    3    0    0  0.59117055242E+02  0.87082272145E+01  0.23679226260E+02  0.64275696791E+02  0.00000000000E+00 0.  1.
</event>
<event>
 7    1  0.6152634E-006  0.8629210E+02  0.7818608E-02  0.1367915E+00
          2   -1    0    0  502    0  0.00000000000E+00  0.00000000000E+00  0.15125025470E+04  0.15125025470E+04  0.00000000000E+00 0. -1.
          1   -1    0    0  501    0 -0.00000000000E+00 -0.00000000000E+00 -0.13900383881E+03  0.13900383881E+03  0.00000000000E+00 0. -1.
         25    2    1    2    0    0 -0.56583737413E+02 -0.45310374066E+02  0.72700208502E+03  0.74122308397E+03  0.12499951699E+03 0.  0.
          2    1    1    2  501    0  0.86840718814E+02  0.15614341798E+01 -0.11656741470E+03  0.14536750218E+03  0.00000000000E+00 0. -1.
          1    1    1    2  502    0 -0.30256981401E+02  0.43748939887E+02  0.76306403788E+03  0.76491579966E+03  0.00000000000E+00 0. -1.
         22    1    3    3    0    0 -0.83749441679E+02 -0.66826535008E+02  0.60413532574E+03  0.61356274868E+03  0.00000000000E+00 0. -1.
         22    1    3    3    0    0  0.27165704265E+02  0.21516160941E+02  0.12286675928E+03  0.12766033529E+03  0.00000000000E+00 0. -1.
</event>
<event>
 7    1  0.6152634E-006  0.8820934E+02  0.7818608E-02  0.1364106E+00
          2   -1    0    0  502    0  0.00000000000E+00  0.00000000000E+00  0.10668388631E+04  0.10668388631E+04  0.00000000000E+00 0. -1.
          1   -1    0    0  501    0 -0.00000000000E+00 -0.00000000000E+00 -0.70016924168E+03  0.70016924168E+03  0.00000000000E+00 0. -1.
         25    2    1    2    0    0  0.11108303281E+03  0.69992184059E+02  0.44406534776E+03  0.47964259100E+03  0.12499854406E+03 0.  0.
          2    1    1    2  501    0 -0.57476310105E+02 -0.66609523226E+02 -0.67834198845E+03  0.68402354353E+03  0.00000000000E+00 0. -1.
          1    1    1    2  502    0 -0.53606722708E+02 -0.33826608333E+01  0.60094626213E+03  0.60334197026E+03  0.00000000000E+00 0. -1.
         22    1    3    3    0    0  0.97778792968E+02  0.52347413255E-01  0.16645943005E+03  0.19305293819E+03  0.00000000000E+00 0. -1.
         22    1    3    3    0    0  0.13304239844E+02  0.69939836646E+02  0.27760591771E+03  0.28658965281E+03  0.00000000000E+00 0. -1.
</event>
<event>
 7    1  0.6152634E-006  0.5599571E+02  0.7818608E-02  0.1532302E+00
          2   -1    0    0  502    0  0.00000000000E+00  0.00000000000E+00  0.77126202672E+03  0.77126202672E+03  0.00000000000E+00 0. -1.
          1   -1    0    0  501    0 -0.00000000000E+00 -0.00000000000E+00 -0.15773283324E+03  0.15773283324E+03  0.00000000000E+00 0. -1.
         25    2    1    2    0    0 -0.39441822354E+01  0.61647803752E+02  0.36760724442E+02  0.14419590956E+03  0.12500040476E+03 0.  0.
          2    1    1    2  501    0  0.22642046957E+02 -0.88866842547E+01 -0.10142423332E+03  0.10430009852E+03  0.00000000000E+00 0. -1.
          1    1    1    2  502    0 -0.18697864721E+02 -0.52761119497E+02  0.67819270235E+03  0.68049885187E+03  0.00000000000E+00 0. -1.
         22    1    3    3    0    0  0.19095066969E+02  0.87361782923E+02 -0.55379520319E+01  0.89595600398E+02  0.00000000000E+00 0.  1.
         22    1    3    3    0    0 -0.23039249204E+02 -0.25713979171E+02  0.42298676474E+02  0.54600309158E+02  0.00000000000E+00 0.  1.
</event>
<event>
 7    1  0.6152634E-006  0.1003463E+03  0.7818608E-02  0.1386321E+00
          2   -1    0    0  502    0  0.00000000000E+00  0.00000000000E+00  0.21729335825E+04  0.21729335825E+04  0.00000000000E+00 0. -1.
          1   -1    0    0  501    0 -0.00000000000E+00 -0.00000000000E+00 -0.79451062738E+03  0.79451062738E+03  0.00000000000E+00 0. -1.
         25    2    1    2    0    0 -0.45242621496E+02 -0.91216458744E+02 -0.31046272666E+03  0.34982902899E+03  0.12500363089E+03 0.  0.
          2    1    1    2  501    0  0.72315678399E+01  0.10136004965E+03 -0.45862313820E+03  0.46974603578E+03  0.00000000000E+00 0. -1.
          1    1    1    2  502    0  0.38011053656E+02 -0.10143590904E+02  0.21475088200E+04  0.21478691452E+04  0.00000000000E+00 0. -1.
         22    1    3    3    0    0  0.11257112230E+02  0.17703097314E+02 -0.63865945126E+01  0.21929678970E+02  0.00000000000E+00 0.  1.
         22    1    3    3    0    0 -0.56499733726E+02 -0.10891955606E+03 -0.30407613215E+03  0.32789935002E+03  0.00000000000E+00 0.  1.
</event>
<event>
 7    1  0.6152634E-006  0.5245008E+02  0.7818608E-02  0.1433764E+00
          2   -1    0    0  502    0  0.00000000000E+00  0.00000000000E+00  0.14637266999E+04  0.14637266999E+04  0.00000000000E+00 0. -1.
          1   -1    0    0  501    0 -0.00000000000E+00 -0.00000000000E+00 -0.61497634897E+02  0.61497634897E+02  0.00000000000E+00 0. -1.
         25    2    1    2    0    0  0.35613373689E+02  0.47834632737E+02  0.63007562769E+03  0.64511740244E+03  0.12499880737E+03 0.  0.
          2    1    1    2  501    0 -0.51824382278E+02  0.39477958720E+01 -0.40346866917E+02  0.65796818774E+02  0.00000000000E+00 0. -1.
          1    1    1    2  502    0  0.16211008589E+02 -0.51782428609E+02  0.81250030421E+03  0.81431011356E+03  0.00000000000E+00 0. -1.
         22    1    3    3    0    0  0.19311364368E+02 -0.25311027464E+02  0.44221109718E+02  0.54489296652E+02  0.00000000000E+00 0. -1.
         22    1    3    3    0    0  0.16302009322E+02  0.73145660200E+02  0.58585451797E+03  0.59062810579E+03  0.00000000000E+00 0. -1.
</event>
<event>
 7    1  0.6152634E-006  0.8977362E+02  0.7818608E-02  0.1400382E+00
          2   -1    0    0  502    0  0.00000000000E+00  0.00000000000E+00  0.98298422649E+03  0.98298422649E+03  0.00000000000E+00 0. -1.
          1   -1    0    0  501    0 -0.00000000000E+00 -0.00000000000E+00 -0.23857570839E+03  0.23857570839E+03  0.00000000000E+00 0. -1.
         25    2    1    2    0    0  0.87802694820E+02  0.27180751092E+02  0.48379038762E+03  0.50806180119E+03  0.12500219290E+03 0.  0.
          2    1    1    2  501    0 -0.66656303019E+02 -0.60304271659E+02 -0.21668022846E+03  0.23458471672E+03  0.00000000000E+00 0. -1.
          1    1    1    2  502    0 -0.21146391802E+02  0.33123520567E+02  0.47729835894E+03  0.47891341697E+03  0.00000000000E+00 0. -1.
         22    1    3    3    0    0  0.10367965691E+03 -0.19511555739E+02  0.31363940147E+03  0.33090760979E+03  0.00000000000E+00 0. -1.
         22    1    3    3    0    0 -0.15876962094E+02  0.46692306831E+02  0.17015098615E+03  0.17715419140E+03  0.00000000000E+00 0. -1.
</event>
<event>
 7    1  0.6152634E-006  0.1018800E+03  0.7818608E-02  0.1461586E+00
          2   -1    0    0  502    0  0.00000000000E+00  0.00000000000E+00  0.98434863460E+03  0.98434863460E+03  0.00000000000E+00 0. -1.
          1   -1    0    0  501    0 -0.00000000000E+00 -0.00000000000E+00 -0.21223948618E+04  0.21223948618E+04  0.00000000000E+00 0. -1.
         25    2    1    2    0    0  0.52931700166E+02  0.99402050551E+02  0.16658947558E+02  0.16907004075E+03  0.12499850242E+03 0.  0.
          2    1    1    2  501    0 -0.31301268424E+02 -0.96823332562E+02 -0.20447908731E+04  0.20473212356E+04  0.00000000000E+00 0. -1.
          1    1    1    2  502    0 -0.21630431742E+02 -0.25787179887E+01  0.89008569833E+03  0.89035222004E+03  0.00000000000E+00 0. -1.
         22    1    3    3    0    0 -0.42660155634E+01  0.55341828923E+02  0.62466636668E+02  0.83564332188E+02  0.00000000000E+00 0. -1.
         22    1    3    3    0    0  0.57197715730E+02  0.44060221627E+02 -0.45807689111E+02  0.85505708559E+02  0.00000000000E+00 0. -1.
</event>
<event>
 7    1  0.6152634E-006  0.4634035E+02  0.7818608E-02  0.1533834E+00
          2   -1    0    0  502    0  0.00000000000E+00  0.00000000000E+00  0.66398825689E+03  0.66398825689E+03  0.00000000000E+00 0. -1.
          1   -1    0    0  501    0 -0.00000000000E+00 -0.00000000000E+00 -0.35993052498E+03  0.35993052498E+03  0.00000000000E+00 0. -1.
         25    2    1    2    0    0 -0.33434120099E+02  0.79296134400E+01 -0.30815777579E+02  0.13324963728E+03  0.12500053813E+03 0.  0.
          2    1    1    2  501    0  0.47229424009E+01  0.28711419219E+02 -0.27624856644E+03  0.27777674891E+03  0.00000000000E+00 0. -1.
          1    1    1    2  502    0  0.28711177698E+02 -0.36641032659E+02  0.61112207593E+03  0.61289239568E+03  0.00000000000E+00 0. -1.
         22    1    3    3    0    0  0.44991775509E+02 -0.15820914748E+02 -0.11666835112E+02  0.49098637949E+02  0.00000000000E+00 0.  1.
         22    1    3    3    0    0 -0.78425895608E+02  0.23750528188E+02 -0.19148942467E+02  0.84150999333E+02  0.00000000000E+00 0.  1.
</event>
<event>
 7    1  0.6152634E-006  0.1049733E+03  0.7818608E-02  0.1414953E+00
          2   -1    0    0  502    0  0.00000000000E+00  0.00000000000E+00  0.17476298882E+04  0.17476298882E+04  0.00000000000E+00 0. -1.
          1   -1    0    0  501    0 -0.00000000000E+00 -0.00000000000E+00 -0.12711563387E+04  0.12711563387E+04  0.00000000000E+00 0. -1.
         25    2    1    2    0    0  0.66200098080E+02 -0.57586894341E+02  0.79687360079E+02  0.17225902551E+03  0.12499757249E+03 0.  0.
          2    1    1    2  501    0 -0.60746387243E+01 -0.29362497255E+02 -0.12229637352E+04  0.12233312532E+04  0.00000000000E+00 0. -1.
          1    1    1    2  502    0 -0.60125459355E+02  0.86949391597E+02  0.16197499247E+04  0.16231959481E+04  0.00000000000E+00 0. -1.
         22    1    3    3    0    0  0.56445785019E+02  0.23705412521E+02  0.49823656564E+01  0.61423913883E+02  0.00000000000E+00 0.  1.
         22    1    3    3    0    0  0.97543130609E+01 -0.81292306862E+02  0.74704994423E+02  0.11083511163E+03  0.00000000000E+00 0.  1.
</event>
<event>
 7    1  0.6152634E-006  0.1003927E+03  0.7818608E-02  0.1284627E+00
          2   -1    0    0  502    0  0.00000000000E+00  0.00000000000E+00  0.11969163262E+04  0.11969163262E+04  0.00000000000E+00 0. -1.
          1   -1    0    0  501    0 -0.00000000000E+00 -0.00000000000E+00 -0.17212202404E+03  0.17212202404E+03  0.00000000000E+00 0. -1.
         25    2    1    2    0    0 -0.20342205183E+02  0.86404879285E+02  0.18929956119E+03  0.24359604155E+03  0.12500039647E+03 0.  0.
          2    1    1    2  501    0  0.97929328852E+02 -0.22102970839E+02 -0.12463481009E+03  0.16003915351E+03  0.00000000000E+00 0. -1.
          1    1    1    2  502    0 -0.77587123670E+02 -0.64301908447E+02  0.96012955102E+03  0.96540315513E+03  0.00000000000E+00 0. -1.
         22    1    3    3    0    0 -0.28079109020E+02  0.96176241013E+02  0.20219800892E+03  0.22565978930E+03  0.00000000000E+00 0. -1.
         22    1    3    3    0    0  0.77369038369E+01 -0.97713617279E+01 -0.12898447726E+02  0.17936252249E+02  0.00000000000E+00 0. -1.
</event>
<event>
 7    1  0.6152634E-006  0.1822989E+03  0.7818608E-02  0.1282875E+00
          2   -1    0    0  502    0  0.00000000000E+00  0.00000000000E+00  0.52536941611E+02  0.52536941611E+02  0.00000000000E+00 0. -1.
          1   -1    0    0  501    0 -0.00000000000E+00 -0.00000000000E+00 -0.24840034604E+04  0.24840034604E+04  0.00000000000E+00 0. -1.
         25    2    1    2    0    0  0.15340921284E+03 -0.29959634644E+02 -0.36990134245E+03  0.42057384429E+03  0.12499355606E+03 0.  0.
          2    1    1    2  501    0  0.50083372889E+02 -0.18894002241E+02 -0.16794027233E+04  0.16802555861E+04  0.00000000000E+00 0. -1.
          1    1    1    2  502    0 -0.20349258573E+03  0.48853636886E+02 -0.38216245297E+03  0.43571097157E+03  0.00000000000E+00 0. -1.
         22    1    3    3    0    0  0.17170703049E+02 -0.13132683560E+02 -0.20444979897E+03  0.20558944701E+03  0.00000000000E+00 0. -1.
         22    1    3    3    0    0  0.13623850979E+03 -0.16826951084E+02 -0.16545154348E+03  0.21498439728E+03  0.00000000000E+00 0. -1.
</event>
<event>
 7    1  0.6152634E-006  0.1083198E+03  0.7818608E-02  0.1379538E+00
          2   -1    0    0  502    0  0.00000000000E+00  0.00000000000E+00  0.28879219603E+03  0.28879219603E+03  0.00000000000E+00 0. -1.
          1   -1    0    0  501    0 -0.00000000000E+00 -0.00000000000E+00 -0.16249169536E+03  0.16249169536E+03  0.00000000000E+00 0. -1.
         25    2    1    2    0    0 -0.77558566642E+02 -0.13111915779E+02  0.16855268151E+03  0.22410261603E+03  0.12499888988E+03 0.  0.
          2    1    1    2  501    0  0.10460328702E+03  0.40525726025E+02 -0.10493898555E+03  0.15361110901E+03  0.00000000000E+00 0. -1.
          1    1    1    2  502    0 -0.27044720375E+02 -0.27413810246E+02  0.62686804705E+02  0.73570166348E+02  0.00000000000E+00 0. -1.
         22    1    3    3    0    0 -0.33424453815E+02 -0.57663296109E+01  0.17556834894E+03  0.17881468010E+03  0.00000000000E+00 0.  1.
         22    1    3    3    0    0 -0.44134112827E+02 -0.73455861681E+01 -0.70156674272E+01  0.45287935928E+02  0.00000000000E+00 0.  1.
</event>
<event>
 7    1  0.6152634E-006  0.1598475E+03  0.7818608E-02  0.1338882E+00
          2   -1    0    0  502    0  0.00000000000E+00  0.00000000000E+00  0.25869901951E+04  0.25869901951E+04  0.00000000000E+00 0. -1.
          1   -1    0    0  501    0 -0.00000000000E+00 -0.00000000000E+00 -0.90475933419E+03  0.90475933419E+03  0.00000000000E+00 0. -1.
         25    2    1    2    0    0  0.15100495453E+03  0.10923777328E+03 -0.85572887522E+02  0.24016832980E+03  0.12499088029E+03 0.  0.
          2    1    1    2  501    0 -0.11429053400E+03 -0.10784820288E+03 -0.73343111714E+03  0.75007650585E+03  0.00000000000E+00 0. -1.
          1    1    1    2  502    0 -0.36714420527E+02 -0.13895704050E+01  0.25012348656E+04  0.25015046936E+04  0.00000000000E+00 0. -1.
         22    1    3    3    0    0 -0.15183613082E+01 -0.13654517702E+02 -0.35399837799E+02  0.37972355614E+02  0.00000000000E+00 0.  1.
         22    1    3    3    0    0  0.15252331584E+03  0.12289229099E+03 -0.50173049723E+02  0.20219597419E+03  0.00000000000E+00 0.  1.
</event>
<event>
 7    1  0.6152634E-006  0.1184030E+03  0.7818608E-02  0.1258669E+00
          2   -1    0    0  502    0  0.00000000000E+00  0.00000000000E+00  0.36391575668E+03  0.36391575668E+03  0.00000000000E+00 0. -1.
          1   -1    0    0  501    0 -0.00000000000E+00 -0.00000000000E+00 -0.16385127208E+03  0.16385127208E+03  0.00000000000E+00 0. -1.
         25    2    1    2    0    0 -0.30329361395E+02 -0.14461683798E+02  0.66135623955E+02  0.14535711921E+03  0.12500304352E+03 0.  0.
          2    1    1    2  501    0 -0.78767572614E+02 -0.88402120608E+02 -0.63610422800E+02  0.13440815196E+03  0.00000000000E+00 0. -1.
          1    1    1    2  502    0  0.10909693401E+03  0.10286380441E+03  0.19753928344E+03  0.24800175760E+03  0.00000000000E+00 0. -1.
         22    1    3    3    0    0  0.28913268897E+02 -0.51860725987E+02  0.29742257573E+02  0.66408688466E+02  0.00000000000E+00 0.  1.
         22    1    3    3    0    0 -0.59242630292E+02  0.37399042189E+02  0.36393366382E+02  0.78948430745E+02  0.00000000000E+00 0.  1.
</event>
<event>
 7    1  0.6152634E-006  0.6878421E+02  0.7818608E-02  0.1501913E+00
          2   -1    0    0  502    0  0.00000000000E+00  0.00000000000E+00  0.17833589177E+03  0.17833589177E+03  0.00000000000E+00 0. -1.
          1   -1    0    0  501    0 -0.00000000000E+00 -0.00000000000E+00 -0.67457626594E+03  0.67457626594E+03  0.00000000000E+00 0. -1.
         25    2    1    2    0    0  0.58062154380E+02 -0.68036457030E+02  0.48063701909E+02  0.16104515632E+03  0.12500099870E+03 0.  0.
          2    1    1    2  501    0 -0.35813573100E+02  0.58307545800E+02 -0.61413454673E+03  0.61793496697E+03  0.00000000000E+00 0. -1.
          1    1    1    2  502    0 -0.22248581280E+02  0.97289112298E+01  0.69830470651E+02  0.73932034424E+02  0.00000000000E+00 0. -1.
         22    1    3    3    0    0  0.17957070505E+02  0.14448965238E+02 -0.31905506312E+02  0.39359754961E+02  0.00000000000E+00 0. -1.
         22    1    3    3    0    0  0.40105083875E+02 -0.82485422269E+02  0.79969208221E+02  0.12168540136E+03  0.00000000000E+00 0. -1.
</event>
<event>
 7    1  0.6152634E-006  0.1368588E+03  0.7818608E-02  0.1328325E+00
          2   -1    0    0  502    0  0.00000000000E+00  0.00000000000E+00  0.27159403514E+03  0.27159403514E+03  0.00000000000E+00 0. -1.
          1   -1    0    0  501    0 -0.00000000000E+00 -0.00000000000E+00 -0.11683361943E+04  0.11683361943E+04  0.00000000000E+00 0. -1.
         25    2    1    2    0    0 -0.51881245002E+02 -0.11063589148E+03 -0.56195130924E+02  0.18362946242E+03  0.12501968910E+03 0.  0.
          2    1    1    2  501    0  0.97323339763E+02  0.98386657197E+02 -0.10411213367E+04  0.10502787271E+04  0.00000000000E+00 0. -1.
          1    1    1    2  502    0 -0.45442094761E+02  0.12249234284E+02  0.20057430848E+03  0.20602203994E+03  0.00000000000E+00 0. -1.
         22    1    3    3    0    0  0.39884995362E+02 -0.34134447043E+02 -0.32761232839E+02  0.61881109453E+02  0.00000000000E+00 0.  1.
         22    1    3    3    0    0 -0.91766240364E+02 -0.76501444438E+02 -0.23433898085E+02  0.12174835297E+03  0.00000000000E+00 0.  1.
</event>
<event>
 7    1  0.6152634E-006  0.2027333E+03  0.7818608E-02  0.1239505E+00
          2   -1    0    0  502    0  0.00000000000E+00  0.00000000000E+00  0.16579645570E+04  0.16579645570E+04  0.00000000000E+00 0. -1.
          1   -1    0    0  501    0 -0.00000000000E+00 -0.00000000000E+00 -0.76456441758E+03  0.76456441758E+03  0.00000000000E+00 0. -1.
         25    2    1    2    0    0 -0.65089642301E+02  0.13754591231E+03 -0.13357583486E+03  0.23795469625E+03  0.12499757709E+03 0.  0.
          2    1    1    2  501    0  0.34781591395E+02  0.64933678755E+02 -0.56989312311E+03  0.57463406921E+03  0.00000000000E+00 0. -1.
          1    1    1    2  502    0  0.30308050906E+02 -0.20247959107E+03  0.15968690974E+04  0.16099402091E+04  0.00000000000E+00 0. -1.
         22    1    3    3    0    0  0.35185691146E+02  0.59242007939E+02 -0.36878218354E+02  0.78151464190E+02  0.00000000000E+00 0. -1.
         22    1    3    3    0    0 -0.10027533345E+03  0.78303904372E+02 -0.96697616506E+02  0.15980323206E+03  0.00000000000E+00 0. -1.
</event>
<event>
 7    1  0.6152634E-006  0.8633065E+02  0.7818608E-02  0.1378399E+00
          2   -1    0    0  502    0  0.00000000000E+00  0.00000000000E+00  0.51119235138E+03  0.51119235138E+03  0.00000000000E+00 0. -1.
          1   -1    0    0  501    0 -0.00000000000E+00 -0.00000000000E+00 -0.18617287612E+04  0.18617287612E+04  0.00000000000E+00 0. -1.
         25    2    1    2    0    0 -0.24118110020E+02  0.47543681843E+02  0.18845151824E+03  0.23233805990E+03  0.12499965775E+03 0.  0.
          2    1    1    2  501    0  0.72878669704E+02 -0.46641795960E+02 -0.18367835863E+04  0.18388204644E+04  0.00000000000E+00 0. -1.
          1    1    1    2  502    0 -0.48760559684E+02 -0.90188588284E+00  0.29779565824E+03  0.30176258822E+03  0.00000000000E+00 0. -1.
         22    1    3    3    0    0  0.12925635768E+02  0.74348150573E+02  0.16390230005E+03  0.18044024916E+03  0.00000000000E+00 0.  1.
         22    1    3    3    0    0 -0.37043745788E+02 -0.26804468730E+02  0.24549218181E+02  0.51897810737E+02  0.00000000000E+00 0.  1.
</event>
<event>
 7    1  0.6152634E-006  0.1526169E+03  0.7818608E-02  0.1301349E+00
          2   -1    0    0  502    0  0.00000000000E+00  0.00000000000E+00  0.20259339982E+04  0.20259339982E+04  0.00000000000E+00 0. -1.
          1   -1    0    0  501    0 -0.00000000000E+00 -0.00000000000E+00 -0.30580713642E+03  0.30580713642E+03  0.00000000000E+00 0. -1.
         25    2    1    2    0    0  0.31389398145E+02 -0.15500737451E+03  0.45315326490E+03  0.49596988953E+03  0.12500267741E+03 0.  0.
          2    1    1    2  501    0  0.48062248269E+02  0.24201763687E+02 -0.27803827203E+03  0.28319778564E+03  0.00000000000E+00 0. -1.
          1    1    1    2  502    0 -0.79451646414E+02  0.13080561082E+03  0.15450118689E+04  0.15525734595E+04  0.00000000000E+00 0. -1.
         22    1    3    3    0    0  0.37428885450E+02 -0.33690913192E+02  0.27980648042E+03  0.28430206750E+03  0.00000000000E+00 0. -1.
         22    1    3    3    0    0 -0.60394873049E+01 -0.12131646132E+03  0.17334678448E+03  0.21166782203E+03  0.00000000000E+00 0. -1.
</event>
<event>
 7    1  0.6152634E-006  0.1145024E+03  0.7818608E-02  0.1324438E+00
          2   -1    0    0  502    0  0.00000000000E+00  0.00000000000E+00  0.20399751540E+03  0.20399751540E+03  0.00000000000E+00 0. -1.
          1   -1    0    0  501    0 -0.00000000000E+00 -0.00000000000E+00 -0.68511579791E+03  0.68511579791E+03  0.00000000000E+00 0. -1.
         25    2    1    2    0    0  0.60598774338E+02  0.35039202948E+02 -0.47183497267E+02  0.15081745412E+03  0.12497865761E+03 0.  0.
          2    1    1    2  501    0  0.38827716466E+02  0.43382725848E+02 -0.55799284221E+03  0.56102198213E+03  0.00000000000E+00 0. -1.
          1    1    1    2  502    0 -0.99426490804E+02 -0.78421928796E+02  0.12405805697E+03  0.17727387706E+03  0.00000000000E+00 0. -1.
         22    1    3    3    0    0  0.83036525655E+02  0.61169210541E+02 -0.16023169418E+02  0.10437182986E+03  0.00000000000E+00 0.  1.
         22    1    3    3    0    0 -0.22437751317E+02 -0.26130007593E+02 -0.31160327849E+02  0.46445624257E+02  0.00000000000E+00 0.  1.
</event>
<event>
 7    1  0.6152634E-006  0.6745157E+02  0.7818608E-02  0.1427185E+00
          2   -1    0    0  502    0  0.00000000000E+00  0.00000000000E+00  0.16111518292E+03  0.16111518292E+03  0.00000000000E+00 0. -1.
          1   -1    0    0  501    0 -0.00000000000E+00 -0.00000000000E+00 -0.15311359164E+04  0.15311359164E+04  0.00000000000E+00 0. -1.
         25    2    1    2    0    0  0.35242151828E+02  0.78883154616E+02  0.48175230238E+02  0.15942092473E+03  0.12501846697E+03 0.  0.
          2    1    1    2  501    0  0.14991366780E+02 -0.39747518675E+02 -0.14574208492E+04  0.14580398273E+04  0.00000000000E+00 0. -1.
          1    1    1    2  502    0 -0.50233518608E+02 -0.39135635941E+02  0.39224885547E+02  0.74790347228E+02  0.00000000000E+00 0. -1.
         22    1    3    3    0    0 -0.41581257809E+02  0.32249692849E+02  0.45414423486E+02  0.69509089696E+02  0.00000000000E+00 0.  1.
         22    1    3    3    0    0  0.76823409637E+02  0.46633461767E+02  0.27608067524E+01  0.89911835030E+02  0.00000000000E+00 0.  1.
</event>
<event>
 7    1  0.6152634E-006  0.1615451E+03  0.7818608E-02  0.1394547E+00
          2   -1    0    0  502    0  0.00000000000E+00  0.00000000000E+00  0.10413834674E+03  0.10413834674E+03  0.00000000000E+00 0. -1.
          1   -1    0    0  501    0 -0.00000000000E+00 -0.00000000000E+00 -0.35511515885E+04  0.35511515885E+04  0.00000000000E+00 0. -1.
         25    2    1    2    0    0 -0.37209325246E+02 -0.14297895822E+03 -0.27980419199E+03  0.34021058236E+03  0.12500135245E+03 0.  0.
          2    1    1    2  501    0  0.22994786602E+02  0.16090168762E+03 -0.32372857856E+04  0.32413635049E+04  0.00000000000E+00 0. -1.
          1    1    1    2  502    0  0.14214538645E+02 -0.17922729401E+02  0.70076735825E+02  0.73715847970E+02  0.00000000000E+00 0. -1.
         22    1    3    3    0    0  0.15481437722E+02 -0.13586448273E+03 -0.22870563265E+03  0.26646781980E+03  0.00000000000E+00 0. -1.
         22    1    3    3    0    0 -0.52690762969E+02 -0.71144754902E+01 -0.51098559341E+02  0.73742762563E+02  0.00000000000E+00 0. -1.
</event>
<event>
 7    1  0.6152634E-006  0.5160364E+02  0.7818608E-02  0.1473763E+00
          2   -1    0    0  502    0  0.00000000000E+00  0.00000000000E+00  0.12202136309E+04  0.12202136309E+04  0.00000000000E+00 0. -1.
          1   -1    0    0  501    0 -0.00000000000E+00 -0.00000000000E+00 -0.12147426632E+04  0.12147426632E+04  0.00000000000E+00 0. -1.
         25    2    1    2    0    0  0.13093535223E+02 -0.61246504940E+01  0.71379818155E+03  0.72480456726E+03  0.12499945892E+03 0.  0.
          2    1    1    2  501    0 -0.31279710450E+02  0.41080242680E+02 -0.12079121868E+04  0.12090152429E+04  0.00000000000E+00 0. -1.
          1    1    1    2  502    0  0.18186175227E+02 -0.34955592186E+02  0.49958497286E+03  0.50113648391E+03  0.00000000000E+00 0. -1.
         22    1    3    3    0    0  0.15745828979E+02 -0.61577082213E+02  0.26155456302E+03  0.26916622675E+03  0.00000000000E+00 0.  1.
         22    1    3    3    0    0 -0.26522937562E+01  0.55452431719E+02  0.45224361853E+03  0.45563834052E+03  0.00000000000E+00 0.  1.
</event>
<event>
 7    1  0.6152634E-006  0.9494479E+02  0.7818608E-02  0.1365245E+00
          2   -1    0    0  502    0  0.00000000000E+00  0.00000000000E+00  0.30288609511E+04  0.30288609511E+04  0.00000000000E+00 0. -1.
          1   -1    0    0  501    0 -0.00000000000E+00 -0.00000000000E+00 -0.45084817003E+03  0.45084817003E+03  0.00000000000E+00 0. -1.
         25    2    1    2    0    0 -0.61385450175E+02  0.47076858465E+02  0.19922892709E+04  0.19977053985E+04  0.12500366574E+03 0.  0.
          2    1    1    2  501    0  0.34477059744E+02 -0.88541890785E+02 -0.44250312591E+03  0.45258960495E+03  0.00000000000E+00 0. -1.
          1    1    1    2  502    0  0.26908390430E+02  0.41465032320E+02  0.10282266361E+04  0.10294141176E+04  0.00000000000E+00 0. -1.
         22    1    3    3    0    0  0.91544064870E+01  0.60359816225E+02  0.13572451397E+04  0.13586174885E+04  0.00000000000E+00 0.  1.
         22    1    3    3    0    0 -0.70539856662E+02 -0.13282957760E+02  0.63504413111E+03  0.63908791007E+03  0.00000000000E+00 0.  1.
</event>
<event>
 7    1  0.1232870E-005  0.9575710E+02  0.7818608E-02  0.1298561E+00
          2   -1    0    0  502    0  0.00000000000E+00  0.00000000000E+00  0.13660939997E+04  0.13660939997E+04  0.00000000000E+00 0. -1.
          1   -1    0    0  501    0 -0.00000000000E+00 -0.00000000000E+00 -0.84404024272E+03  0.84404024272E+03  0.00000000000E+00 0. -1.
         25    2    1    2    0    0  0.87579836538E+01  0.49943552388E+01 -0.10075788111E+02  0.12581577304E+03  0.12500576537E+03 0.  0.
          2    1    1    2  501    0  0.76913226434E+02  0.42755361589E+02 -0.77175228207E+03  0.77675301752E+03  0.00000000000E+00 0. -1.
          1    1    1    2  502    0 -0.85671210088E+02 -0.47749716828E+02  0.13038818271E+04  0.13075654518E+04  0.00000000000E+00 0. -1.
         22    1    3    3    0    0 -0.53440222649E+02  0.38371492097E+01 -0.28829128080E+02  0.60841595449E+02  0.00000000000E+00 0. -1.
         22    1    3    3    0    0  0.62198206303E+02  0.11572060291E+01  0.18753339969E+02  0.64974177587E+02  0.00000000000E+00 0. -1.
</event>
<event>
 7    1  0.6152634E-006  0.8722957E+02  0.7818608E-02  0.1350001E+00
          2   -1    0    0  502    0  0.00000000000E+00  0.00000000000E+00  0.36799474430E+04  0.36799474430E+04  0.00000000000E+00 0. -1.
          1   -1    0    0  501    0 -0.00000000000E+00 -0.00000000000E+00 -0.13997305545E+03  0.13997305545E+03  0.00000000000E+00 0. -1.
         25    2    1    2    0    0  0.13827383460E+03  0.15445270439E+02  0.61400718384E+03  0.64186295960E+03  0.12500010954E+03 0.  0.
          2    1    1    2  501    0 -0.54090587762E+02 -0.28596342069E+02 -0.11798875446E+03  0.13290932489E+03  0.00000000000E+00 0. -1.
          1    1    1    2  502    0 -0.84183246840E+02  0.13151071629E+02  0.30439559582E+04  0.30451482140E+04  0.00000000000E+00 0. -1.
         22    1    3    3    0    0  0.25559098619E+02 -0.77178886897E+01  0.38155920291E+03  0.38249216809E+03  0.00000000000E+00 0.  1.
         22    1    3    3    0    0  0.11271473598E+03  0.23163159129E+02  0.23244798094E+03  0.25937079151E+03  0.00000000000E+00 0.  1.
</event>
<event>
 7    1  0.6152634E-006  0.7010819E+02  0.7818608E-02  0.1374179E+00
          2   -1    0    0  502    0  0.00000000000E+00  0.00000000000E+00  0.68704727876E+03  0.68704727876E+03  0.00000000000E+00 0. -1.
          1   -1    0    0  501    0 -0.00000000000E+00 -0.00000000000E+00 -0.59913666136E+03  0.59913666136E+03  0.00000000000E+00 0. -1.
         25    2    1    2    0    0  0.82297268018E+02 -0.31146236015E+02  0.24142311561E+03  0.28575112461E+03  0.12500262447E+03 0.  0.
          2    1    1    2  501    0 -0.64194076685E+02 -0.28327606399E+02 -0.57253756777E+03  0.57682111549E+03  0.00000000000E+00 0. -1.
          1    1    1    2  502    0 -0.18103191333E+02  0.59473842414E+02  0.41902506957E+03  0.42361170002E+03  0.00000000000E+00 0. -1.
         22    1    3    3    0    0  0.38139822369E+02 -0.67441217243E+02  0.20190624830E+03  0.21626164001E+03  0.00000000000E+00 0.  1.
         22    1    3    3    0    0  0.44157445649E+02  0.36294981228E+02  0.39516867301E+02  0.69489484599E+02  0.00000000000E+00 0.  1.
</event>
<event>
 7    1  0.6152634E-006  0.5466556E+02  0.7818608E-02  0.1494573E+00
          2   -1    0    0  502    0  0.00000000000E+00  0.00000000000E+00  0.18122442281E+04  0.18122442281E+04  0.00000000000E+00 0. -1.
          1   -1    0    0  501    0 -0.00000000000E+00 -0.00000000000E+00 -0.34758667767E+03  0.34758667767E+03  0.00000000000E+00 0. -1.
         25    2    1    2    0    0 -0.84233239124E+02 -0.95323207554E+01  0.24044343925E+03  0.28394202881E+03  0.12499569806E+03 0.  0.
          2    1    1    2  501    0  0.54363466224E+02 -0.23290467519E+01 -0.32339769032E+03  0.32794340521E+03  0.00000000000E+00 0. -1.
          1    1    1    2  502    0  0.29869772900E+02  0.11861367507E+02  0.15476118015E+04  0.15479454718E+04  0.00000000000E+00 0. -1.
         22    1    3    3    0    0 -0.43825981852E+02  0.34427230230E+02  0.20931202605E+03  0.21660442081E+03  0.00000000000E+00 0.  1.
         22    1    3    3    0    0 -0.40407257272E+02 -0.43959550986E+02  0.31131413203E+02  0.67337608000E+02  0.00000000000E+00 0.  1.
</event>
<event>
 7    1  0.6152634E-006  0.6646194E+02  0.7818608E-02  0.1412457E+00
          2   -1    0    0  502    0  0.00000000000E+00  0.00000000000E+00  0.17015493889E+03  0.17015493889E+03  0.00000000000E+00 0. -1.
          1   -1    0    0  501    0 -0.00000000000E+00 -0.00000000000E+00 -0.42131238594E+03  0.42131238594E+03  0.00000000000E+00 0. -1.
         25    2    1    2    0    0 -0.36577058852E+02  0.35274628420E+02 -0.11960979423E+03  0.18031851835E+03  0.12500433809E+03 0.  0.
          2    1    1    2  501    0 -0.31563071858E+02 -0.36540907810E+02 -0.26069149234E+03  0.26512547902E+03  0.00000000000E+00 0. -1.
          1    1    1    2  502    0  0.68140130710E+02  0.12662793899E+01  0.12914383952E+03  0.14602332746E+03  0.00000000000E+00 0. -1.
         22    1    3    3    0    0  0.43340237833E+02  0.25015506298E+02 -0.24654517399E+02  0.55785275825E+02  0.00000000000E+00 0.  1.
         22    1    3    3    0    0 -0.79917296685E+02  0.10259122122E+02 -0.94955276829E+02  0.12453324252E+03  0.00000000000E+00 0.  1.
</event>
<event>
 7    1  0.6152634E-006  0.9365937E+02  0.7818608E-02  0.1450504E+00
          2   -1    0    0  502    0  0.00000000000E+00  0.00000000000E+00  0.48749639030E+02  0.48749639030E+02  0.00000000000E+00 0. -1.
          1   -1    0    0  501    0 -0.00000000000E+00 -0.00000000000E+00 -0.52735909227E+03  0.52735909227E+03  0.00000000000E+00 0. -1.
         25    2    1    2    0    0 -0.11160677693E+03  0.15363236564E+01 -0.35533823811E+03  0.39287255790E+03  0.12500060136E+03 0.  0.
          2    1    1    2  501    0  0.22387760888E+02  0.12607029354E+02 -0.78141494227E+02  0.82257170792E+02  0.00000000000E+00 0. -1.
          1    1    1    2  502    0  0.89219016047E+02 -0.14143353010E+02 -0.45129720905E+02  0.10097900261E+03  0.00000000000E+00 0. -1.
         22    1    3    3    0    0 -0.11121976870E+03  0.47950755508E+02 -0.25257235774E+03  0.28011052782E+03  0.00000000000E+00 0. -1.
         22    1    3    3    0    0 -0.38700823731E+00 -0.46414431851E+02 -0.10276588037E+03  0.11276203008E+03  0.00000000000E+00 0. -1.
</event>
<event>
 7    1  0.6152634E-006  0.1119449E+03  0.7818608E-02  0.1259486E+00
          2   -1    0    0  502    0  0.00000000000E+00  0.00000000000E+00  0.32468938754E+03  0.32468938754E+03  0.00000000000E+00 0. -1.
          1   -1    0    0  501    0 -0.00000000000E+00 -0.00000000000E+00 -0.12525031320E+04  0.12525031320E+04  0.00000000000E+00 0. -1.
         25    2    1    2    0    0 -0.81656926600E+02 -0.44968849340E+02  0.11056608804E+01  0.15593296018E+03  0.12499525795E+03 0.  0.
          2    1    1    2  501    0 -0.25999877130E+02  0.10610748316E+03 -0.11567850562E+04  0.11619322088E+04  0.00000000000E+00 0. -1.
          1    1    1    2  502    0  0.10765680373E+03 -0.61138633815E+02  0.22786565083E+03  0.25932735059E+03  0.00000000000E+00 0. -1.
         22    1    3    3    0    0 -0.13638198854E+00 -0.58271190494E+02  0.33493510128E+02  0.67211349208E+02  0.00000000000E+00 0. -1.
         22    1    3    3    0    0 -0.81520544611E+02  0.13302341154E+02 -0.32387849248E+02  0.88721610968E+02  0.00000000000E+00 0. -1.
</event>
<event>
 7    1  0.6152634E-006  0.5460681E+02  0.7818608E-02  0.1449364E+00
          2   -1    0    0  502    0  0.00000000000E+00  0.00000000000E+00  0.16830765073E+03  0.16830765073E+03  0.00000000000E+00 0. -1.
          1   -1    0    0  501    0 -0.00000000000E+00 -0.00000000000E+00 -0.17407590879E+04  0.17407590879E+04  0.00000000000E+00 0. -1.
         25    2    1    2    0    0  0.15117089129E+02  0.96193837160E+02 -0.97071891175E+01  0.15875374494E+03  0.12500696508E+03 0.  0.
          2    1    1    2  501    0 -0.16547908902E+02 -0.51776801695E+02 -0.16507915240E+04  0.16516862069E+04  0.00000000000E+00 0. -1.
          1    1    1    2  502    0  0.14308197730E+01 -0.44417035465E+02  0.88047275891E+02  0.98626786810E+02  0.00000000000E+00 0. -1.
         22    1    3    3    0    0  0.89004735599E+01  0.89844540021E+02  0.46702592731E+02  0.10164837416E+03  0.00000000000E+00 0.  1.
         22    1    3    3    0    0  0.62166155693E+01  0.63492971386E+01 -0.56409781849E+02  0.57105370777E+02  0.00000000000E+00 0.  1.
</event>
<event>
 7    1  0.6152634E-006  0.1106601E+03  0.7818608E-02  0.1366431E+00
          2   -1    0    0  502    0  0.00000000000E+00  0.00000000000E+00  0.23188833666E+03  0.23188833666E+03  0.00000000000E+00 0. -1.
          1   -1    0    0  501    0 -0.00000000000E+00 -0.00000000000E+00 -0.40051807710E+03  0.40051807710E+03  0.00000000000E+00 0. -1.
         25    2    1    2    0    0 -0.77282006210E+02 -0.83680542693E+02  0.28613013819E+02  0.17151698644E+03  0.12499772146E+03 0.  0.
          2    1    1    2  501    0  0.40250837134E+02  0.10348414957E+03 -0.31599236768E+03  0.33493324042E+03  0.00000000000E+00 0. -1.
          1    1    1    2  502    0  0.37031169075E+02 -0.19803606874E+02  0.11874961343E+03  0.12595618690E+03  0.00000000000E+00 0. -1.
         22    1    3    3    0    0 -0.12854348160E+02 -0.87981269777E+02  0.51806261571E+02  0.10290688430E+03  0.00000000000E+00 0. -1.
         22    1    3    3    0    0 -0.64427658049E+02  0.43007270837E+01 -0.23193247752E+02  0.68610102146E+02  0.00000000000E+00 0. -1.
</event>
<event>
 7    1  0.6152634E-006  0.6696209E+02  0.7818608E-02  0.1415870E+00
          2   -1    0    0  502    0  0.00000000000E+00  0.00000000000E+00  0.10736639842E+04  0.10736639842E+04  0.00000000000E+00 0. -1.
          1   -1    0    0  501    0 -0.00000000000E+00 -0.00000000000E+00 -0.62979328308E+03  0.62979328308E+03  0.00000000000E+00 0. -1.
         25    2    1    2    0    0 -0.10439174054E+02  0.65890370775E+02 -0.70563671753E+02  0.15828995918E+03  0.12500384830E+03 0.  0.
          2    1    1    2  501    0 -0.40842513784E+02 -0.22588252674E+02 -0.51321276759E+03  0.51533065590E+03  0.00000000000E+00 0. -1.
          1    1    1    2  502    0  0.51281687838E+02 -0.43302118100E+02  0.10276471405E+04  0.10298366522E+04  0.00000000000E+00 0. -1.
         22    1    3    3    0    0 -0.23384988101E+02  0.34534550977E+02 -0.10314278968E+03  0.11125613665E+03  0.00000000000E+00 0.  1.
         22    1    3    3    0    0  0.12945814047E+02  0.31355819798E+02  0.32579117928E+02  0.47033822527E+02  0.00000000000E+00 0.  1.
</event>
<event>
 7    1  0.6152634E-006  0.7242342E+02  0.7818608E-02  0.1438122E+00
          2   -1    0    0  502    0  0.00000000000E+00  0.00000000000E+00  0.15655713174E+04  0.15655713174E+04  0.00000000000E+00 0. -1.
          1   -1    0    0  501    0 -0.00000000000E+00 -0.00000000000E+00 -0.16000619812E+03  0.16000619812E+03  0.00000000000E+00 0. -1.
         25    2    1    2    0    0 -0.10109908212E+02  0.79667274651E+02 -0.11419807180E+03  0.18739084611E+03  0.12500017884E+03 0.  0.
          2    1    1    2  501    0 -0.30600522172E+02 -0.19763296997E+02  0.31489155865E+02  0.48151290766E+02  0.00000000000E+00 0. -1.
          1    1    1    2  502    0  0.40710430384E+02 -0.59903977654E+02  0.14882740353E+04  0.14900353787E+04  0.00000000000E+00 0. -1.
         22    1    3    3    0    0  0.49774116124E+02  0.55968547991E+02 -0.93379767806E+02  0.11970681700E+03  0.00000000000E+00 0. -1.
         22    1    3    3    0    0 -0.59884024336E+02  0.23698726660E+02 -0.20818303994E+02  0.67684029114E+02  0.00000000000E+00 0. -1.
</event>
<event>
 7    1  0.6152634E-006  0.1705202E+03  0.7818608E-02  0.1232603E+00
          2   -1    0    0  502    0  0.00000000000E+00  0.00000000000E+00  0.22466537464E+04  0.22466537464E+04  0.00000000000E+00 0. -1.
          1   -1    0    0  501    0 -0.00000000000E+00 -0.00000000000E+00 -0.68488513129E+02  0.68488513129E+02  0.00000000000E+00 0. -1.
         25    2    1    2    0    0  0.19278319290E+03 -0.13868925302E+03  0.73083080465E+03  0.77854935231E+03  0.12500144236E+03 0.  0.
          2    1    1    2  501    0 -0.10008046943E+03  0.12324926785E+03  0.10360211732E+03  0.18957816620E+03  0.00000000000E+00 0. -1.
          1    1    1    2  502    0 -0.92702723472E+02  0.15439985177E+02  0.13437323113E+04  0.13470147410E+04  0.00000000000E+00 0. -1.
         22    1    3    3    0    0 -0.64920627982E+00 -0.29008315547E+02  0.21337040445E+03  0.21533423633E+03  0.00000000000E+00 0. -1.
         22    1    3    3    0    0  0.19343239918E+03 -0.10968093748E+03  0.51746040019E+03  0.56321511598E+03  0.00000000000E+00 0. -1.
</event>
<event>
 7    1  0.6152634E-006  0.1694214E+03  0.7818608E-02  0.1217401E+00
          2   -1    0    0  502    0  0.00000000000E+00  0.00000000000E+00  0.86847326890E+02  0.86847326890E+02  0.00000000000E+00 0. -1.
          1   -1    0    0  501    0 -0.00000000000E+00 -0.00000000000E+00 -0.29368028622E+04  0.29368028622E+04  0.00000000000E+00 0. -1.
         25    2    1    2    0    0  0.91100976032E+02  0.25400246850E+02 -0.33659989134E+03  0.37130679541E+03  0.12499875637E+03 0.  0.
          2    1    1    2  501    0  0.87812190744E+02  0.67584790472E+02 -0.24326268539E+04  0.24351492962E+04  0.00000000000E+00 0. -1.
          1    1    1    2  502    0 -0.17891316678E+03 -0.92985037322E+02 -0.80728790079E+02  0.21719409743E+03  0.00000000000E+00 0. -1.
         22    1    3    3    0    0  0.91419776059E+02 -0.17935622140E+02 -0.30141745963E+03  0.31548652422E+03  0.00000000000E+00 0. -1.
         22    1    3    3    0    0 -0.31880002692E+00  0.43335868990E+02 -0.35182431713E+02  0.55820271191E+02  0.00000000000E+00 0. -1.
</event>
<event>
 7    1  0.6152634E-006  0.8794310E+02  0.7818608E-02  0.1309884E+00
          2   -1    0    0  502    0  0.00000000000E+00  0.00000000000E+00  0.24396593356E+04  0.24396593356E+04  0.00000000000E+00 0. -1.
          1   -1    0    0  501    0 -0.00000000000E+00 -0.00000000000E+00 -0.31008592169E+03  0.31008592169E+03  0.00000000000E+00 0. -1.
         25    2    1    2    0    0 -0.15276624449E+03 -0.80671806965E+02  0.56326019341E+03  0.60227248915E+03  0.12499855920E+03 0.  0.
          2    1    1    2  501    0  0.73238021051E+02  0.46957253449E+02 -0.28303719906E+03  0.29610614217E+03  0.00000000000E+00 0. -1.
          1    1    1    2  502    0  0.79528223435E+02  0.33714553516E+02  0.18493504196E+04  0.18513666260E+04  0.00000000000E+00 0. -1.
         22    1    3    3    0    0 -0.15606521844E+03 -0.29122443813E+02  0.37898135270E+03  0.41089090381E+03  0.00000000000E+00 0.  1.
         22    1    3    3    0    0  0.32989739509E+01 -0.51549363152E+02  0.18427884072E+03  0.19138158534E+03  0.00000000000E+00 0.  1.
</event>
<event>
 7    1  0.6152634E-006  0.2921176E+03  0.7818608E-02  0.1329723E+00
          2   -1    0    0  502    0  0.00000000000E+00  0.00000000000E+00  0.29489390074E+03  0.29489390074E+03  0.00000000000E+00 0. -1.
          1   -1    0    0  501    0 -0.00000000000E+00 -0.00000000000E+00 -0.10713336614E+04  0.10713336614E+04  0.00000000000E+00 0. -1.
         25    2    1    2    0    0 -0.20129322793E+03  0.23407848280E+03 -0.20974309338E+03  0.39360986472E+03  0.12499944268E+03 0.  0.
          2    1    1    2  501    0  0.19005522244E+03 -0.21542191167E+03 -0.74215379651E+03  0.79581395142E+03  0.00000000000E+00 0. -1.
          1    1    1    2  502    0  0.11238005484E+02 -0.18656571127E+02  0.17545712921E+03  0.17680374601E+03  0.00000000000E+00 0. -1.
         22    1    3    3    0    0 -0.15547259461E+03  0.20169934250E+03 -0.22004879012E+03  0.33656473742E+03  0.00000000000E+00 0.  1.
         22    1    3    3    0    0 -0.45820633319E+02  0.32379140295E+02  0.10305696741E+02  0.57045127306E+02  0.00000000000E+00 0.  1.
</event>
<event>
 7    1  0.6152634E-006  0.5554314E+02  0.7818608E-02  0.1496529E+00
          2   -1    0    0  502    0  0.00000000000E+00  0.00000000000E+00  0.11034587711E+04  0.11034587711E+04  0.00000000000E+00 0. -1.
          1   -1    0    0  501    0 -0.00000000000E+00 -0.00000000000E+00 -0.25972276662E+02  0.25972276662E+02  0.00000000000E+00 0. -1.
         25    2    1    2    0    0  0.10048434365E+02  0.25650211328E+02  0.58938790240E+03  0.60312661179E+03  0.12499882390E+03 0.  0.
          2    1    1    2  501    0 -0.97626641330E+01 -0.56854918922E+02  0.26208666761E+02  0.63361546935E+02  0.00000000000E+00 0. -1.
          1    1    1    2  502    0 -0.28577023190E+00  0.31204707594E+02  0.46188992523E+03  0.46294288899E+03  0.00000000000E+00 0. -1.
         22    1    3    3    0    0  0.18230274234E+02  0.62296174549E+02  0.16854004445E+03  0.18060703985E+03  0.00000000000E+00 0. -1.
         22    1    3    3    0    0 -0.81818398687E+01 -0.36645963221E+02  0.42084785796E+03  0.42251957194E+03  0.00000000000E+00 0. -1.
</event>
<event>
 7    1  0.6152634E-006  0.1389173E+03  0.7818608E-02  0.1326085E+00
          2   -1    0    0  502    0  0.00000000000E+00  0.00000000000E+00  0.13393144816E+03  0.13393144816E+03  0.00000000000E+00 0. -1.
          1   -1    0    0  501    0 -0.00000000000E+00 -0.00000000000E+00 -0.94933262357E+03  0.94933262357E+03  0.00000000000E+00 0. -1.
         25    2    1    2    0    0  0.32009336271E+02 -0.15123734170E+03 -0.16268615412E+03  0.25688369753E+03  0.12500047272E+03 0.  0.
          2    1    1    2  501    0 -0.44665258097E+02  0.15545939161E+02 -0.68475345103E+03  0.68638469549E+03  0.00000000000E+00 0. -1.
          1    1    1    2  502    0  0.12655921826E+02  0.13569140254E+03  0.32038429730E+02  0.13999567872E+03  0.00000000000E+00 0. -1.
         22    1    3    3    0    0  0.86007677640E+01 -0.12958583014E+03 -0.17893348810E+03  0.22109648062E+03  0.00000000000E+00 0.  1.
         22    1    3    3    0    0  0.23408568507E+02 -0.21651511555E+02  0.16247333982E+02  0.35787216903E+02  0.00000000000E+00 0.  1.
</event>
<event>
 7    1  0.6152634E-006  0.1078597E+03  0.7818608E-02  0.1344525E+00
          2   -1    0    0  502    0  0.00000000000E+00  0.00000000000E+00  0.46857186412E+04  0.46857186412E+04  0.00000000000E+00 0. -1.
          1   -1    0    0  501    0 -0.00000000000E+00 -0.00000000000E+00 -0.10419787315E+03  0.10419787315E+03  0.00000000000E+00 0. -1.
         25    2    1    2    0    0  0.57961800565E+02  0.51692613014E+02  0.69205390603E+03  0.70752788817E+03  0.12500162851E+03 0.  0.
          2    1    1    2  501    0 -0.12699963339E+02  0.50279007998E+02 -0.88652019351E+02  0.10270563884E+03  0.00000000000E+00 0. -1.
          1    1    1    2  502    0 -0.45261837225E+02 -0.10197162101E+03  0.39781188814E+04  0.39796829873E+04  0.00000000000E+00 0. -1.
         22    1    3    3    0    0  0.67657843556E+02  0.26314267190E+02  0.66580584081E+03  0.66975177649E+03  0.00000000000E+00 0.  1.
         22    1    3    3    0    0 -0.96960429908E+01  0.25378345823E+02  0.26248065216E+02  0.37776111684E+02  0.00000000000E+00 0.  1.
</event>
<event>
 7    1  0.6152634E-006  0.6708965E+02  0.7818608E-02  0.1457286E+00
          2   -1    0    0  502    0  0.00000000000E+00  0.00000000000E+00  0.48629106368E+03  0.48629106368E+03  0.00000000000E+00 0. -1.
          1   -1    0    0  501    0 -0.00000000000E+00 -0.00000000000E+00 -0.11366186552E+04  0.11366186552E+04  0.00000000000E+00 0. -1.
         25    2    1    2    0    0 -0.42394714810E+02 -0.26372295780E+00  0.19247711882E+02  0.13338892014E+03  0.12499899284E+03 0.  0.
          2    1    1    2  501    0  0.61347763569E+02 -0.28120256433E+02 -0.10777805120E+04  0.10798912579E+04  0.00000000000E+00 0. -1.
          1    1    1    2  502    0 -0.18953048759E+02  0.28383979391E+02  0.40820520861E+03  0.40962954078E+03  0.00000000000E+00 0. -1.
         22    1    3    3    0    0  0.12222403683E+02 -0.86923558437E+01  0.61829788103E+02  0.63622848873E+02  0.00000000000E+00 0.  1.
         22    1    3    3    0    0 -0.54617118493E+02  0.84286328859E+01 -0.42582076220E+02  0.69766071267E+02  0.00000000000E+00 0.  1.
</event>
<event>
 7    1  0.6152634E-006  0.1295614E+03  0.7818608E-02  0.1408191E+00
          2   -1    0    0  502    0  0.00000000000E+00  0.00000000000E+00  0.35866190111E+03  0.35866190111E+03  0.00000000000E+00 0. -1.
          1   -1    0    0  501    0 -0.00000000000E+00 -0.00000000000E+00 -0.14996602052E+03  0.14996602052E+03  0.00000000000E+00 0. -1.
         25    2    1    2    0    0  0.14083707678E+03  0.27358022472E+02  0.13180870883E+03  0.23147985776E+03  0.12500338089E+03 0.  0.
          2    1    1    2  501    0 -0.11964787656E+03 -0.41736685772E+02 -0.58350409881E+02  0.13950747521E+03  0.00000000000E+00 0. -1.
          1    1    1    2  502    0 -0.21189200215E+02  0.14378663300E+02  0.13523758163E+03  0.13764058867E+03  0.00000000000E+00 0. -1.
         22    1    3    3    0    0  0.12855876328E+03 -0.27978137690E+02  0.76033219711E+02  0.15195783068E+03  0.00000000000E+00 0. -1.
         22    1    3    3    0    0  0.12278313498E+02  0.55336160162E+02  0.55775489123E+02  0.79522027079E+02  0.00000000000E+00 0. -1.
</event>
<event>
 7    1  0.6152634E-006  0.6176547E+02  0.7818608E-02  0.1460029E+00
          2   -1    0    0  502    0  0.00000000000E+00  0.00000000000E+00  0.77934874349E+03  0.77934874349E+03  0.00000000000E+00 0. -1.
          1   -1    0    0  501    0 -0.00000000000E+00 -0.00000000000E+00 -0.22470386978E+04  0.22470386978E+04  0.00000000000E+00 0. -1.
         25    2    1    2    0    0  0.16236495064E+01 -0.65431017646E+02  0.50853073395E+02  0.14998345769E+03  0.12500059279E+03 0.  0.
          2    1    1    2  501    0  0.32385965050E+02  0.52628726612E+02 -0.21965524014E+04  0.21974214630E+04  0.00000000000E+00 0. -1.
          1    1    1    2  502    0 -0.34009614556E+02  0.12802291034E+02  0.67800937370E+03  0.67898252067E+03  0.00000000000E+00 0. -1.
         22    1    3    3    0    0 -0.56085423320E+02 -0.11295851694E+02  0.40693348362E+02  0.70207688862E+02  0.00000000000E+00 0.  1.
         22    1    3    3    0    0  0.57709072826E+02 -0.54135165953E+02  0.10159725033E+02  0.79775768827E+02  0.00000000000E+00 0.  1.
</event>
<event>
 7    1  0.6152634E-006  0.1682625E+03  0.7818608E-02  0.1272186E+00
          2   -1    0    0  502    0  0.00000000000E+00  0.00000000000E+00  0.13748595232E+04  0.13748595232E+04  0.00000000000E+00 0. -1.
          1   -1    0    0  501    0 -0.00000000000E+00 -0.00000000000E+00 -0.92595465795E+02  0.92595465795E+02  0.00000000000E+00 0. -1.
         25    2    1    2    0    0 -0.65921615750E+02  0.18454459083E+03  0.53270613367E+03  0.58120958217E+03  0.12500555237E+03 0.  0.
          2    1    1    2  501    0  0.48726909579E+01 -0.16458455045E+03  0.34403371339E+02  0.16821239349E+03  0.00000000000E+00 0. -1.
          1    1    1    2  502    0  0.61048924792E+02 -0.19960040385E+02  0.71515455240E+03  0.71803301334E+03  0.00000000000E+00 0. -1.
         22    1    3    3    0    0 -0.50130769357E+02  0.13719684648E+03  0.21699644793E+03  0.26157891187E+03  0.00000000000E+00 0.  1.
         22    1    3    3    0    0 -0.15790846393E+02  0.47347744355E+02  0.31570968574E+03  0.31963067030E+03  0.00000000000E+00 0.  1.
</event>
<event>
 7    1  0.6152634E-006  0.4851716E+02  0.7818608E-02  0.1460865E+00
          2   -1    0    0  502    0  0.00000000000E+00  0.00000000000E+00  0.14267539593E+04  0.14267539593E+04  0.00000000000E+00 0. -1.
          1   -1    0    0  501    0 -0.00000000000E+00 -0.00000000000E+00 -0.30930984870E+03  0.30930984870E+03  0.00000000000E+00 0. -1.
         25    2    1    2    0    0  0.25333799665E+02 -0.64913074468E+02  0.36025716008E+03  0.38764215037E+03  0.12500282681E+03 0.  0.
          2    1    1    2  501    0  0.17488359059E+02  0.42527158016E+02 -0.29327047900E+03  0.29685345833E+03  0.00000000000E+00 0. -1.
          1    1    1    2  502    0 -0.42822158725E+02  0.22385916451E+02  0.10504574295E+04  0.10515681993E+04  0.00000000000E+00 0. -1.
         22    1    3    3    0    0  0.57655917835E+02 -0.56639221573E+01  0.26271310476E+03  0.26902501796E+03  0.00000000000E+00 0.  1.
         22    1    3    3    0    0 -0.32322118169E+02 -0.59249152310E+02  0.97544055326E+02  0.11861713241E+03  0.00000000000E+00 0.  1.
</event>
<event>
 7    1  0.6152634E-006  0.7115611E+02  0.7818608E-02  0.1435395E+00
          2   -1    0    0  502    0  0.00000000000E+00  0.00000000000E+00  0.40275628961E+03  0.40275628961E+03  0.00000000000E+00 0. -1.
          1   -1    0    0  501    0 -0.00000000000E+00 -0.00000000000E+00 -0.16575762231E+04  0.16575762231E+04  0.00000000000E+00 0. -1.
         25    2    1    2    0    0 -0.11620830796E+02  0.32960203211E+02  0.24052087325E+03  0.27330733444E+03  0.12500075953E+03 0.  0.
          2    1    1    2  501    0  0.37398215330E+02 -0.60666784966E+02 -0.16379400939E+04  0.16394898099E+04  0.00000000000E+00 0. -1.
          1    1    1    2  502    0 -0.25777384534E+02  0.27706581756E+02  0.14259928719E+03  0.14753536841E+03  0.00000000000E+00 0. -1.
         22    1    3    3    0    0 -0.53342452095E+01  0.52620688548E+02  0.24626600630E+03  0.25188159301E+03  0.00000000000E+00 0.  1.
         22    1    3    3    0    0 -0.62865855869E+01 -0.19660485337E+02 -0.57451330513E+01  0.21425741430E+02  0.00000000000E+00 0.  1.
</event>
<event>
 7    1  0.6152634E-006  0.1057377E+03  0.7818608E-02  0.1300226E+00
          2   -1    0    0  502    0  0.00000000000E+00  0.00000000000E+00  0.17601039835E+04  0.17601039835E+04  0.00000000000E+00 0. -1.
          1   -1    0    0  501    0 -0.00000000000E+00 -0.00000000000E+00 -0.11248207505E+03  0.11248207505E+03  0.00000000000E+00 0. -1.
         25    2    1    2    0    0 -0.75517605313E+02 -0.13052052492E+03  0.99368127101E+02  0.21962728547E+03  0.12499441467E+03 0.  0.
          2    1    1    2  501    0  0.80878647620E+02  0.52227426484E+02 -0.62469616965E+01  0.96478413381E+02  0.00000000000E+00 0. -1.
          1    1    1    2  502    0 -0.53610423071E+01  0.78293098439E+02  0.15545007430E+04  0.15564803597E+04  0.00000000000E+00 0. -1.
         22    1    3    3    0    0  0.34199936524E+02 -0.42655869612E+02  0.20083885107E+02  0.58245354420E+02  0.00000000000E+00 0.  1.
         22    1    3    3    0    0 -0.10971754184E+03 -0.87864655312E+02  0.79284241994E+02  0.16138193105E+03  0.00000000000E+00 0.  1.
</event>
<event>
 7    1  0.6152634E-006  0.1027615E+03  0.7818608E-02  0.1337138E+00
          2   -1    0    0  502    0  0.00000000000E+00  0.00000000000E+00  0.17305350225E+04  0.17305350225E+04  0.00000000000E+00 0. -1.
          1   -1    0    0  501    0 -0.00000000000E+00 -0.00000000000E+00 -0.48818344713E+03  0.48818344713E+03  0.00000000000E+00 0. -1.
         25    2    1    2    0    0 -0.13625457695E+03  0.28432543557E+02  0.11201689624E+04  0.11356830378E+04  0.12499495528E+03 0.  0.
          2    1    1    2  501    0  0.56959493232E+02  0.11059221272E+02 -0.47539737970E+03  0.47892521218E+03  0.00000000000E+00 0. -1.
          1    1    1    2  502    0  0.79295083715E+02 -0.39491764829E+02  0.59757999266E+03  0.60411021959E+03  0.00000000000E+00 0. -1.
         22    1    3    3    0    0 -0.38296494257E+02  0.76334426158E+00  0.77173416210E+03  0.77268416647E+03  0.00000000000E+00 0. -1.
         22    1    3    3    0    0 -0.97958082690E+02  0.27669199295E+02  0.34843480029E+03  0.36299887136E+03  0.00000000000E+00 0. -1.
</event>
<event>
 7    1  0.6152634E-006  0.6689496E+02  0.7818608E-02  0.1447108E+00
          2   -1    0    0  502    0  0.00000000000E+00  0.00000000000E+00  0.11227277809E+04  0.11227277809E+04  0.00000000000E+00 0. -1.
          1   -1    0    0  501    0 -0.00000000000E+00 -0.00000000000E+00 -0.22312930134E+04  0.22312930134E+04  0.00000000000E+00 0. -1.
         25    2    1    2    0    0 -0.25327749259E+02  0.35236038512E+02  0.19614769428E+03  0.23660537198E+03  0.12500044314E+03 0.  0.
          2    1    1    2  501    0 -0.36512868438E+02 -0.52356757986E+01 -0.22096069172E+04  0.22099147789E+04  0.00000000000E+00 0. -1.
          1    1    1    2  502    0  0.61840617697E+02 -0.30000362714E+02  0.90489399044E+03  0.90750064336E+03  0.00000000000E+00 0. -1.
         22    1    3    3    0    0  0.40698354658E+02  0.23461972492E+02  0.25944744562E+02  0.53665165568E+02  0.00000000000E+00 0. -1.
         22    1    3    3    0    0 -0.66026103918E+02  0.11774066020E+02  0.17020294972E+03  0.18294020641E+03  0.00000000000E+00 0. -1.
</event>
<event>
 7    1  0.6152634E-006  0.3887779E+02  0.7818608E-02  0.1522026E+00
          2   -1    0    0  502    0  0.00000000000E+00  0.00000000000E+00  0.37281131473E+03  0.37281131473E+03  0.00000000000E+00 0. -1.
          1   -1    0    0  501    0 -0.00000000000E+00 -0.00000000000E+00 -0.34489751298E+03  0.34489751298E+03  0.00000000000E+00 0. -1.
         25    2    1    2    0    0 -0.54111490947E+02 -0.30184502978E+02 -0.43678619381E+02  0.14619219002E+03  0.12500070784E+03 0.  0.
          2    1    1    2  501    0  0.38325679945E+02 -0.38313723074E+01 -0.24737336798E+03  0.25035399007E+03  0.00000000000E+00 0. -1.
          1    1    1    2  502    0  0.15785811002E+02  0.34015875286E+02  0.31896578911E+03  0.32116264762E+03  0.00000000000E+00 0. -1.
         22    1    3    3    0    0 -0.73578746005E+02  0.27542051331E+02 -0.26088163376E+02  0.82782780356E+02  0.00000000000E+00 0.  1.
         22    1    3    3    0    0  0.19467255058E+02 -0.57726554309E+02 -0.17590456005E+02  0.63409409667E+02  0.00000000000E+00 0.  1.
</event>
<event>
 7    1  0.6152634E-006  0.1159031E+03  0.7818608E-02  0.1420445E+00
          2   -1    0    0  502    0  0.00000000000E+00  0.00000000000E+00  0.18074205473E+04  0.18074205473E+04  0.00000000000E+00 0. -1.
          1   -1    0    0  501    0 -0.00000000000E+00 -0.00000000000E+00 -0.24581078668E+03  0.24581078668E+03  0.00000000000E+00 0. -1.
         25    2    1    2    0    0 -0.81880854275E+02  0.39032279591E+02 -0.16502286537E+01  0.15445185480E+03  0.12499863620E+03 0.  0.
          2    1    1    2  501    0 -0.24836908892E+02  0.77904650168E+01 -0.16477548803E+03  0.16681883840E+03  0.00000000000E+00 0. -1.
          1    1    1    2  502    0  0.10671776317E+03 -0.46822744608E+02  0.17280354773E+04  0.17319606408E+04  0.00000000000E+00 0. -1.
         22    1    3    3    0    0 -0.47417699189E+01  0.61194615880E+02  0.29825448749E+02  0.68240917255E+02  0.00000000000E+00 0.  1.
         22    1    3    3    0    0 -0.77139084356E+02 -0.22162336288E+02 -0.31475677403E+02  0.86210937549E+02  0.00000000000E+00 0.  1.
</event>
<event>
 7    1  0.6152634E-006  0.1011640E+03  0.7818608E-02  0.1315388E+00
          2   -1    0    0  502    0  0.00000000000E+00  0.00000000000E+00  0.14393703030E+04  0.14393703030E+04  0.00000000000E+00 0. -1.
          1   -1    0    0  501    0 -0.00000000000E+00 -0.00000000000E+00 -0.29201309887E+03  0.29201309887E+03  0.00000000000E+00 0. -1.
         25    2    1    2    0    0 -0.79204666385E+02 -0.13595336254E+03  0.57995192499E+02  0.20915895898E+03  0.12500932688E+03 0.  0.
          2    1    1    2  501    0  0.72295168215E+02  0.64840827651E+02 -0.20450212305E+03  0.22638913978E+03  0.00000000000E+00 0. -1.
          1    1    1    2  502    0  0.69094981703E+01  0.71112534892E+02  0.12938641347E+04  0.12958353031E+04  0.00000000000E+00 0. -1.
         22    1    3    3    0    0 -0.30360314880E+02  0.16269069599E+02 -0.93424064731E+01  0.35689100633E+02  0.00000000000E+00 0. -1.
         22    1    3    3    0    0 -0.48844351505E+02 -0.15222243214E+03  0.67337598972E+02  0.17346985835E+03  0.00000000000E+00 0. -1.
</event>
<event>
 7    1  0.6590697E-006  0.1178572E+03  0.7818608E-02  0.1295878E+00
          2   -1    0    0  502    0  0.00000000000E+00  0.00000000000E+00  0.89162993679E+03  0.89162993679E+03  0.00000000000E+00 0. -1.
          1   -1    0    0  501    0 -0.00000000000E+00 -0.00000000000E+00 -0.27836200723E+04  0.27836200723E+04  0.00000000000E+00 0. -1.
         25    2    1    2    0    0  0.50116616069E+02  0.60279435558E+02 -0.40431240137E+03  0.43040331927E+03  0.12503285079E+03 0.  0.
          2    1    1    2  501    0 -0.13245361274E+02 -0.12362540176E+03 -0.23630964149E+04  0.23663650068E+04  0.00000000000E+00 0. -1.
          1    1    1    2  502    0 -0.36871254795E+02  0.63345966199E+02  0.87541868071E+03  0.87848168302E+03  0.00000000000E+00 0. -1.
         22    1    3    3    0    0  0.90570380723E+02  0.25244937315E+02 -0.26225814519E+03  0.27860300688E+03  0.00000000000E+00 0. -1.
         22    1    3    3    0    0 -0.40453764654E+02  0.35034498243E+02 -0.14205425619E+03  0.15180031239E+03  0.00000000000E+00 0. -1.
</event>
<event>
 7    1  0.6152634E-006  0.9234817E+02  0.7818608E-02  0.1422613E+00
          2   -1    0    0  502    0  0.00000000000E+00  0.00000000000E+00  0.12805572453E+04  0.12805572453E+04  0.00000000000E+00 0. -1.
          1   -1    0    0  501    0 -0.00000000000E+00 -0.00000000000E+00 -0.92280943923E+02  0.92280943923E+02  0.00000000000E+00 0. -1.
         25    2    1    2    0    0  0.69664295186E+02  0.98448610584E+02  0.23723776686E+03  0.29402729126E+03  0.12500018814E+03 0.  0.
          2    1    1    2  501    0 -0.55617584911E+02 -0.69551263586E+02 -0.32461394473E+02  0.94786265613E+02  0.00000000000E+00 0. -1.
          1    1    1    2  502    0 -0.14046710275E+02 -0.28897346998E+02  0.98349992899E+03  0.98402463234E+03  0.00000000000E+00 0. -1.
         22    1    3    3    0    0 -0.10110062479E+02  0.38260569881E+02  0.33864100086E+01  0.39718413156E+02  0.00000000000E+00 0. -1.
         22    1    3    3    0    0  0.79774357665E+02  0.60188040703E+02  0.23385135685E+03  0.25430887811E+03  0.00000000000E+00 0. -1.
</event>
<event>
 7    1  0.6152634E-006  0.7399404E+02  0.7818608E-02  0.1484135E+00
          2   -1    0    0  502    0  0.00000000000E+00  0.00000000000E+00  0.22508529823E+04  0.22508529823E+04  0.00000000000E+00 0. -1.
          1   -1    0    0  501    0 -0.00000000000E+00 -0.00000000000E+00 -0.10293108805E+04  0.10293108805E+04  0.00000000000E+00 0. -1.
         25    2    1    2    0    0 -0.35357020628E+02  0.84486791415E+02  0.17029125505E+02  0.15589204865E+03  0.12499681150E+03 0.  0.
          2    1    1    2  501    0  0.22683848603E+02 -0.11727335166E+02 -0.95907938997E+03  0.95941928459E+03  0.00000000000E+00 0. -1.
          1    1    1    2  502    0  0.12673172026E+02 -0.72759456249E+02  0.21635923662E+04  0.21648525296E+04  0.00000000000E+00 0. -1.
         22    1    3    3    0    0 -0.59538923872E+02  0.60211687483E+02 -0.36601905515E+02  0.92249825218E+02  0.00000000000E+00 0.  1.
         22    1    3    3    0    0  0.24181903244E+02  0.24275103933E+02  0.53631031020E+02  0.63642223434E+02  0.00000000000E+00 0.  1.
</event>
<event>
 7    1  0.6152634E-006  0.4889988E+02  0.7818608E-02  0.1514253E+00
          2   -1    0    0  502    0  0.00000000000E+00  0.00000000000E+00  0.13107524988E+03  0.13107524988E+03  0.00000000000E+00 0. -1.
          1   -1    0    0  501    0 -0.00000000000E+00 -0.00000000000E+00 -0.27788084706E+04  0.27788084706E+04  0.00000000000E+00 0. -1.
         25    2    1    2    0    0 -0.59499135822E+02  0.50350180604E+02 -0.52945005221E+03  0.54956205599E+03  0.12500323092E+03 0.  0.
          2    1    1    2  501    0  0.41356626181E+02 -0.24710618836E+02 -0.22370007068E+04  0.22375194183E+04  0.00000000000E+00 0. -1.
          1    1    1    2  502    0  0.18142509641E+02 -0.25639561768E+02  0.11871753825E+03  0.12280224620E+03  0.00000000000E+00 0. -1.
         22    1    3    3    0    0 -0.16196237563E+02 -0.22088151289E+02 -0.35201362438E+03  0.35307760661E+03  0.00000000000E+00 0. -1.
         22    1    3    3    0    0 -0.43302898259E+02  0.72438331893E+02 -0.17743642783E+03  0.19648444938E+03  0.00000000000E+00 0. -1.
</event>
<event>
 7    1  0.6152634E-006  0.3956179E+02  0.7818608E-02  0.1591698E+00
          2   -1    0    0  502    0  0.00000000000E+00  0.00000000000E+00  0.49667074558E+03  0.49667074558E+03  0.00000000000E+00 0. -1.
          1   -1    0    0  501    0 -0.00000000000E+00 -0.00000000000E+00 -0.12175737911E+03  0.12175737911E+03  0.00000000000E+00 0. -1.
         25    2    1    2    0    0 -0.44064610053E+01 -0.22712585154E+02  0.18812855824E+03  0.22705284409E+03  0.12500144464E+03 0.  0.
          2    1    1    2  501    0 -0.14177243017E+02  0.37335319171E+02 -0.97888404366E+02  0.10572161551E+03  0.00000000000E+00 0. -1.
          1    1    1    2  502    0  0.18583704022E+02 -0.14622734017E+02  0.28467321259E+03  0.28565366508E+03  0.00000000000E+00 0. -1.
         22    1    3    3    0    0  0.91711339288E+01  0.51019741620E+02  0.84842017865E+02  0.99424804390E+02  0.00000000000E+00 0.  1.
         22    1    3    3    0    0 -0.13577594934E+02 -0.73732326774E+02  0.10328654038E+03  0.12762803970E+03  0.00000000000E+00 0.  1.
</event>
<event>
 7    1  0.6152634E-006  0.1287680E+03  0.7818608E-02  0.1351186E+00
          2   -1    0    0  502    0  0.00000000000E+00  0.00000000000E+00  0.12699099581E+04  0.12699099581E+04  0.00000000000E+00 0. -1.
          1   -1    0    0  501    0 -0.00000000000E+00 -0.00000000000E+00 -0.10999940242E+03  0.10999940242E+03  0.00000000000E+00 0. -1.
         25    2    1    2    0    0  0.86458469991E+02 -0.11453920643E+03  0.58435019928E+03  0.61456000804E+03  0.12499820498E+03 0.  0.
          2    1    1    2  501    0 -0.10251199260E+03  0.76779441774E+02 -0.50699391682E+02  0.13774694052E+03  0.00000000000E+00 0. -1.
          1    1    1    2  502    0  0.16053522613E+02  0.37759764657E+02  0.62625974814E+03  0.62760241200E+03  0.00000000000E+00 0. -1.
         22    1    3    3    0    0  0.70631133054E+02 -0.26004261400E+01  0.30747060288E+03  0.31548960491E+03  0.00000000000E+00 0. -1.
         22    1    3    3    0    0  0.15827336938E+02 -0.11193878029E+03  0.27687959640E+03  0.29907040313E+03  0.00000000000E+00 0. -1.
</event>
<event>
 7    1  0.6152634E-006  0.8495063E+02  0.7818608E-02  0.1397550E+00
          2   -1    0    0  502    0  0.00000000000E+00  0.00000000000E+00  0.59445515478E+03  0.59445515478E+03  0.00000000000E+00 0. -1.
          1   -1    0    0  501    0 -0.00000000000E+00 -0.00000000000E+00 -0.83169227877E+03  0.83169227877E+03  0.00000000000E+00 0. -1.
         25    2    1    2    0    0  0.45396706005E+02 -0.21828529809E+00 -0.86757913089E+02  0.15878195340E+03  0.12499545862E+03 0.  0.
          2    1    1    2  501    0  0.39054577719E+02  0.16692659024E+02 -0.70496509884E+03  0.70624336845E+03  0.00000000000E+00 0. -1.
          1    1    1    2  502    0 -0.84451283723E+02 -0.16474373726E+02  0.55448588793E+03  0.56112211169E+03  0.00000000000E+00 0. -1.
         22    1    3    3    0    0  0.73891266240E+02  0.38547483011E+02 -0.66321120486E+02  0.10650971174E+03  0.00000000000E+00 0. -1.
         22    1    3    3    0    0 -0.28494560235E+02 -0.38765768309E+02 -0.20436792604E+02  0.52272241654E+02  0.00000000000E+00 0. -1.
</event>
<event>
 7    1  0.6152634E-006  0.4695777E+02  0.7818608E-02  0.1469587E+00
          2   -1    0    0  502    0  0.00000000000E+00  0.00000000000E+00  0.29849065288E+02  0.29849065288E+02  0.00000000000E+00 0. -1.
          1   -1    0    0  501    0 -0.00000000000E+00 -0.00000000000E+00 -0.67641262040E+03  0.67641262040E+03  0.00000000000E+00 0. -1.
         25    2    1    2    0    0  0.36474110465E+02  0.13497068352E+02 -0.20215555352E+03  0.24082070049E+03  0.12496083537E+03 0.  0.
          2    1    1    2  501    0 -0.37888673576E+02  0.31094036523E+02 -0.39821955216E+03  0.40122462837E+03  0.00000000000E+00 0. -1.
          1    1    1    2  502    0  0.14145631102E+01 -0.44591104875E+02 -0.46188449433E+02  0.64216356825E+02  0.00000000000E+00 0. -1.
         22    1    3    3    0    0  0.76451579970E+02 -0.70264998186E+01 -0.81015585573E+02  0.11161425037E+03  0.00000000000E+00 0.  1.
         22    1    3    3    0    0 -0.39977469505E+02  0.20523568171E+02 -0.12113996795E+03  0.12920645012E+03  0.00000000000E+00 0.  1.
</event>
<event>
 7    1  0.6152634E-006  0.6250249E+02  0.7818608E-02  0.1534021E+00
          2   -1    0    0  502    0  0.00000000000E+00  0.00000000000E+00  0.43388671153E+03  0.43388671153E+03  0.00000000000E+00 0. -1.
          1   -1    0    0  501    0 -0.00000000000E+00 -0.00000000000E+00 -0.66421859261E+03  0.66421859261E+03  0.00000000000E+00 0. -1.
         25    2    1    2    0    0  0.45675032968E+02  0.13806400786E+02 -0.33033030726E+03  0.35639681840E+03  0.12499501963E+03 0.  0.
          2    1    1    2  501    0 -0.59154295560E+02 -0.30616254657E+02 -0.31711711337E+03  0.32403680242E+03  0.00000000000E+00 0. -1.
          1    1    1    2  502    0  0.13479262592E+02  0.16809853871E+02  0.41711553955E+03  0.41767168332E+03  0.00000000000E+00 0. -1.
         22    1    3    3    0    0  0.39835774908E+02 -0.33006347654E+02 -0.49392694455E+02  0.71525842977E+02  0.00000000000E+00 0. -1.
         22    1    3    3    0    0  0.58392580595E+01  0.46812748441E+02 -0.28093761281E+03  0.28487097543E+03  0.00000000000E+00 0. -1.
</event>
<event>
 7    1  0.6152634E-006  0.8389014E+02  0.7818608E-02  0.1353981E+00
          2   -1    0    0  502    0  0.00000000000E+00  0.00000000000E+00  0.17604005334E+04  0.17604005334E+04  0.00000000000E+00 0. -1.
          1   -1    0    0  501    0 -0.00000000000E+00 -0.00000000000E+00 -0.21058914109E+03  0.21058914109E+03  0.00000000000E+00 0. -1.
         25    2    1    2    0    0  0.10729689529E+03 -0.43463982737E+02  0.33809138746E+03  0.37859237271E+03  0.12499862746E+03 0.  0.
          2    1    1    2  501    0 -0.57214338104E+02 -0.22562405329E+02 -0.18410922143E+03  0.19411014408E+03  0.00000000000E+00 0. -1.
          1    1    1    2  502    0 -0.50082557184E+02  0.66026388066E+02  0.13958292262E+04  0.13982871577E+04  0.00000000000E+00 0. -1.
         22    1    3    3    0    0  0.99979025103E+02 -0.18561150672E+02  0.11303233960E+03  0.15204154554E+03  0.00000000000E+00 0. -1.
         22    1    3    3    0    0  0.73178701848E+01 -0.24902832066E+02  0.22505904786E+03  0.22655082717E+03  0.00000000000E+00 0. -1.
</event>
<event>
 7    1  0.6152634E-006  0.7082300E+02  0.7818608E-02  0.1359324E+00
          2   -1    0    0  502    0  0.00000000000E+00  0.00000000000E+00  0.13553569284E+03  0.13553569284E+03  0.00000000000E+00 0. -1.
          1   -1    0    0  501    0 -0.00000000000E+00 -0.00000000000E+00 -0.49803705431E+03  0.49803705431E+03  0.00000000000E+00 0. -1.
         25    2    1    2    0    0 -0.15611541720E+02  0.16291996142E+02 -0.36102063400E+03  0.38271404728E+03  0.12499997777E+03 0.  0.
          2    1    1    2  501    0  0.56825002154E+02  0.42270748036E+02 -0.10398813266E+03  0.12581505770E+03  0.00000000000E+00 0. -1.
          1    1    1    2  502    0 -0.41213460434E+02 -0.58562744178E+02  0.10250740520E+03  0.12504364217E+03  0.00000000000E+00 0. -1.
         22    1    3    3    0    0  0.53448021002E+02 -0.16847364897E+00 -0.11809335642E+03  0.12962546109E+03  0.00000000000E+00 0.  1.
         22    1    3    3    0    0 -0.69059562722E+02  0.16460469791E+02 -0.24292727758E+03  0.25308858619E+03  0.00000000000E+00 0.  1.
</event>
<event>
 7    1  0.6152634E-006  0.1499052E+03  0.7818608E-02  0.1322126E+00
          2   -1    0    0  502    0  0.00000000000E+00  0.00000000000E+00  0.55610870969E+03  0.55610870969E+03  0.00000000000E+00 0. -1.
          1   -1    0    0  501    0 -0.00000000000E+00 -0.00000000000E+00 -0.29398765470E+03  0.29398765470E+03  0.00000000000E+00 0. -1.
         25    2    1    2    0    0 -0.10868725727E+03  0.65996711701E+01 -0.57790454520E+02  0.17556472731E+03  0.12500704496E+03 0.  0.
          2    1    1    2  501    0 -0.45366538731E+02 -0.15911769919E+01 -0.16217277357E+03  0.16840624445E+03  0.00000000000E+00 0. -1.
          1    1    1    2  502    0  0.15405379600E+03 -0.50084941782E+01  0.48208428308E+03  0.50612539264E+03  0.00000000000E+00 0. -1.
         22    1    3    3    0    0  0.21218246823E+02  0.39576068137E+01 -0.38597230979E+02  0.44222425184E+02  0.00000000000E+00 0. -1.
         22    1    3    3    0    0 -0.12990550410E+03  0.26420643564E+01 -0.19193223542E+02  0.13134230213E+03  0.00000000000E+00 0. -1.
</event>
<event>
 7    1  0.6152634E-006  0.1367143E+03  0.7818608E-02  0.1305528E+00
          2   -1    0    0  502    0  0.00000000000E+00  0.00000000000E+00  0.15373220049E+04  0.15373220049E+04  0.00000000000E+00 0. -1.
          1   -1    0    0  501    0 -0.00000000000E+00 -0.00000000000E+00 -0.66262659423E+02  0.66262659423E+02  0.00000000000E+00 0. -1.
         25    2    1    2    0    0  0.86405633385E+02  0.42090233333E+02  0.96722515898E+02  0.18497977470E+03  0.12499900297E+03 0.  0.
          2    1    1    2  501    0  0.14045617880E+02  0.56080931660E+02  0.26721609086E+02  0.63689831760E+02  0.00000000000E+00 0. -1.
          1    1    1    2  502    0 -0.10045125127E+03 -0.98171164993E+02  0.13476152205E+04  0.13549150578E+04  0.00000000000E+00 0. -1.
         22    1    3    3    0    0 -0.43000365370E+01 -0.16817979395E+02 -0.19574748924E+02  0.26163056790E+02  0.00000000000E+00 0.  1.
         22    1    3    3    0    0  0.90705669922E+02  0.58908212728E+02  0.11629726482E+03  0.15881671791E+03  0.00000000000E+00 0.  1.
</event>
<event>
 7    1  0.6152634E-006  0.7795930E+02  0.7818608E-02  0.1433874E+00
          2   -1    0    0  502    0  0.00000000000E+00  0.00000000000E+00  0.34943258668E+03  0.34943258668E+03  0.00000000000E+00 0. -1.
          1   -1    0    0  501    0 -0.00000000000E+00 -0.00000000000E+00 -0.95977320683E+03  0.95977320683E+03  0.00000000000E+00 0. -1.
         25    2    1    2    0    0  0.97163960576E+01  0.96931508407E+02 -0.16535130870E+03  0.22903334539E+03  0.12500036935E+03 0.  0.
          2    1    1    2  501    0 -0.27612705966E+02 -0.21407281321E+02 -0.75743006732E+03  0.75823547801E+03  0.00000000000E+00 0. -1.
          1    1    1    2  502    0  0.17896309908E+02 -0.75524227087E+02  0.31244075588E+03  0.32193697011E+03  0.00000000000E+00 0. -1.
         22    1    3    3    0    0 -0.91870556816E+01  0.76867414442E+02 -0.18133485745E+03  0.19716828326E+03  0.00000000000E+00 0.  1.
         22    1    3    3    0    0  0.18903451739E+02  0.20064093966E+02  0.15983548751E+02  0.31865062137E+02  0.00000000000E+00 0.  1.
</event>
<event>
 7    1  0.6152634E-006  0.8204996E+02  0.7818608E-02  0.1369879E+00
          2   -1    0    0  502    0  0.00000000000E+00  0.00000000000E+00  0.15665450091E+03  0.15665450091E+03  0.00000000000E+00 0. -1.
          1   -1    0    0  501    0 -0.00000000000E+00 -0.00000000000E+00 -0.27289225876E+03  0.27289225876E+03  0.00000000000E+00 0. -1.
         25    2    1    2    0    0 -0.91779834583E+02 -0.57995769939E+02 -0.18646084839E+03  0.24935992766E+03  0.12500271266E+03 0.  0.
          2    1    1    2  501    0  0.36844846889E+02  0.54615354245E+02 -0.24783675262E+02  0.70388992186E+02  0.00000000000E+00 0. -1.
          1    1    1    2  502    0  0.54934987695E+02  0.33804156938E+01  0.95006765803E+02  0.10979783983E+03  0.00000000000E+00 0. -1.
         22    1    3    3    0    0 -0.18044570809E+02  0.30404292270E+02 -0.68309033151E+01  0.36009564899E+02  0.00000000000E+00 0.  1.
         22    1    3    3    0    0 -0.73735263774E+02 -0.88400062208E+02 -0.17962994507E+03  0.21335036276E+03  0.00000000000E+00 0.  1.
</event>
<event>
 7    1  0.6152634E-006  0.4359378E+02  0.7818608E-02  0.1487775E+00
          2   -1    0    0  502    0  0.00000000000E+00  0.00000000000E+00  0.54646190402E+03  0.54646190402E+03  0.00000000000E+00 0. -1.
          1   -1    0    0  501    0 -0.00000000000E+00 -0.00000000000E+00 -0.15792557912E+03  0.15792557912E+03  0.00000000000E+00 0. -1.
         25    2    1    2    0    0  0.54645724169E+02 -0.35480925776E+00  0.13422075930E+02  0.13708650410E+03  0.12500510560E+03 0.  0.
          2    1    1    2  501    0 -0.28956559607E+02 -0.33191011572E+02 -0.90037530751E+02  0.10023413858E+03  0.00000000000E+00 0. -1.
          1    1    1    2  502    0 -0.25689164562E+02  0.33545820829E+02  0.46515177972E+03  0.46706684045E+03  0.00000000000E+00 0. -1.
         22    1    3    3    0    0  0.11037103657E+01 -0.50771257742E+02 -0.22136477791E+02  0.55398216923E+02  0.00000000000E+00 0.  1.
         22    1    3    3    0    0  0.53542013804E+02  0.50416448484E+02  0.35558553721E+02  0.81688287181E+02  0.00000000000E+00 0.  1.
</event>
<event>
 7    1  0.6152634E-006  0.5291519E+02  0.7818608E-02  0.1494508E+00
          2   -1    0    0  502    0  0.00000000000E+00  0.00000000000E+00  0.17020775787E+04  0.17020775787E+04  0.00000000000E+00 0. -1.
          1   -1    0    0  501    0 -0.00000000000E+00 -0.00000000000E+00 -0.59548365353E+02  0.59548365353E+02  0.00000000000E+00 0. -1.
         25    2    1    2    0    0  0.66895392654E+02  0.20610029683E+02  0.41634144045E+03  0.44030062010E+03  0.12499869657E+03 0.  0.
          2    1    1    2  501    0 -0.15194346070E+02 -0.29537934446E+02 -0.41160324072E+02  0.52891681780E+02  0.00000000000E+00 0. -1.
          1    1    1    2  502    0 -0.51701046585E+02  0.89279047636E+01  0.12673480970E+04  0.12684336422E+04  0.00000000000E+00 0. -1.
         22    1    3    3    0    0 -0.14067790894E+02  0.19983420882E+02  0.28474324533E+03  0.28579005513E+03  0.00000000000E+00 0. -1.
         22    1    3    3    0    0  0.80963183548E+02  0.62660880106E+00  0.13159819512E+03  0.15451056497E+03  0.00000000000E+00 0. -1.
</event>
<event>
 7    1  0.6152634E-006  0.4677833E+02  0.7818608E-02  0.1467258E+00
          2   -1    0    0  502    0  0.00000000000E+00  0.00000000000E+00  0.21678258811E+04  0.21678258811E+04  0.00000000000E+00 0. -1.
          1   -1    0    0  501    0 -0.00000000000E+00 -0.00000000000E+00 -0.91105330830E+02  0.91105330830E+02  0.00000000000E+00 0. -1.
         25    2    1    2    0    0  0.50640037580E+02  0.48695468151E+01  0.13330999450E+03  0.18972386145E+03  0.12504184530E+03 0.  0.
          2    1    1    2  501    0 -0.20347907984E+02 -0.40741137866E+02 -0.54343304571E+02  0.70901850650E+02  0.00000000000E+00 0. -1.
          1    1    1    2  502    0 -0.30292129596E+02  0.35871591051E+02  0.19977538603E+04  0.19983054998E+04  0.00000000000E+00 0. -1.
         22    1    3    3    0    0  0.75496649777E+02  0.43399092331E+02  0.10242716041E+03  0.13444161756E+03  0.00000000000E+00 0.  1.
         22    1    3    3    0    0 -0.24856612197E+02 -0.38529545516E+02  0.30882834088E+02  0.55282243884E+02  0.00000000000E+00 0.  1.
</event>
<event>
 7    1  0.6152634E-006  0.1679731E+03  0.7818608E-02  0.1288777E+00
          2   -1    0    0  502    0  0.00000000000E+00  0.00000000000E+00  0.17392865899E+04  0.17392865899E+04  0.00000000000E+00 0. -1.
          1   -1    0    0  501    0 -0.00000000000E+00 -0.00000000000E+00 -0.14076369327E+04  0.14076369327E+04  0.00000000000E+00 0. -1.
         25    2    1    2    0    0 -0.24206821180E+01  0.21116600827E+03  0.78895450862E+03  0.82623906234E+03  0.12499931489E+03 0.  0.
          2    1    1    2  501    0 -0.27956590288E+02 -0.16537665699E+03 -0.13831138525E+04  0.13932461874E+04  0.00000000000E+00 0. -1.
          1    1    1    2  502    0  0.30377272406E+02 -0.45789351276E+02  0.92580900118E+03  0.92743827290E+03  0.00000000000E+00 0. -1.
         22    1    3    3    0    0 -0.44077152031E+02  0.18386445390E+02  0.13558636167E+03  0.14375158495E+03  0.00000000000E+00 0.  1.
         22    1    3    3    0    0  0.41656469913E+02  0.19277956288E+03  0.65336814694E+03  0.68248747739E+03  0.00000000000E+00 0.  1.
</event>
<event>
 7    1  0.6152634E-006  0.1416998E+03  0.7818608E-02  0.1215574E+00
          2   -1    0    0  502    0  0.00000000000E+00  0.00000000000E+00  0.85216262000E+03  0.85216262000E+03  0.00000000000E+00 0. -1.
          1   -1    0    0  501    0 -0.00000000000E+00 -0.00000000000E+00 -0.27595062959E+04  0.27595062959E+04  0.00000000000E+00 0. -1.
         25    2    1    2    0    0  0.24308543869E+02  0.16409281515E+02 -0.31128309112E+03  0.33672255515E+03  0.12499898602E+03 0.  0.
          2    1    1    2  501    0 -0.16117860256E+02 -0.15787211409E+03 -0.24269137388E+04  0.24320965617E+04  0.00000000000E+00 0. -1.
          1    1    1    2  502    0 -0.81906836128E+01  0.14146283257E+03  0.83085315400E+03  0.84284979908E+03  0.00000000000E+00 0. -1.
         22    1    3    3    0    0 -0.54015616392E+01 -0.52362418130E+02 -0.14773423637E+03  0.15683240831E+03  0.00000000000E+00 0.  1.
         22    1    3    3    0    0  0.29710105508E+02  0.68771699645E+02 -0.16354885475E+03  0.17989014684E+03  0.00000000000E+00 0.  1.
</event>
<event>
 7    1  0.6152634E-006  0.1276681E+03  0.7818608E-02  0.1383089E+00
          2   -1    0    0  502    0  0.00000000000E+00  0.00000000000E+00  0.53412405171E+03  0.53412405171E+03  0.00000000000E+00 0. -1.
          1   -1    0    0  501    0 -0.00000000000E+00 -0.00000000000E+00 -0.12741066928E+03  0.12741066928E+03  0.00000000000E+00 0. -1.
         25    2    1    2    0    0 -0.54351572215E+02  0.86981886826E+02  0.22419214635E+03  0.27641824618E+03  0.12499994518E+03 0.  0.
          2    1    1    2  501    0  0.80815718098E+02 -0.10450896338E+03 -0.56724653183E+02  0.14377409362E+03  0.00000000000E+00 0. -1.
          1    1    1    2  502    0 -0.26464145883E+02  0.17527076549E+02  0.23924588927E+03  0.24134238120E+03  0.00000000000E+00 0. -1.
         22    1    3    3    0    0 -0.65662533510E+02 -0.42617701269E+01  0.64448838931E+02  0.92105286662E+02  0.00000000000E+00 0. -1.
         22    1    3    3    0    0  0.11310961295E+02  0.91243656953E+02  0.15974330742E+03  0.18431295951E+03  0.00000000000E+00 0. -1.
</event>
<event>
 7    1  0.6152634E-006  0.6448216E+02  0.7818608E-02  0.1435317E+00
          2   -1    0    0  502    0  0.00000000000E+00  0.00000000000E+00  0.24860359366E+03  0.24860359366E+03  0.00000000000E+00 0. -1.
          1   -1    0    0  501    0 -0.00000000000E+00 -0.00000000000E+00 -0.18220225177E+04  0.18220225177E+04  0.00000000000E+00 0. -1.
         25    2    1    2    0    0  0.35629370215E+01  0.22809969482E+02  0.52918258499E+02  0.13768448935E+03  0.12499474908E+03 0.  0.
          2    1    1    2  501    0 -0.44536405177E+01 -0.64585464036E+02 -0.17761914079E+04  0.17773708208E+04  0.00000000000E+00 0. -1.
          1    1    1    2  502    0  0.89070349618E+00  0.41775494555E+02  0.14985422542E+03  0.15557080116E+03  0.00000000000E+00 0. -1.
         22    1    3    3    0    0  0.34761636938E+02 -0.68979608998E+01 -0.28562026271E+02  0.45516399373E+02  0.00000000000E+00 0. -1.
         22    1    3    3    0    0 -0.31198699916E+02  0.29707930382E+02  0.81480284771E+02  0.92168089979E+02  0.00000000000E+00 0. -1.
</event>
<event>
 7    1  0.6152634E-006  0.5684758E+02  0.7818608E-02  0.1460145E+00
          2   -1    0    0  502    0  0.00000000000E+00  0.00000000000E+00  0.11282898212E+04  0.11282898212E+04  0.00000000000E+00 0. -1.
          1   -1    0    0  501    0 -0.00000000000E+00 -0.00000000000E+00 -0.22137339444E+03  0.22137339444E+03  0.00000000000E+00 0. -1.
         25    2    1    2    0    0  0.61224665021E+02 -0.49358745132E+02  0.34737157469E+03  0.37745990793E+03  0.12499690341E+03 0.  0.
          2    1    1    2  501    0 -0.55772591906E+02  0.10287292545E+02 -0.20191175676E+03  0.20972545843E+03  0.00000000000E+00 0. -1.
          1    1    1    2  502    0 -0.54520731157E+01  0.39071452587E+02  0.76145660881E+03  0.76247784926E+03  0.00000000000E+00 0. -1.
         22    1    3    3    0    0 -0.14119579640E+02  0.21413999066E+02  0.17190517413E+03  0.17380825866E+03  0.00000000000E+00 0.  1.
         22    1    3    3    0    0  0.75344244662E+02 -0.70772744198E+02  0.17546640056E+03  0.20365164927E+03  0.00000000000E+00 0.  1.
</event>
<event>
 7    1  0.6152634E-006  0.9949857E+02  0.7818608E-02  0.1384266E+00
          2   -1    0    0  502    0  0.00000000000E+00  0.00000000000E+00  0.38819806171E+03  0.38819806171E+03  0.00000000000E+00 0. -1.
          1   -1    0    0  501    0 -0.00000000000E+00 -0.00000000000E+00 -0.10544515636E+04  0.10544515636E+04  0.00000000000E+00 0. -1.
         25    2    1    2    0    0  0.46913692222E+02 -0.85116682799E+02 -0.21286424589E+03  0.26529619309E+03  0.12500055472E+03 0.  0.
          2    1    1    2  501    0  0.32203928900E+02  0.24297083061E+02 -0.80798068890E+03  0.80898716611E+03  0.00000000000E+00 0. -1.
          1    1    1    2  502    0 -0.79117621122E+02  0.60819599738E+02  0.35459143293E+03  0.36836626609E+03  0.00000000000E+00 0. -1.
         22    1    3    3    0    0  0.84281437931E+02 -0.44830705942E+02 -0.17236692991E+03  0.19703682778E+03  0.00000000000E+00 0.  1.
         22    1    3    3    0    0 -0.37367745709E+02 -0.40285976857E+02 -0.40497315977E+02  0.68259365307E+02  0.00000000000E+00 0.  1.
</event>
<event>
 7    1  0.6152634E-006  0.2011692E+03  0.7818608E-02  0.1238306E+00
          2   -1    0    0  502    0  0.00000000000E+00  0.00000000000E+00  0.18094320349E+04  0.18094320349E+04  0.00000000000E+00 0. -1.
          1   -1    0    0  501    0 -0.00000000000E+00 -0.00000000000E+00 -0.78628270072E+03  0.78628270072E+03  0.00000000000E+00 0. -1.
         25    2    1    2    0    0  0.96840558108E+02  0.23282612852E+03  0.10697109007E+03  0.30108841181E+03  0.12500127119E+03 0.  0.
          2    1    1    2  501    0  0.19896723563E+02 -0.72463976052E+02 -0.68102271004E+03  0.68515606910E+03  0.00000000000E+00 0. -1.
          1    1    1    2  502    0 -0.11673728167E+03 -0.16036215247E+03  0.15972009542E+04  0.16094702547E+04  0.00000000000E+00 0. -1.
         22    1    3    3    0    0  0.91352229234E+02  0.10049016826E+03  0.85525909020E+01  0.13607589983E+03  0.00000000000E+00 0. -1.
         22    1    3    3    0    0  0.54883288741E+01  0.13233596027E+03  0.98418499163E+02  0.16501251198E+03  0.00000000000E+00 0. -1.
</event>
<event>
 7    1  0.6152634E-006  0.4471259E+02  0.7818608E-02  0.1532209E+00
          2   -1    0    0  502    0  0.00000000000E+00  0.00000000000E+00  0.78197055312E+02  0.78197055312E+02  0.00000000000E+00 0. -1.
          1   -1    0    0  501    0 -0.00000000000E+00 -0.00000000000E+00 -0.21760955402E+04  0.21760955402E+04  0.00000000000E+00 0. -1.
         25    2    1    2    0    0  0.71574763047E+01  0.32360140920E+02 -0.13608747596E+03  0.18774865623E+03  0.12502539188E+03 0.  0.
          2    1    1    2  501    0  0.30004746777E+02 -0.53625210705E+01 -0.20039664645E+04  0.20041982518E+04  0.00000000000E+00 0. -1.
          1    1    1    2  502    0 -0.37162223082E+02 -0.26997619850E+02  0.42155455658E+02  0.62345687451E+02  0.00000000000E+00 0. -1.
         22    1    3    3    0    0 -0.34035119093E+02  0.43520895547E+02 -0.12013792206E+02  0.56540152847E+02  0.00000000000E+00 0. -1.
         22    1    3    3    0    0  0.41192595397E+02 -0.11160754626E+02 -0.12407368375E+03  0.13120850338E+03  0.00000000000E+00 0. -1.
</event>
<event>
 7    1  0.6152634E-006  0.8549396E+02  0.7818608E-02  0.1345669E+00
          2   -1    0    0  502    0  0.00000000000E+00  0.00000000000E+00  0.20528663361E+04  0.20528663361E+04  0.00000000000E+00 0. -1.
          1   -1    0    0  501    0 -0.00000000000E+00 -0.00000000000E+00 -0.33956861198E+02  0.33956861198E+02  0.00000000000E+00 0. -1.
         25    2    1    2    0    0  0.53234151050E+02  0.12105227872E+03  0.65090717301E+03  0.67586449688E+03  0.12500056499E+03 0.  0.
          2    1    1    2  501    0 -0.24323724362E+01 -0.80850221135E+02  0.58426436174E+02  0.99781376706E+02  0.00000000000E+00 0. -1.
          1    1    1    2  502    0 -0.50801778613E+02 -0.40202057582E+02  0.13095758657E+04  0.13111773237E+04  0.00000000000E+00 0. -1.
         22    1    3    3    0    0  0.77760285427E+01  0.10494030519E+03  0.23895185797E+03  0.26109562367E+03  0.00000000000E+00 0. -1.
         22    1    3    3    0    0  0.45458122507E+02  0.16111973526E+02  0.41195531504E+03  0.41476887320E+03  0.00000000000E+00 0. -1.
</event>
<event>
 7    1  0.6152634E-006  0.5736674E+02  0.7818608E-02  0.1470200E+00
          2   -1    0    0  502    0  0.00000000000E+00  0.00000000000E+00  0.67217938568E+03  0.67217938568E+03  0.00000000000E+00 0. -1.
          1   -1    0    0  501    0 -0.00000000000E+00 -0.00000000000E+00 -0.53638453455E+03  0.53638453455E+03  0.00000000000E+00 0. -1.
         25    2    1    2    0    0  0.24572353144E+02 -0.67689358834E+01  0.12729884922E+03  0.18022313541E+03  0.12500304993E+03 0.  0.
          2    1    1    2  501    0 -0.56872547417E+02 -0.99237180388E+01 -0.50764677485E+03  0.51091899049E+03  0.00000000000E+00 0. -1.
          1    1    1    2  502    0  0.32300194273E+02  0.16692653922E+02  0.51614277676E+03  0.51742179433E+03  0.00000000000E+00 0. -1.
         22    1    3    3    0    0 -0.20318136592E+02 -0.34852768486E+02  0.12021033063E+03  0.12679931284E+03  0.00000000000E+00 0.  1.
         22    1    3    3    0    0  0.44890489736E+02  0.28083832602E+02  0.70885185885E+01  0.53423822572E+02  0.00000000000E+00 0.  1.
</event>
<event>
 7    1  0.6152634E-006  0.6444624E+02  0.7818608E-02  0.1453411E+00
          2   -1    0    0  502    0  0.00000000000E+00  0.00000000000E+00  0.31685390490E+03  0.31685390490E+03  0.00000000000E+00 0. -1.
          1   -1    0    0  501    0 -0.00000000000E+00 -0.00000000000E+00 -0.11700116297E+04  0.11700116297E+04  0.00000000000E+00 0. -1.
         25    2    1    2    0    0 -0.46445378876E+02  0.69574497728E+02  0.44161638136E+02  0.15675593174E+03  0.12499755157E+03 0.  0.
          2    1    1    2  501    0 -0.72338723631E+01 -0.35828266832E+02 -0.11087622622E+04  0.11093645694E+04  0.00000000000E+00 0. -1.
          1    1    1    2  502    0  0.53679251239E+02 -0.33746230896E+02  0.21144289934E+03  0.22074503345E+03  0.00000000000E+00 0. -1.
         22    1    3    3    0    0 -0.81452000424E+02  0.54652844596E+02  0.60605069780E+02  0.11530106799E+03  0.00000000000E+00 0. -1.
         22    1    3    3    0    0  0.35006621549E+02  0.14921653132E+02 -0.16443431645E+02  0.41454863752E+02  0.00000000000E+00 0. -1.
</event>
<event>
 7    1  0.6152634E-006  0.7096050E+02  0.7818608E-02  0.1429804E+00
          2   -1    0    0  502    0  0.00000000000E+00  0.00000000000E+00  0.17561630521E+03  0.17561630521E+03  0.00000000000E+00 0. -1.
          1   -1    0    0  501    0 -0.00000000000E+00 -0.00000000000E+00 -0.36365942092E+03  0.36365942092E+03  0.00000000000E+00 0. -1.
         25    2    1    2    0    0 -0.69109076971E+02  0.82319193741E+02 -0.48423370144E+02  0.17179895451E+03  0.12497017171E+03 0.  0.
          2    1    1    2  501    0  0.46846748724E+02 -0.49588234193E+02 -0.24530911604E+03  0.25461770019E+03  0.00000000000E+00 0. -1.
          1    1    1    2  502    0  0.22262328247E+02 -0.32730959549E+02  0.10568937047E+03  0.11285907143E+03  0.00000000000E+00 0. -1.
         22    1    3    3    0    0 -0.77721444988E+02  0.29423342895E+01 -0.49053168483E+02  0.91953758381E+02  0.00000000000E+00 0. -1.
         22    1    3    3    0    0  0.86123680169E+01  0.79376859452E+02  0.62979833895E+00  0.79845196131E+02  0.00000000000E+00 0. -1.
</event>
<event>
 7    1  0.6152634E-006  0.5386708E+02  0.7818608E-02  0.1450386E+00
          2   -1    0    0  502    0  0.00000000000E+00  0.00000000000E+00  0.91513670908E+03  0.91513670908E+03  0.00000000000E+00 0. -1.
          1   -1    0    0  501    0 -0.00000000000E+00 -0.00000000000E+00 -0.52240132301E+02  0.52240132301E+02  0.00000000000E+00 0. -1.
         25    2    1    2    0    0  0.48606727345E+02  0.37499001478E+02  0.20370390950E+03  0.24675736838E+03  0.12500050821E+03 0.  0.
          2    1    1    2  501    0 -0.54393547213E+02  0.68373427285E+01 -0.48844979235E+01  0.55038764103E+02  0.00000000000E+00 0. -1.
          1    1    1    2  502    0  0.57868198681E+01 -0.44336344206E+02  0.66407716520E+03  0.66558070889E+03  0.00000000000E+00 0. -1.
         22    1    3    3    0    0  0.71453351168E+01  0.24111543221E+02 -0.11165431547E+02  0.27515253807E+02  0.00000000000E+00 0. -1.
         22    1    3    3    0    0  0.41461392228E+02  0.13387458257E+02  0.21486934104E+03  0.21924211458E+03  0.00000000000E+00 0. -1.
</event>
<event>
 7    1  0.6152634E-006  0.1064655E+03  0.7818608E-02  0.1312652E+00
          2   -1    0    0  502    0  0.00000000000E+00  0.00000000000E+00  0.85558921385E+03  0.85558921385E+03  0.00000000000E+00 0. -1.
          1   -1    0    0  501    0 -0.00000000000E+00 -0.00000000000E+00 -0.79773204079E+03  0.79773204079E+03  0.00000000000E+00 0. -1.
         25    2    1    2    0    0  0.17570153308E+02  0.17366563732E+03  0.47926170632E+03  0.52515362475E+03  0.12500433019E+03 0.  0.
          2    1    1    2  501    0 -0.14787067600E+01 -0.10596634808E+03 -0.76768467809E+03  0.77496504339E+03  0.00000000000E+00 0. -1.
          1    1    1    2  502    0 -0.16091446548E+02 -0.67699289235E+02  0.34628014483E+03  0.35320258651E+03  0.00000000000E+00 0. -1.
         22    1    3    3    0    0 -0.24934902848E+01 -0.98665310517E+01  0.12730973322E+03  0.12771583340E+03  0.00000000000E+00 0. -1.
         22    1    3    3    0    0  0.20063643593E+02  0.18353216837E+03  0.35195197311E+03  0.39743779135E+03  0.00000000000E+00 0. -1.
</event>
<event>
 7    1  0.6152634E-006  0.5443454E+02  0.7818608E-02  0.1551136E+00
          2   -1    0    0  502    0  0.00000000000E+00  0.00000000000E+00  0.66515150169E+03  0.66515150169E+03  0.00000000000E+00 0. -1.
          1   -1    0    0  501    0 -0.00000000000E+00 -0.00000000000E+00 -0.20671830006E+03  0.20671830006E+03  0.00000000000E+00 0. -1.
         25    2    1    2    0    0  0.51013027120E+02  0.16470111861E+02 -0.63731870193E+02  0.15020232349E+03  0.12500157272E+03 0.  0.
          2    1    1    2  501    0 -0.10207592167E+02  0.19647160899E+02 -0.97311623965E+02  0.99798587304E+02  0.00000000000E+00 0. -1.
          1    1    1    2  502    0 -0.40805434954E+02 -0.36117272761E+02  0.61947669579E+03  0.62186889096E+03  0.00000000000E+00 0. -1.
         22    1    3    3    0    0 -0.10707530655E+02 -0.32515374495E+02  0.16277424653E+02  0.37905874803E+02  0.00000000000E+00 0. -1.
         22    1    3    3    0    0  0.61720557775E+02  0.48985486356E+02 -0.80009294846E+02  0.11229644869E+03  0.00000000000E+00 0. -1.
</event>
<event>
 7    1  0.6152634E-006  0.1054744E+03  0.7818608E-02  0.1329790E+00
          2   -1    0    0  502    0  0.00000000000E+00  0.00000000000E+00  0.77755660510E+03  0.77755660510E+03  0.00000000000E+00 0. -1.
          1   -1    0    0  501    0 -0.00000000000E+00 -0.00000000000E+00 -0.17595885224E+04  0.17595885224E+04  0.00000000000E+00 0. -1.
         25    2    1    2    0    0 -0.16372100485E+03 -0.21551404852E+02  0.15242270983E+03  0.25715097239E+03  0.12499963860E+03 0.  0.
          2    1    1    2  501    0  0.10359865959E+03  0.17123503063E+02 -0.17040175185E+04  0.17072497182E+04  0.00000000000E+00 0. -1.
          1    1    1    2  502    0  0.60122345255E+02  0.44279017886E+01  0.56956289145E+03  0.57274443692E+03  0.00000000000E+00 0. -1.
         22    1    3    3    0    0 -0.96787802834E+02 -0.61157597137E+02  0.41711046145E+02  0.12185213103E+03  0.00000000000E+00 0.  1.
         22    1    3    3    0    0 -0.66933202016E+02  0.39606192285E+02  0.11071166368E+03  0.13529884136E+03  0.00000000000E+00 0.  1.
</event>
<event>
 7    1  0.6152634E-006  0.6092336E+02  0.7818608E-02  0.1487954E+00
          2   -1    0    0  502    0  0.00000000000E+00  0.00000000000E+00  0.15443122709E+04  0.15443122709E+04  0.00000000000E+00 0. -1.
          1   -1    0    0  501    0 -0.00000000000E+00 -0.00000000000E+00 -0.81784958529E+02  0.81784958529E+02  0.00000000000E+00 0. -1.
         25    2    1    2    0    0 -0.31402936478E+02 -0.22322826523E+02  0.89990127039E+03  0.90935801516E+03  0.12500100114E+03 0.  0.
          2    1    1    2  501    0  0.59971646468E+02  0.12544101987E+02 -0.64456388629E+02  0.88930191217E+02  0.00000000000E+00 0. -1.
          1    1    1    2  502    0 -0.28568709990E+02  0.97787245364E+01  0.62708243066E+03  0.62780902310E+03  0.00000000000E+00 0. -1.
         22    1    3    3    0    0 -0.40540468744E+02  0.36039752163E+02  0.66251519589E+03  0.66473211005E+03  0.00000000000E+00 0.  1.
         22    1    3    3    0    0  0.91375322658E+01 -0.58362578686E+02  0.23738607450E+03  0.24462590511E+03  0.00000000000E+00 0.  1.
</event>
<event>
 7    1  0.6152634E-006  0.9951435E+02  0.7818608E-02  0.1410731E+00
          2   -1    0    0  502    0  0.00000000000E+00  0.00000000000E+00  0.94897859857E+03  0.94897859857E+03  0.00000000000E+00 0. -1.
          1   -1    0    0  501    0 -0.00000000000E+00 -0.00000000000E+00 -0.10612737449E+04  0.10612737449E+04  0.00000000000E+00 0. -1.
         25    2    1    2    0    0 -0.10509386556E+02 -0.96379715209E+02 -0.60891284309E+03  0.62912563421E+03  0.12499886574E+03 0.  0.
          2    1    1    2  501    0  0.32677279219E+02 -0.66860360248E+00 -0.43900655491E+03  0.44022154293E+03  0.00000000000E+00 0. -1.
          1    1    1    2  502    0 -0.22167892663E+02  0.97048318811E+02  0.93562425168E+03  0.94090516631E+03  0.00000000000E+00 0. -1.
         22    1    3    3    0    0  0.28477624756E+02  0.10551223346E+02 -0.48139128657E+02  0.56918179290E+02  0.00000000000E+00 0.  1.
         22    1    3    3    0    0 -0.38987011313E+02 -0.10693093855E+03 -0.56077371443E+03  0.57220745492E+03  0.00000000000E+00 0.  1.
</event>
<event>
 7    1  0.6152634E-006  0.9167745E+02  0.7818608E-02  0.1331836E+00
          2   -1    0    0  502    0  0.00000000000E+00  0.00000000000E+00  0.34596833810E+04  0.34596833810E+04  0.00000000000E+00 0. -1.
          1   -1    0    0  501    0 -0.00000000000E+00 -0.00000000000E+00 -0.21690657550E+04  0.21690657550E+04  0.00000000000E+00 0. -1.
         25    2    1    2    0    0 -0.14495637019E+02  0.11282274695E+03 -0.39768941424E+03  0.43211186520E+03  0.12499879252E+03 0.  0.
          2    1    1    2  501    0  0.59593540940E+02 -0.33003695520E+02 -0.17528930114E+04  0.17542162191E+04  0.00000000000E+00 0. -1.
          1    1    1    2  502    0 -0.45097903921E+02 -0.79819051426E+02  0.34412000516E+04  0.34424210517E+04  0.00000000000E+00 0. -1.
         22    1    3    3    0    0 -0.33959217432E+02  0.99140763485E+02 -0.39441093132E+03  0.40809570222E+03  0.00000000000E+00 0.  1.
         22    1    3    3    0    0  0.19463580413E+02  0.13681983462E+02 -0.32784829228E+01  0.24016162979E+02  0.00000000000E+00 0.  1.
</event>
<event>
 7    1  0.6152634E-006  0.8765713E+02  0.7818608E-02  0.1373806E+00
          2   -1    0    0  502    0  0.00000000000E+00  0.00000000000E+00  0.10686451953E+04  0.10686451953E+04  0.00000000000E+00 0. -1.
          1   -1    0    0  501    0 -0.00000000000E+00 -0.00000000000E+00 -0.77283668163E+03  0.77283668163E+03  0.00000000000E+00 0. -1.
         25    2    1    2    0    0 -0.48608274392E+02 -0.71726246198E+02  0.23383657284E+02  0.15388133370E+03  0.12500100280E+03 0.  0.
          2    1    1    2  501    0  0.81273998419E+02  0.34036959270E+02 -0.70420591091E+03  0.70969707790E+03  0.00000000000E+00 0. -1.
          1    1    1    2  502    0 -0.32665724027E+02  0.37689286928E+02  0.97663076729E+03  0.97790346533E+03  0.00000000000E+00 0. -1.
         22    1    3    3    0    0 -0.76838743253E+02 -0.94579418538E+01  0.34246291020E+02  0.84654908762E+02  0.00000000000E+00 0.  1.
         22    1    3    3    0    0  0.28230468861E+02 -0.62268304344E+02 -0.10862633736E+02  0.69226424938E+02  0.00000000000E+00 0.  1.
</event>
<event>
 7    1  0.6152634E-006  0.1621140E+03  0.7818608E-02  0.1251618E+00
          2   -1    0    0  502    0  0.00000000000E+00  0.00000000000E+00  0.27067343075E+03  0.27067343075E+03  0.00000000000E+00 0. -1.
          1   -1    0    0  501    0 -0.00000000000E+00 -0.00000000000E+00 -0.21330513671E+04  0.21330513671E+04  0.00000000000E+00 0. -1.
         25    2    1    2    0    0 -0.60839189622E+02  0.17762867336E+03 -0.36933551547E+03  0.43276620231E+03  0.12499804110E+03 0.  0.
          2    1    1    2  501    0 -0.52428503341E+02 -0.62461043012E+02 -0.17036144211E+04  0.17055650752E+04  0.00000000000E+00 0. -1.
          1    1    1    2  502    0  0.11326769296E+03 -0.11516763034E+03  0.21057200026E+03  0.26539352034E+03  0.00000000000E+00 0. -1.
         22    1    3    3    0    0 -0.55758991497E+02  0.11349254446E+03 -0.11671380546E+03  0.17208060659E+03  0.00000000000E+00 0.  1.
         22    1    3    3    0    0 -0.50801981250E+01  0.64136128896E+02 -0.25262171002E+03  0.26068559572E+03  0.00000000000E+00 0.  1.
</event>
<event>
 7    1  0.6152634E-006  0.1609725E+03  0.7818608E-02  0.1332676E+00
          2   -1    0    0  502    0  0.00000000000E+00  0.00000000000E+00  0.56092028415E+03  0.56092028415E+03  0.00000000000E+00 0. -1.
          1   -1    0    0  501    0 -0.00000000000E+00 -0.00000000000E+00 -0.17327330633E+04  0.17327330633E+04  0.00000000000E+00 0. -1.
         25    2    1    2    0    0  0.11865193667E+03  0.12977333130E+03 -0.27875457126E+03  0.35249006749E+03  0.12500294831E+03 0.  0.
          2    1    1    2  501    0 -0.12974497943E+03 -0.92893274082E+02 -0.14119027517E+04  0.14208913753E+04  0.00000000000E+00 0. -1.
          1    1    1    2  502    0  0.11093042755E+02 -0.36880057222E+02  0.51884454379E+03  0.52027190471E+03  0.00000000000E+00 0. -1.
         22    1    3    3    0    0  0.11007306830E+02  0.10454337634E+03 -0.13170364643E+03  0.16851210290E+03  0.00000000000E+00 0. -1.
         22    1    3    3    0    0  0.10764462984E+03  0.25229954961E+02 -0.14705092483E+03  0.18397796459E+03  0.00000000000E+00 0. -1.
</event>
<event>
 7    1  0.6152634E-006  0.1374328E+03  0.7818608E-02  0.1343046E+00
          2   -1    0    0  502    0  0.00000000000E+00  0.00000000000E+00  0.32083967243E+03  0.32083967243E+03  0.00000000000E+00 0. -1.
          1   -1    0    0  501    0 -0.00000000000E+00 -0.00000000000E+00 -0.27280470508E+04  0.27280470508E+04  0.00000000000E+00 0. -1.
         25    2    1    2    0    0 -0.52647080318E+02 -0.86705554578E+02 -0.19147169050E+03  0.25015550406E+03  0.12500719855E+03 0.  0.
          2    1    1    2  501    0 -0.33614379951E+02 -0.23858950788E+02 -0.24901870508E+04  0.24905282018E+04  0.00000000000E+00 0. -1.
          1    1    1    2  502    0  0.86261460268E+02  0.11056450537E+03  0.27445136286E+03  0.30820301743E+03  0.00000000000E+00 0. -1.
         22    1    3    3    0    0 -0.57727224643E+02 -0.22054288022E+01 -0.13908264496E+03  0.15060304947E+03  0.00000000000E+00 0.  1.
         22    1    3    3    0    0  0.50801443253E+01 -0.84500125776E+02 -0.52389045534E+02  0.99552454588E+02  0.00000000000E+00 0.  1.
</event>
<event>
 7    1  0.6152634E-006  0.5951435E+02  0.7818608E-02  0.1497147E+00
          2   -1    0    0  502    0  0.00000000000E+00  0.00000000000E+00  0.10561280246E+04  0.10561280246E+04  0.00000000000E+00 0. -1.
          1   -1    0    0  501    0 -0.00000000000E+00 -0.00000000000E+00 -0.42510924708E+03  0.42510924708E+03  0.00000000000E+00 0. -1.
         25    2    1    2    0    0  0.46259026918E+02 -0.74393014832E+02  0.91506286631E+01  0.15292025171E+03  0.12500660443E+03 0.  0.
          2    1    1    2  501    0 -0.29594003354E+02  0.50659681577E+02 -0.35057050864E+03  0.35544604358E+03  0.00000000000E+00 0. -1.
          1    1    1    2  502    0 -0.16665023565E+02  0.23733333255E+02  0.97243865748E+03  0.97287097638E+03  0.00000000000E+00 0. -1.
         22    1    3    3    0    0 -0.32035264132E+01 -0.93056737694E+02 -0.15831496089E+02  0.94448161868E+02  0.00000000000E+00 0.  1.
         22    1    3    3    0    0  0.49462553331E+02  0.18663722862E+02  0.24982124752E+02  0.58472089840E+02  0.00000000000E+00 0.  1.
</event>
<event>
 7    1  0.6152634E-006  0.1111770E+03  0.7818608E-02  0.1405397E+00
          2   -1    0    0  502    0  0.00000000000E+00  0.00000000000E+00  0.20838791725E+04  0.20838791725E+04  0.00000000000E+00 0. -1.
          1   -1    0    0  501    0 -0.00000000000E+00 -0.00000000000E+00 -0.12638128862E+04  0.12638128862E+04  0.00000000000E+00 0. -1.
         25    2    1    2    0    0  0.14273697949E+02  0.80932318024E+02  0.23004223414E+01  0.14959636771E+03  0.12498000934E+03 0.  0.
          2    1    1    2  501    0  0.13478365223E+02  0.27363016318E+02 -0.11884129841E+04  0.11888043665E+04  0.00000000000E+00 0. -1.
          1    1    1    2  502    0 -0.27752063172E+02 -0.10829533434E+03  0.20061788480E+04  0.20092913245E+04  0.00000000000E+00 0. -1.
         22    1    3    3    0    0  0.12286753861E+02  0.84002884723E+02  0.52135607187E+02  0.99627157437E+02  0.00000000000E+00 0.  1.
         22    1    3    3    0    0  0.19869440884E+01 -0.30705666990E+01 -0.49835184845E+02  0.49969210272E+02  0.00000000000E+00 0.  1.
</event>
<event>
 7    1  0.6152634E-006  0.4855664E+03  0.7818608E-02  0.1181686E+00
          2   -1    0    0  502    0  0.00000000000E+00  0.00000000000E+00  0.12772764872E+04  0.12772764872E+04  0.00000000000E+00 0. -1.
          1   -1    0    0  501    0 -0.00000000000E+00 -0.00000000000E+00 -0.23042601439E+04  0.23042601439E+04  0.00000000000E+00 0. -1.
         25    2    1    2    0    0  0.48355759155E+03  0.89602667947E+02 -0.36531715937E+02  0.50873797711E+03  0.12499272233E+03 0.  0.
          2    1    1    2  501    0 -0.46360943318E+03 -0.14300269195E+03 -0.20018463442E+04  0.20597990830E+04  0.00000000000E+00 0. -1.
          1    1    1    2  502    0 -0.19948158375E+02  0.53400024003E+02  0.10113944035E+04  0.10129995711E+04  0.00000000000E+00 0. -1.
         22    1    3    3    0    0  0.36468539280E+03  0.37061019020E+02  0.19779485017E+02  0.36709696659E+03  0.00000000000E+00 0. -1.
         22    1    3    3    0    0  0.11887219875E+03  0.52541648927E+02 -0.56311200955E+02  0.14164101052E+03  0.00000000000E+00 0. -1.
</event>
<event>
 7    1  0.6152634E-006  0.6793083E+02  0.7818608E-02  0.1493622E+00
          2   -1    0    0  502    0  0.00000000000E+00  0.00000000000E+00  0.16824541734E+04  0.16824541734E+04  0.00000000000E+00 0. -1.
          1   -1    0    0  501    0 -0.00000000000E+00 -0.00000000000E+00 -0.16176993566E+03  0.16176993566E+03  0.00000000000E+00 0. -1.
         25    2    1    2    0    0 -0.44365228105E+02  0.12591160789E+02  0.17016569756E+03  0.21612149855E+03  0.12500130686E+03 0.  0.
          2    1    1    2  501    0 -0.24284792393E+02 -0.93808749538E+01 -0.13677071797E+03  0.13922636694E+03  0.00000000000E+00 0. -1.
          1    1    1    2  502    0  0.68650020498E+02 -0.32102858352E+01  0.14872892581E+04  0.14888762435E+04  0.00000000000E+00 0. -1.
         22    1    3    3    0    0  0.71672876798E+00  0.63701368322E+01  0.17049070499E+03  0.17061117440E+03  0.00000000000E+00 0.  1.
         22    1    3    3    0    0 -0.45081956873E+02  0.62210239569E+01 -0.32500743030E+00  0.45510324152E+02  0.00000000000E+00 0.  1.
</event>
<event>
 7    1  0.6152634E-006  0.1276618E+03  0.7818608E-02  0.1280298E+00
          2   -1    0    0  502    0  0.00000000000E+00  0.00000000000E+00  0.17131692642E+03  0.17131692642E+03  0.00000000000E+00 0. -1.
          1   -1    0    0  501    0 -0.00000000000E+00 -0.00000000000E+00 -0.12110266245E+04  0.12110266245E+04  0.00000000000E+00 0. -1.
         25    2    1    2    0    0 -0.18375068018E+03  0.29759873047E+02 -0.11261261899E+03  0.25091071339E+03  0.12499848651E+03 0.  0.
          2    1    1    2  501    0  0.76287295108E+02  0.17774848669E+02 -0.99341825441E+03  0.99650164317E+03  0.00000000000E+00 0. -1.
          1    1    1    2  502    0  0.10746338507E+03 -0.47534721716E+02  0.66321175362E+02  0.13493119432E+03  0.00000000000E+00 0. -1.
         22    1    3    3    0    0 -0.17370149764E+02 -0.30917027960E+02 -0.53539733971E+02  0.64219061301E+02  0.00000000000E+00 0.  1.
         22    1    3    3    0    0 -0.16638053042E+03  0.60676901007E+02 -0.59072885016E+02  0.18669165209E+03  0.00000000000E+00 0.  1.
</event>
<event>
 7    1  0.6152634E-006  0.7488183E+02  0.7818608E-02  0.1392101E+00
          2   -1    0    0  502    0  0.00000000000E+00  0.00000000000E+00  0.57661262663E+03  0.57661262663E+03  0.00000000000E+00 0. -1.
          1   -1    0    0  501    0 -0.00000000000E+00 -0.00000000000E+00 -0.36914271647E+03  0.36914271647E+03  0.00000000000E+00 0. -1.
         25    2    1    2    0    0  0.36371099487E+01 -0.39373173092E+02  0.82008248411E+02  0.15464212255E+03  0.12500143172E+03 0.  0.
          2    1    1    2  501    0  0.39310948193E+02  0.65603024175E+02 -0.32701881349E+03  0.33584283796E+03  0.00000000000E+00 0. -1.
          1    1    1    2  502    0 -0.42948058141E+02 -0.26229851083E+02  0.45248047524E+03  0.45527038259E+03  0.00000000000E+00 0. -1.
         22    1    3    3    0    0  0.63972825991E+02 -0.13229078541E+02  0.39409259744E+02  0.76292992718E+02  0.00000000000E+00 0.  1.
         22    1    3    3    0    0 -0.60335716043E+02 -0.26144094551E+02  0.42598988666E+02  0.78349129833E+02  0.00000000000E+00 0.  1.
</event>
<event>
 7    1  0.6152634E-006  0.1294748E+03  0.7818608E-02  0.1379522E+00
          2   -1    0    0  502    0  0.00000000000E+00  0.00000000000E+00  0.23790544513E+04  0.23790544513E+04  0.00000000000E+00 0. -1.
          1   -1    0    0  501    0 -0.00000000000E+00 -0.00000000000E+00 -0.25599582173E+04  0.25599582173E+04  0.00000000000E+00 0. -1.
         25    2    1    2    0    0  0.14822555517E+03  0.56779559678E+02 -0.32661116118E+03  0.38404850838E+03  0.12499469022E+03 0.  0.
          2    1    1    2  501    0 -0.12163991015E+03 -0.38575201369E+02 -0.22026711673E+04  0.22063645630E+04  0.00000000000E+00 0. -1.
          1    1    1    2  502    0 -0.26585645022E+02 -0.18204358309E+02  0.23483785625E+04  0.23485995972E+04  0.00000000000E+00 0. -1.
         22    1    3    3    0    0  0.14401347970E+03  0.27407823557E+01 -0.26773051772E+03  0.30401813160E+03  0.00000000000E+00 0.  1.
         22    1    3    3    0    0  0.42120754754E+01  0.54038777322E+02 -0.58880643461E+02  0.80030376787E+02  0.00000000000E+00 0.  1.
</event>
<event>
 7    1  0.6152634E-006  0.8333326E+02  0.7818608E-02  0.1407699E+00
          2   -1    0    0  502    0  0.00000000000E+00  0.00000000000E+00  0.17642483040E+04  0.17642483040E+04  0.00000000000E+00 0. -1.
          1   -1    0    0  501    0 -0.00000000000E+00 -0.00000000000E+00 -0.57014875379E+03  0.57014875379E+03  0.00000000000E+00 0. -1.
         25    2    1    2    0    0  0.69181318628E+02 -0.81450626295E+02  0.52742115366E+03  0.55246586987E+03  0.12500081868E+03 0.  0.
          2    1    1    2  501    0 -0.72097075705E+02  0.41591146256E+02 -0.55419164483E+03  0.56040716535E+03  0.00000000000E+00 0. -1.
          1    1    1    2  502    0  0.29157570769E+01  0.39859480039E+02  0.12208700413E+04  0.12215240225E+04  0.00000000000E+00 0. -1.
         22    1    3    3    0    0 -0.30576071213E+02 -0.30532074136E+02  0.24253727785E+03  0.24635631681E+03  0.00000000000E+00 0.  1.
         22    1    3    3    0    0  0.99757389841E+02 -0.50918552159E+02  0.28488387581E+03  0.30610955306E+03  0.00000000000E+00 0.  1.
</event>
<event>
 7    1  0.6152634E-006  0.4000775E+02  0.7818608E-02  0.1565625E+00
          2   -1    0    0  502    0  0.00000000000E+00  0.00000000000E+00  0.14918785550E+03  0.14918785550E+03  0.00000000000E+00 0. -1.
          1   -1    0    0  501    0 -0.00000000000E+00 -0.00000000000E+00 -0.45505414441E+03  0.45505414441E+03  0.00000000000E+00 0. -1.
         25    2    1    2    0    0 -0.94389241118E+01 -0.54040778949E+02 -0.25322172553E+03  0.28767015050E+03  0.12499349636E+03 0.  0.
          2    1    1    2  501    0  0.22180904790E+02  0.16214710711E+02 -0.18052660448E+03  0.18260548816E+03  0.00000000000E+00 0. -1.
          1    1    1    2  502    0 -0.12741980678E+02  0.37826068238E+02  0.12788204110E+03  0.13396636124E+03  0.00000000000E+00 0. -1.
         22    1    3    3    0    0 -0.55658483881E+02 -0.58331787447E+02 -0.20707154507E+03  0.22221406129E+03  0.00000000000E+00 0.  1.
         22    1    3    3    0    0  0.46219559769E+02  0.42910084977E+01 -0.46150180454E+02  0.65456089214E+02  0.00000000000E+00 0.  1.
</event>
<event>
 7    1  0.6152634E-006  0.6180951E+02  0.7818608E-02  0.1451252E+00
          2   -1    0    0  502    0  0.00000000000E+00  0.00000000000E+00  0.68371659260E+03  0.68371659260E+03  0.00000000000E+00 0. -1.
          1   -1    0    0  501    0 -0.00000000000E+00 -0.00000000000E+00 -0.90240413348E+03  0.90240413348E+03  0.00000000000E+00 0. -1.
         25    2    1    2    0    0  0.75608167605E+01  0.48316186362E+02  0.55519238134E+02  0.14525382839E+03  0.12499867617E+03 0.  0.
          2    1    1    2  501    0 -0.38192680101E+02  0.63648699200E+01 -0.85541407051E+03  0.85628991844E+03  0.00000000000E+00 0. -1.
          1    1    1    2  502    0  0.30631863341E+02 -0.54681056282E+02  0.58120729150E+03  0.58457697925E+03  0.00000000000E+00 0. -1.
         22    1    3    3    0    0  0.54337361867E+02  0.56500990860E+01 -0.84164757158E+01  0.55274854842E+02  0.00000000000E+00 0.  1.
         22    1    3    3    0    0 -0.46776545107E+02  0.42666087276E+02  0.63935713850E+02  0.89978973549E+02  0.00000000000E+00 0.  1.
</event>
<event>
 7    1  0.6152634E-006  0.7687621E+02  0.7818608E-02  0.1348074E+00
          2   -1    0    0  502    0  0.00000000000E+00  0.00000000000E+00  0.33290387231E+02  0.33290387231E+02  0.00000000000E+00 0. -1.
          1   -1    0    0  501    0 -0.00000000000E+00 -0.00000000000E+00 -0.14148250642E+04  0.14148250642E+04  0.00000000000E+00 0. -1.
         25    2    1    2    0    0 -0.91940868620E+02 -0.25626140703E+02 -0.22556320426E+03  0.27497953218E+03  0.12500064637E+03 0.  0.
          2    1    1    2  501    0  0.28037852166E+02  0.64768306379E+02 -0.97099240219E+03  0.97355395319E+03  0.00000000000E+00 0. -1.
          1    1    1    2  502    0  0.63903016454E+02 -0.39142165676E+02 -0.18497907057E+03  0.19958196611E+03  0.00000000000E+00 0. -1.
         22    1    3    3    0    0  0.14983153100E+02 -0.11002579321E+02  0.59752173425E+01  0.19525748406E+02  0.00000000000E+00 0.  1.
         22    1    3    3    0    0 -0.10692402172E+03 -0.14623561382E+02 -0.23153842160E+03  0.25545378378E+03  0.00000000000E+00 0.  1.
</event>
<event>
 7    1  0.6152634E-006  0.4069998E+02  0.7818608E-02  0.1569891E+00
          2   -1    0    0  502    0  0.00000000000E+00  0.00000000000E+00  0.43678922242E+03  0.43678922242E+03  0.00000000000E+00 0. -1.
          1   -1    0    0  501    0 -0.00000000000E+00 -0.00000000000E+00 -0.32041024437E+03  0.32041024437E+03  0.00000000000E+00 0. -1.
         25    2    1    2    0    0  0.70526441453E+00 -0.14643097422E+02 -0.79539543090E+02  0.14888194118E+03  0.12499750316E+03 0.  0.
          2    1    1    2  501    0 -0.30969794409E+00 -0.26293128558E+02 -0.20431281264E+03  0.20599793672E+03  0.00000000000E+00 0. -1.
          1    1    1    2  502    0 -0.39556647045E+00  0.40936225980E+02  0.40023133377E+03  0.40231958889E+03  0.00000000000E+00 0. -1.
         22    1    3    3    0    0  0.21218410364E+02  0.47780720575E+02 -0.61548862103E+02  0.80755684773E+02  0.00000000000E+00 0.  1.
         22    1    3    3    0    0 -0.20513145950E+02 -0.62423817997E+02 -0.17990680988E+02  0.68126256410E+02  0.00000000000E+00 0.  1.
</event>
<event>
 7    1  0.6152634E-006  0.9488334E+02  0.7818608E-02  0.1297961E+00
          2   -1    0    0  502    0  0.00000000000E+00  0.00000000000E+00  0.87936211237E+03  0.87936211237E+03  0.00000000000E+00 0. -1.
          1   -1    0    0  501    0 -0.00000000000E+00 -0.00000000000E+00 -0.64773024371E+03  0.64773024371E+03  0.00000000000E+00 0. -1.
         25    2    1    2    0    0 -0.24616731818E+02 -0.24457332517E+02  0.12541967794E+03  0.18044224969E+03  0.12500066104E+03 0.  0.
          2    1    1    2  501    0  0.89679782803E+02 -0.36711195501E+02 -0.61365807190E+03  0.62126194518E+03  0.00000000000E+00 0. -1.
          1    1    1    2  502    0 -0.65063050985E+02  0.61168528017E+02  0.71987026262E+03  0.72538816121E+03  0.00000000000E+00 0. -1.
         22    1    3    3    0    0 -0.62901965957E+02 -0.61043321907E+01  0.12255352666E+03  0.13788867643E+03  0.00000000000E+00 0.  1.
         22    1    3    3    0    0  0.38285234139E+02 -0.18353000326E+02  0.28661512865E+01  0.42553573260E+02  0.00000000000E+00 0.  1.
</event>
<event>
 7    1  0.6152634E-006  0.6767372E+02  0.7818608E-02  0.1508611E+00
          2   -1    0    0  502    0  0.00000000000E+00  0.00000000000E+00  0.25134115568E+03  0.25134115568E+03  0.00000000000E+00 0. -1.
          1   -1    0    0  501    0 -0.00000000000E+00 -0.00000000000E+00 -0.18733073717E+03  0.18733073717E+03  0.00000000000E+00 0. -1.
         25    2    1    2    0    0  0.82922324216E+02  0.54812849832E+01  0.71564557972E+02  0.16629091875E+03  0.12500010945E+03 0.  0.
          2    1    1    2  501    0 -0.63887704378E+02 -0.19396707313E+02 -0.13082376008E+03  0.14687657140E+03  0.00000000000E+00 0. -1.
          1    1    1    2  502    0 -0.19034619838E+02  0.13915422330E+02  0.12326962061E+03  0.12550440270E+03  0.00000000000E+00 0. -1.
         22    1    3    3    0    0  0.52560641088E+02  0.51196543848E+01  0.10718310431E+03  0.11948660888E+03  0.00000000000E+00 0. -1.
         22    1    3    3    0    0  0.30361683128E+02  0.36163059839E+00 -0.35618546337E+02  0.46804309868E+02  0.00000000000E+00 0. -1.
</event>
<event>
 7    1  0.6152634E-006  0.3187615E+02  0.7818608E-02  0.1617567E+00
          2   -1    0    0  502    0  0.00000000000E+00  0.00000000000E+00  0.91920178064E+02  0.91920178064E+02  0.00000000000E+00 0. -1.
          1   -1    0    0  501    0 -0.00000000000E+00 -0.00000000000E+00 -0.33274673147E+03  0.33274673147E+03  0.00000000000E+00 0. -1.
         25    2    1    2    0    0 -0.17148097791E+02  0.32169065972E+02 -0.10289401371E+03  0.16595489476E+03  0.12499977189E+03 0.  0.
          2    1    1    2  501    0  0.25115092976E+02 -0.11495452330E+01 -0.19320365452E+03  0.19483259858E+03  0.00000000000E+00 0. -1.
          1    1    1    2  502    0 -0.79669951842E+01 -0.31019520740E+02  0.55271114830E+02  0.63879416197E+02  0.00000000000E+00 0. -1.
         22    1    3    3    0    0  0.38168865260E+02 -0.28714841361E+02 -0.42067619409E+02  0.63648165663E+02  0.00000000000E+00 0. -1.
         22    1    3    3    0    0 -0.55316963051E+02  0.60883907334E+02 -0.60826394306E+02  0.10230672909E+03  0.00000000000E+00 0. -1.
</event>
<event>
 7    1  0.6152634E-006  0.3649719E+02  0.7818608E-02  0.1570611E+00
          2   -1    0    0  502    0  0.00000000000E+00  0.00000000000E+00  0.23477006038E+04  0.23477006038E+04  0.00000000000E+00 0. -1.
          1   -1    0    0  501    0 -0.00000000000E+00 -0.00000000000E+00 -0.20944985568E+04  0.20944985568E+04  0.00000000000E+00 0. -1.
         25    2    1    2    0    0 -0.62879081747E+02  0.16877160918E+02  0.38216926246E+03  0.40732840693E+03  0.12499787374E+03 0.  0.
          2    1    1    2  501    0  0.28751412758E+02 -0.50482650812E+01 -0.20816496364E+04  0.20818543026E+04  0.00000000000E+00 0. -1.
          1    1    1    2  502    0  0.34127668989E+02 -0.11828895837E+02  0.19526824210E+04  0.19530164510E+04  0.00000000000E+00 0. -1.
         22    1    3    3    0    0 -0.68046941295E+01 -0.43586597570E+02  0.23056970722E+03  0.23475196535E+03  0.00000000000E+00 0. -1.
         22    1    3    3    0    0 -0.56074387617E+02  0.60463758489E+02  0.15159955524E+03  0.17257644158E+03  0.00000000000E+00 0. -1.
</event>
<event>
 7    1  0.6152634E-006  0.7394019E+02  0.7818608E-02  0.1349510E+00
          2   -1    0    0  502    0  0.00000000000E+00  0.00000000000E+00  0.56587360256E+03  0.56587360256E+03  0.00000000000E+00 0. -1.
          1   -1    0    0  501    0 -0.00000000000E+00 -0.00000000000E+00 -0.98811662414E+03  0.98811662414E+03  0.00000000000E+00 0. -1.
         25    2    1    2    0    0  0.16747686823E+02  0.69479423866E+02 -0.76582861587E+03  0.77924761004E+03  0.12500197401E+03 0.  0.
          2    1    1    2  501    0 -0.84672640538E+02 -0.40267225967E+02 -0.20277454538E+03  0.22340192881E+03  0.00000000000E+00 0. -1.
          1    1    1    2  502    0  0.67924953715E+02 -0.29212197899E+02  0.54636013968E+03  0.55134068784E+03  0.00000000000E+00 0. -1.
         22    1    3    3    0    0 -0.26067732625E+02  0.50258945636E+02 -0.67156159965E+03  0.67394396683E+03  0.00000000000E+00 0.  1.
         22    1    3    3    0    0  0.42815419448E+02  0.19220478230E+02 -0.94267016227E+02  0.10530364321E+03  0.00000000000E+00 0.  1.
</event>
<event>
 7    1  0.6152634E-006  0.8084326E+02  0.7818608E-02  0.1401092E+00
          2   -1    0    0  502    0  0.00000000000E+00  0.00000000000E+00  0.25932776442E+04  0.25932776442E+04  0.00000000000E+00 0. -1.
          1   -1    0    0  501    0 -0.00000000000E+00 -0.00000000000E+00 -0.15097829750E+03  0.15097829750E+03  0.00000000000E+00 0. -1.
         25    2    1    2    0    0 -0.47855334780E+02  0.11380546087E+03  0.83533474037E+03  0.85361081117E+03  0.12500188989E+03 0.  0.
          2    1    1    2  501    0  0.27934550992E+02 -0.75253050894E+02 -0.13019083997E+03  0.15294775455E+03  0.00000000000E+00 0. -1.
          1    1    1    2  502    0  0.19920783788E+02 -0.38552409981E+02  0.17371554463E+04  0.17376973760E+04  0.00000000000E+00 0. -1.
         22    1    3    3    0    0  0.14511553663E+01  0.12494648400E+03  0.57655339830E+03  0.58993859918E+03  0.00000000000E+00 0. -1.
         22    1    3    3    0    0 -0.49306490147E+02 -0.11141023125E+02  0.25878134208E+03  0.26367221199E+03  0.00000000000E+00 0. -1.
</event>
<event>
 7    1  0.6152634E-006  0.7295224E+02  0.7818608E-02  0.1397313E+00
          2   -1    0    0  502    0  0.00000000000E+00  0.00000000000E+00  0.74736047515E+02  0.74736047515E+02  0.00000000000E+00 0. -1.
          1   -1    0    0  501    0 -0.00000000000E+00 -0.00000000000E+00 -0.86436367549E+03  0.86436367549E+03  0.00000000000E+00 0. -1.
         25    2    1    2    0    0 -0.92091864238E+02 -0.22774105958E+02 -0.59252998352E+02  0.16773745326E+03  0.12500145620E+03 0.  0.
          2    1    1    2  501    0  0.28658032606E+02  0.40423309325E+02 -0.69472030318E+03  0.69648519469E+03  0.00000000000E+00 0. -1.
          1    1    1    2  502    0  0.63433831632E+02 -0.17649203367E+02 -0.35654326439E+02  0.74877075055E+02  0.00000000000E+00 0. -1.
         22    1    3    3    0    0 -0.49575089290E+02 -0.22564434515E+02 -0.96762197919E+02  0.11103948005E+03  0.00000000000E+00 0. -1.
         22    1    3    3    0    0 -0.42516774947E+02 -0.20967144280E+00  0.37509199567E+02  0.56697973211E+02  0.00000000000E+00 0. -1.
</event>
<event>
 7    1  0.6152634E-006  0.4497909E+02  0.7818608E-02  0.1498929E+00
          2   -1    0    0  502    0  0.00000000000E+00  0.00000000000E+00  0.26657505071E+04  0.26657505071E+04  0.00000000000E+00 0. -1.
          1   -1    0    0  501    0 -0.00000000000E+00 -0.00000000000E+00 -0.86442663605E+01  0.86442663605E+01  0.00000000000E+00 0. -1.
         25    2    1    2    0    0 -0.74077077103E+01  0.11118831309E+02  0.92885587985E+03  0.93732509829E+03  0.12500636712E+03 0.  0.
          2    1    1    2  501    0  0.40324715059E+02 -0.29909931583E+02  0.14648140815E+03  0.15484666475E+03  0.00000000000E+00 0. -1.
          1    1    1    2  502    0 -0.32917007348E+02  0.18791100274E+02  0.15817689527E+04  0.15822230104E+04  0.00000000000E+00 0. -1.
         22    1    3    3    0    0  0.33743293083E+02 -0.33331317571E+02  0.18415753969E+03  0.19016725792E+03  0.00000000000E+00 0.  1.
         22    1    3    3    0    0 -0.41151000794E+02  0.44450148880E+02  0.74469834016E+03  0.74715784038E+03  0.00000000000E+00 0.  1.
</event>
<event>
 7    1  0.6152634E-006  0.2715489E+02  0.7818608E-02  0.1661840E+00
          2   -1    0    0  502    0  0.00000000000E+00  0.00000000000E+00  0.91589847279E+03  0.91589847279E+03  0.00000000000E+00 0. -1.
          1   -1    0    0  501    0 -0.00000000000E+00 -0.00000000000E+00 -0.10920316153E+03  0.10920316153E+03  0.00000000000E+00 0. -1.
         25    2    1    2    0    0  0.43131402613E+02 -0.41773459268E+01  0.86743409165E+03  0.87746483567E+03  0.12499946547E+03 0.  0.
          2    1    1    2  501    0 -0.22791736023E+02  0.14718605694E+02 -0.99214531618E+02  0.10285729857E+03  0.00000000000E+00 0. -1.
          1    1    1    2  502    0 -0.20339666590E+02 -0.10541259767E+02  0.38475751226E+02  0.44779500074E+02  0.00000000000E+00 0. -1.
         22    1    3    3    0    0  0.33100205499E+02 -0.78353047405E+01  0.53098377570E+02  0.63059125470E+02  0.00000000000E+00 0.  1.
         22    1    3    3    0    0  0.10031197114E+02  0.36579588137E+01  0.81433571408E+03  0.81440571020E+03  0.00000000000E+00 0.  1.
</event>
<event>
 7    1  0.6152634E-006  0.4989548E+02  0.7818608E-02  0.1470851E+00
          2   -1    0    0  502    0  0.00000000000E+00  0.00000000000E+00  0.15314552821E+04  0.15314552821E+04  0.00000000000E+00 0. -1.
          1   -1    0    0  501    0 -0.00000000000E+00 -0.00000000000E+00 -0.24399773749E+04  0.24399773749E+04  0.00000000000E+00 0. -1.
         25    2    1    2    0    0  0.49894352372E+02 -0.37786210784E+02  0.20767806129E+03  0.25034394282E+03  0.12499867375E+03 0.  0.
          2    1    1    2  501    0 -0.98047680699E+01  0.48926110014E+02 -0.24180546560E+04  0.24185694567E+04  0.00000000000E+00 0. -1.
          1    1    1    2  502    0 -0.40089584302E+02 -0.11139899230E+02  0.13018545019E+04  0.13025192575E+04  0.00000000000E+00 0. -1.
         22    1    3    3    0    0  0.34751421514E+02 -0.12359014736E+02 -0.35486982680E+01  0.37054011954E+02  0.00000000000E+00 0. -1.
         22    1    3    3    0    0  0.15142930858E+02 -0.25427196048E+02  0.21122675956E+03  0.21328993086E+03  0.00000000000E+00 0. -1.
</event>
<event>
 7    1  0.6152634E-006  0.2773360E+03  0.7818608E-02  0.1271227E+00
          2   -1    0    0  502    0  0.00000000000E+00  0.00000000000E+00  0.27910061753E+04  0.27910061753E+04  0.00000000000E+00 0. -1.
          1   -1    0    0  501    0 -0.00000000000E+00 -0.00000000000E+00 -0.41680508764E+03  0.41680508764E+03  0.00000000000E+00 0. -1.
         25    2    1    2    0    0 -0.14034579134E+03 -0.20921042212E+03  0.16838669088E+03  0.32778883760E+03  0.12500201007E+03 0.  0.
          2    1    1    2  501    0  0.13693893651E+03  0.24839270865E+03 -0.27725721683E+03  0.39663935045E+03  0.00000000000E+00 0. -1.
          1    1    1    2  502    0  0.34068548229E+01 -0.39182286529E+02  0.24830716136E+04  0.24833830749E+04  0.00000000000E+00 0. -1.
         22    1    3    3    0    0 -0.18916079527E+02 -0.12219365579E+03  0.37603020517E+02  0.12924045316E+03  0.00000000000E+00 0. -1.
         22    1    3    3    0    0 -0.12142971181E+03 -0.87016766326E+02  0.13078367036E+03  0.19854838444E+03  0.00000000000E+00 0. -1.
</event>
<event>
 7    1  0.6152634E-006  0.8713592E+02  0.7818608E-02  0.1481969E+00
          2   -1    0    0  502    0  0.00000000000E+00  0.00000000000E+00  0.18889974446E+03  0.18889974446E+03  0.00000000000E+00 0. -1.
          1   -1    0    0  501    0 -0.00000000000E+00 -0.00000000000E+00 -0.14559766119E+04  0.14559766119E+04  0.00000000000E+00 0. -1.
         25    2    1    2    0    0 -0.70364708758E+02 -0.14507563101E+02 -0.88522052006E+01  0.14444814944E+03  0.12500097886E+03 0.  0.
          2    1    1    2  501    0 -0.20123143214E+02  0.89347931351E+01 -0.13622576475E+04  0.13624355653E+04  0.00000000000E+00 0. -1.
          1    1    1    2  502    0  0.90487851972E+02  0.55727699658E+01  0.10403298526E+03  0.13799264162E+03  0.00000000000E+00 0. -1.
         22    1    3    3    0    0 -0.25381891139E+01  0.23328750689E+02 -0.50958774236E+02  0.56102314429E+02  0.00000000000E+00 0. -1.
         22    1    3    3    0    0 -0.67826519644E+02 -0.37836313789E+02  0.42106569036E+02  0.88345835013E+02  0.00000000000E+00 0. -1.
</event>
<event>
 7    1  0.6152634E-006  0.6972680E+02  0.7818608E-02  0.1402441E+00
          2   -1    0    0  502    0  0.00000000000E+00  0.00000000000E+00  0.11350841496E+04  0.11350841496E+04  0.00000000000E+00 0. -1.
          1   -1    0    0  501    0 -0.00000000000E+00 -0.00000000000E+00 -0.18538889960E+04  0.18538889960E+04  0.00000000000E+00 0. -1.
         25    2    1    2    0    0 -0.10092508216E+03 -0.48205184286E+02 -0.74010619559E+02  0.18333552004E+03  0.12499891639E+03 0.  0.
          2    1    1    2  501    0  0.68454395922E+02  0.10472852708E+02 -0.17239469816E+04  0.17253373236E+04  0.00000000000E+00 0. -1.
          1    1    1    2  502    0  0.32470686235E+02  0.37732331578E+02  0.10791527547E+04  0.10803003019E+04  0.00000000000E+00 0. -1.
         22    1    3    3    0    0 -0.38444866658E+02 -0.29858449602E+01 -0.95733607101E+02  0.10320778348E+03  0.00000000000E+00 0.  1.
         22    1    3    3    0    0 -0.62480215500E+02 -0.45219339326E+02  0.21722987542E+02  0.80127736557E+02  0.00000000000E+00 0.  1.
</event>
<event>
 7    1  0.6152634E-006  0.6025997E+02  0.7818608E-02  0.1408331E+00
          2   -1    0    0  502    0  0.00000000000E+00  0.00000000000E+00  0.12530709999E+04  0.12530709999E+04  0.00000000000E+00 0. -1.
          1   -1    0    0  501    0 -0.00000000000E+00 -0.00000000000E+00 -0.11403595316E+04  0.11403595316E+04  0.00000000000E+00 0. -1.
         25    2    1    2    0    0 -0.21236206521E+02  0.36583736488E+02  0.55975881865E+03  0.57510389263E+03  0.12500082406E+03 0.  0.
          2    1    1    2  501    0 -0.46064698856E+02 -0.30043254642E+02 -0.11303496952E+04  0.11316867884E+04  0.00000000000E+00 0. -1.
          1    1    1    2  502    0  0.67300905376E+02 -0.65404818458E+01  0.68330234487E+03  0.68663985049E+03  0.00000000000E+00 0. -1.
         22    1    3    3    0    0  0.13754500822E+02 -0.42936623413E+02  0.19120443829E+03  0.19644815384E+03  0.00000000000E+00 0. -1.
         22    1    3    3    0    0 -0.34990707343E+02  0.79520359901E+02  0.36855438036E+03  0.37865573879E+03  0.00000000000E+00 0. -1.
</event>
<event>
 7    1  0.6152634E-006  0.4805775E+02  0.7818608E-02  0.1479808E+00
          2   -1    0    0  502    0  0.00000000000E+00  0.00000000000E+00  0.43045176916E+03  0.43045176916E+03  0.00000000000E+00 0. -1.
          1   -1    0    0  501    0 -0.00000000000E+00 -0.00000000000E+00 -0.70193598831E+03  0.70193598831E+03  0.00000000000E+00 0. -1.
         25    2    1    2    0    0 -0.21486314511E+02  0.54868579290E+02  0.18057756537E+03  0.22738672741E+03  0.12499697589E+03 0.  0.
          2    1    1    2  501    0  0.39319301726E+02 -0.98506757133E+01 -0.67532851610E+03  0.67654389950E+03  0.00000000000E+00 0. -1.
          1    1    1    2  502    0 -0.17832987215E+02 -0.45017903577E+02  0.22326673158E+03  0.22845713056E+03  0.00000000000E+00 0. -1.
         22    1    3    3    0    0  0.35395111355E+02  0.53196124611E+02  0.14942194079E+03  0.16251017806E+03  0.00000000000E+00 0. -1.
         22    1    3    3    0    0 -0.56881425866E+02  0.16724546796E+01  0.31155624574E+02  0.64876549352E+02  0.00000000000E+00 0. -1.
</event>
<event>
 7    1  0.6152634E-006  0.6348781E+02  0.7818608E-02  0.1502896E+00
          2   -1    0    0  502    0  0.00000000000E+00  0.00000000000E+00  0.28243074787E+04  0.28243074787E+04  0.00000000000E+00 0. -1.
          1   -1    0    0  501    0 -0.00000000000E+00 -0.00000000000E+00 -0.27554341949E+03  0.27554341949E+03  0.00000000000E+00 0. -1.
         25    2    1    2    0    0 -0.13831507356E+02  0.56021728159E+02  0.38846665643E+03  0.41214293280E+03  0.12500283709E+03 0.  0.
          2    1    1    2  501    0 -0.25502009386E+02 -0.57033934820E+01 -0.26263604881E+03  0.26393289926E+03  0.00000000000E+00 0. -1.
          1    1    1    2  502    0  0.39333516742E+02 -0.50318334677E+02  0.24229334516E+04  0.24237750661E+04  0.00000000000E+00 0. -1.
         22    1    3    3    0    0  0.29397870533E+02  0.81883748354E+02  0.23262069364E+03  0.24835774629E+03  0.00000000000E+00 0. -1.
         22    1    3    3    0    0 -0.43229377889E+02 -0.25862020195E+02  0.15584596279E+03  0.16378518651E+03  0.00000000000E+00 0. -1.
</event>
<event>
 7    1  0.6152634E-006  0.1017416E+03  0.7818608E-02  0.1471237E+00
          2   -1    0    0  502    0  0.00000000000E+00  0.00000000000E+00  0.22415496269E+03  0.22415496269E+03  0.00000000000E+00 0. -1.
          1   -1    0    0  501    0 -0.00000000000E+00 -0.00000000000E+00 -0.16616699711E+03  0.16616699711E+03  0.00000000000E+00 0. -1.
         25    2    1    2    0    0 -0.88820820624E+02  0.48783631661E+01 -0.29655365472E+02  0.15626011344E+03  0.12499938299E+03 0.  0.
          2    1    1    2  501    0 -0.13440444165E+02  0.15278799211E+02 -0.54284529000E+02  0.57973246705E+02  0.00000000000E+00 0. -1.
          1    1    1    2  502    0  0.10226126479E+03 -0.20157162377E+02  0.14192786005E+03  0.17608859966E+03  0.00000000000E+00 0. -1.
         22    1    3    3    0    0 -0.39472744420E+02 -0.50104602991E+02  0.20459246510E+02  0.66986189328E+02  0.00000000000E+00 0. -1.
         22    1    3    3    0    0 -0.49348076204E+02  0.54982966158E+02 -0.50114611983E+02  0.89273924114E+02  0.00000000000E+00 0. -1.
</event>
<event>
 7    1  0.6152634E-006  0.2028459E+03  0.7818608E-02  0.1203912E+00
          2   -1    0    0  502    0  0.00000000000E+00  0.00000000000E+00  0.11557273284E+04  0.11557273284E+04  0.00000000000E+00 0. -1.
          1   -1    0    0  501    0 -0.00000000000E+00 -0.00000000000E+00 -0.15086428860E+04  0.15086428860E+04  0.00000000000E+00 0. -1.
         25    2    1    2    0    0 -0.12313807538E+03  0.16971738638E+03 -0.14879142095E+02  0.24456727759E+03  0.12499915020E+03 0.  0.
          2    1    1    2  501    0  0.18627026098E+03 -0.83487671435E+02 -0.13685870058E+04  0.13837258376E+04  0.00000000000E+00 0. -1.
          1    1    1    2  502    0 -0.63132185603E+02 -0.86229714941E+02  0.10305505902E+04  0.10360770992E+04  0.00000000000E+00 0. -1.
         22    1    3    3    0    0 -0.14184999821E+03  0.10829245453E+03  0.82125467033E+00  0.17846386794E+03  0.00000000000E+00 0.  1.
         22    1    3    3    0    0  0.18711922837E+02  0.61424931842E+02 -0.15700396765E+02  0.66103409644E+02  0.00000000000E+00 0.  1.
</event>
<event>
 7    1  0.6152634E-006  0.3201201E+02  0.7818608E-02  0.1619395E+00
          2   -1    0    0  502    0  0.00000000000E+00  0.00000000000E+00  0.47704619265E+03  0.47704619265E+03  0.00000000000E+00 0. -1.
          1   -1    0    0  501    0 -0.00000000000E+00 -0.00000000000E+00 -0.12314858774E+04  0.12314858774E+04  0.00000000000E+00 0. -1.
         25    2    1    2    0    0  0.36520398121E+02  0.12100852594E+02 -0.99764448358E+03  0.10061806989E+04  0.12499965244E+03 0.  0.
          2    1    1    2  501    0 -0.67346891388E+01 -0.23833959485E+02 -0.22836100940E+03  0.22970016168E+03  0.00000000000E+00 0. -1.
          1    1    1    2  502    0 -0.29785708982E+02  0.11733106891E+02  0.47156580826E+03  0.47265120943E+03  0.00000000000E+00 0. -1.
         22    1    3    3    0    0  0.76156985623E+02  0.23687857118E+02 -0.81663450655E+03  0.82051990733E+03  0.00000000000E+00 0. -1.
         22    1    3    3    0    0 -0.39636587502E+02 -0.11587004524E+02 -0.18100997702E+03  0.18566079157E+03  0.00000000000E+00 0. -1.
</event>
<event>
 7    1  0.6152634E-006  0.1519045E+03  0.7818608E-02  0.1406359E+00
          2   -1    0    0  502    0  0.00000000000E+00  0.00000000000E+00  0.91141124231E+03  0.91141124231E+03  0.00000000000E+00 0. -1.
          1   -1    0    0  501    0 -0.00000000000E+00 -0.00000000000E+00 -0.10218602596E+04  0.10218602596E+04  0.00000000000E+00 0. -1.
         25    2    1    2    0    0 -0.12630845881E+03 -0.35962321572E+02  0.46305166112E+02  0.18713464334E+03  0.12501236335E+03 0.  0.
          2    1    1    2  501    0  0.14843798096E+03  0.37051990636E+02 -0.94513858258E+03  0.95744118591E+03  0.00000000000E+00 0. -1.
          1    1    1    2  502    0 -0.22129522151E+02 -0.10896690639E+01  0.78838439920E+03  0.78869567264E+03  0.00000000000E+00 0. -1.
         22    1    3    3    0    0 -0.80519874273E+02 -0.76211811146E+02  0.57902135839E+02  0.12507736664E+03  0.00000000000E+00 0.  1.
         22    1    3    3    0    0 -0.45788584538E+02  0.40249489574E+02 -0.11596969727E+02  0.62057276703E+02  0.00000000000E+00 0.  1.
</event>
<event>
 7    1  0.6152634E-006  0.1097510E+03  0.7818608E-02  0.1276856E+00
          2   -1    0    0  502    0  0.00000000000E+00  0.00000000000E+00  0.49959768449E+03  0.49959768449E+03  0.00000000000E+00 0. -1.
          1   -1    0    0  501    0 -0.00000000000E+00 -0.00000000000E+00 -0.24167305857E+03  0.24167305857E+03  0.00000000000E+00 0. -1.
         25    2    1    2    0    0  0.68233835130E+01 -0.62410582303E+02  0.18586639758E+03  0.23262373256E+03  0.12500337537E+03 0.  0.
          2    1    1    2  501    0  0.10963230539E+03  0.51021584348E+01 -0.18817507890E+03  0.21784199486E+03  0.00000000000E+00 0. -1.
          1    1    1    2  502    0 -0.11645568890E+03  0.57308423868E+02  0.26023330724E+03  0.29080501564E+03  0.00000000000E+00 0. -1.
         22    1    3    3    0    0  0.25727557733E+02 -0.75341488528E+02  0.48204301405E+02  0.93069338637E+02  0.00000000000E+00 0.  1.
         22    1    3    3    0    0 -0.18904174220E+02  0.12930906224E+02  0.13766209618E+03  0.13955439392E+03  0.00000000000E+00 0.  1.
</event>
<event>
 7    1  0.6152634E-006  0.5501771E+02  0.7818608E-02  0.1446076E+00
          2   -1    0    0  502    0  0.00000000000E+00  0.00000000000E+00  0.43267034992E+03  0.43267034992E+03  0.00000000000E+00 0. -1.
          1   -1    0    0  501    0 -0.00000000000E+00 -0.00000000000E+00 -0.99620301458E+03  0.99620301458E+03  0.00000000000E+00 0. -1.
         25    2    1    2    0    0 -0.31549401106E+02 -0.91110476480E+02 -0.73809030679E+02  0.17426736762E+03  0.12499943509E+03 0.  0.
          2    1    1    2  501    0  0.28980507750E+02  0.45990359642E+02 -0.86997839731E+03  0.87167505115E+03  0.00000000000E+00 0. -1.
          1    1    1    2  502    0  0.25688933552E+01  0.45120116838E+02  0.38025476333E+03  0.38293094573E+03  0.00000000000E+00 0. -1.
         22    1    3    3    0    0  0.84208476187E+01 -0.59722378298E+02  0.23305033103E+02  0.64659088395E+02  0.00000000000E+00 0. -1.
         22    1    3    3    0    0 -0.39970248724E+02 -0.31388098182E+02 -0.97114063782E+02  0.10960827923E+03  0.00000000000E+00 0. -1.
</event>
<event>
 7    1  0.6152634E-006  0.6464968E+02  0.7818608E-02  0.1488822E+00
          2   -1    0    0  502    0  0.00000000000E+00  0.00000000000E+00  0.12048051074E+04  0.12048051074E+04  0.00000000000E+00 0. -1.
          1   -1    0    0  501    0 -0.00000000000E+00 -0.00000000000E+00 -0.12714952837E+04  0.12714952837E+04  0.00000000000E+00 0. -1.
         25    2    1    2    0    0  0.85578009212E+02  0.79507003109E+01  0.28131258310E+02  0.15428824026E+03  0.12500673619E+03 0.  0.
          2    1    1    2  501    0 -0.24872091124E+02  0.13466430337E+02 -0.12073207302E+04  0.12076519826E+04  0.00000000000E+00 0. -1.
          1    1    1    2  502    0 -0.60705918088E+02 -0.21417130648E+02  0.11124992956E+04  0.11143601683E+04  0.00000000000E+00 0. -1.
         22    1    3    3    0    0  0.45949440060E+02 -0.54989656987E+02 -0.70578016191E+01  0.72007124517E+02  0.00000000000E+00 0. -1.
         22    1    3    3    0    0  0.39628569152E+02  0.62940357298E+02  0.35189059929E+02  0.82281115747E+02  0.00000000000E+00 0. -1.
</event>
<event>
 7    1  0.6152634E-006  0.5550553E+02  0.7818608E-02  0.1523364E+00
          2   -1    0    0  502    0  0.00000000000E+00  0.00000000000E+00  0.12958467972E+04  0.12958467972E+04  0.00000000000E+00 0. -1.
          1   -1    0    0  501    0 -0.00000000000E+00 -0.00000000000E+00 -0.94482779853E+03  0.94482779853E+03  0.00000000000E+00 0. -1.
         25    2    1    2    0    0  0.14980185432E+02 -0.28026701114E+02  0.25140512864E+03  0.28255745145E+03  0.12499709090E+03 0.  0.
          2    1    1    2  501    0 -0.37574863062E+02  0.40957850318E+02 -0.92825551962E+03  0.92991812840E+03  0.00000000000E+00 0. -1.
          1    1    1    2  502    0  0.22594677630E+02 -0.12931149204E+02  0.10278693896E+04  0.10281990158E+04  0.00000000000E+00 0. -1.
         22    1    3    3    0    0 -0.17909347183E+02  0.41899221204E+02  0.54542347020E+02  0.71071492685E+02  0.00000000000E+00 0. -1.
         22    1    3    3    0    0  0.32889532615E+02 -0.69925922318E+02  0.19686278162E+03  0.21148595877E+03  0.00000000000E+00 0. -1.
</event>
<event>
 7    1  0.6152634E-006  0.5072102E+02  0.7818608E-02  0.1474448E+00
          2   -1    0    0  502    0  0.00000000000E+00  0.00000000000E+00  0.18689490702E+04  0.18689490702E+04  0.00000000000E+00 0. -1.
          1   -1    0    0  501    0 -0.00000000000E+00 -0.00000000000E+00 -0.10124370374E+04  0.10124370374E+04  0.00000000000E+00 0. -1.
         25    2    1    2    0    0  0.74621335573E+02  0.49069932890E+02  0.42747081769E+03  0.45423795383E+03  0.12499846676E+03 0.  0.
          2    1    1    2  501    0 -0.34271483029E+02 -0.20420544180E+02 -0.99822621822E+03  0.99902308077E+03  0.00000000000E+00 0. -1.
          1    1    1    2  502    0 -0.40349852544E+02 -0.28649388710E+02  0.14272674333E+04  0.14281250730E+04  0.00000000000E+00 0. -1.
         22    1    3    3    0    0  0.20178549011E+02 -0.35526102464E+02  0.21881298439E+03  0.22259469880E+03  0.00000000000E+00 0.  1.
         22    1    3    3    0    0  0.54442786562E+02  0.84596035354E+02  0.20865783329E+03  0.23164325503E+03  0.00000000000E+00 0.  1.
</event>
<event>
 7    1  0.6152634E-006  0.1295451E+03  0.7818608E-02  0.1229905E+00
          2   -1    0    0  502    0  0.00000000000E+00  0.00000000000E+00  0.10613419429E+04  0.10613419429E+04  0.00000000000E+00 0. -1.
          1   -1    0    0  501    0 -0.00000000000E+00 -0.00000000000E+00 -0.67814210047E+03  0.67814210047E+03  0.00000000000E+00 0. -1.
         25    2    1    2    0    0  0.41523770905E+02  0.74454667503E+02  0.14108540489E+03  0.20687827500E+03  0.12500323249E+03 0.  0.
          2    1    1    2  501    0 -0.13257353556E+03  0.14357335820E+02 -0.63371296909E+03  0.64759092228E+03  0.00000000000E+00 0. -1.
          1    1    1    2  502    0  0.91049764656E+02 -0.88812003322E+02  0.87582740665E+03  0.88501484610E+03  0.00000000000E+00 0. -1.
         22    1    3    3    0    0 -0.65312910489E+01  0.60196720317E+02  0.37327259578E+01  0.60664949871E+02  0.00000000000E+00 0.  1.
         22    1    3    3    0    0  0.48055061954E+02  0.14257947185E+02  0.13735267893E+03  0.14621332513E+03  0.00000000000E+00 0.  1.
</event>
<event>
 7    1  0.6152634E-006  0.6211230E+02  0.7818608E-02  0.1498494E+00
          2   -1    0    0  502    0  0.00000000000E+00  0.00000000000E+00  0.76817803115E+03  0.76817803115E+03  0.00000000000E+00 0. -1.
          1   -1    0    0  501    0 -0.00000000000E+00 -0.00000000000E+00 -0.55164935906E+03  0.55164935906E+03  0.00000000000E+00 0. -1.
         25    2    1    2    0    0 -0.33965558785E+02  0.74174739779E+02 -0.17907565468E+03  0.23312634931E+03  0.12499701372E+03 0.  0.
          2    1    1    2  501    0  0.24308524442E+02 -0.12922763884E+02 -0.34370000539E+03  0.34480080610E+03  0.00000000000E+00 0. -1.
          1    1    1    2  502    0  0.96570343429E+01 -0.61251975896E+02  0.73930433215E+03  0.74190023480E+03  0.00000000000E+00 0. -1.
         22    1    3    3    0    0 -0.68698741673E+02  0.14234695644E+02 -0.48431663869E+02  0.85251215432E+02  0.00000000000E+00 0.  1.
         22    1    3    3    0    0  0.34733182888E+02  0.59940044136E+02 -0.13064399081E+03  0.14787513387E+03  0.00000000000E+00 0.  1.
</event>
<event>
 7    1  0.6152634E-006  0.9641449E+02  0.7818608E-02  0.1325658E+00
          2   -1    0    0  502    0  0.00000000000E+00  0.00000000000E+00  0.16296425281E+04  0.16296425281E+04  0.00000000000E+00 0. -1.
          1   -1    0    0  501    0 -0.00000000000E+00 -0.00000000000E+00 -0.12950526942E+04  0.12950526942E+04  0.00000000000E+00 0. -1.
         25    2    1    2    0    0  0.10449425214E+03  0.83886137765E+02  0.19655377364E+03  0.26872882143E+03  0.12500344273E+03 0.  0.
          2    1    1    2  501    0 -0.68258156482E+02  0.43953954797E+01 -0.12564041592E+04  0.12582646410E+04  0.00000000000E+00 0. -1.
          1    1    1    2  502    0 -0.36236095662E+02 -0.88281533245E+02  0.13944402195E+04  0.13977017599E+04  0.00000000000E+00 0. -1.
         22    1    3    3    0    0  0.76657814239E+02  0.80560681557E+02  0.54326865394E+02  0.12376531097E+03  0.00000000000E+00 0. -1.
         22    1    3    3    0    0  0.27836437904E+02  0.33254562080E+01  0.14222690824E+03  0.14496351045E+03  0.00000000000E+00 0. -1.
</event>
<event>
 7    1  0.6152634E-006  0.8304539E+02  0.7818608E-02  0.1474093E+00
          2   -1    0    0  502    0  0.00000000000E+00  0.00000000000E+00  0.69051890428E+03  0.69051890428E+03  0.00000000000E+00 0. -1.
          1   -1    0    0  501    0 -0.00000000000E+00 -0.00000000000E+00 -0.60004281772E+03  0.60004281772E+03  0.00000000000E+00 0. -1.
         25    2    1    2    0    0 -0.77168201356E+02 -0.14218815150E+02  0.34054228094E+03  0.37114922369E+03  0.12500238050E+03 0.  0.
          2    1    1    2  501    0  0.84262513170E+00 -0.24412969461E+02 -0.57901107858E+03  0.57952612729E+03  0.00000000000E+00 0. -1.
          1    1    1    2  502    0  0.76325576224E+02  0.38631784611E+02  0.32894488419E+03  0.33988637102E+03  0.00000000000E+00 0. -1.
         22    1    3    3    0    0 -0.48435930489E+02  0.31190728488E+02  0.29540841140E+03  0.30097347131E+03  0.00000000000E+00 0. -1.
         22    1    3    3    0    0 -0.28732270866E+02 -0.45409543638E+02  0.45133869547E+02  0.70175752385E+02  0.00000000000E+00 0. -1.
</event>
<event>
 7    1  0.6152634E-006  0.5989412E+02  0.7818608E-02  0.1422487E+00
          2   -1    0    0  502    0  0.00000000000E+00  0.00000000000E+00  0.61687033831E+03  0.61687033831E+03  0.00000000000E+00 0. -1.
          1   -1    0    0  501    0 -0.00000000000E+00 -0.00000000000E+00 -0.47646091986E+03  0.47646091986E+03  0.00000000000E+00 0. -1.
         25    2    1    2    0    0 -0.10730598709E+03 -0.36238502202E+01  0.11135457796E+03  0.19887757241E+03  0.12499895849E+03 0.  0.
          2    1    1    2  501    0  0.58870914802E+02 -0.70083604970E+01 -0.42932509306E+03  0.43339928156E+03  0.00000000000E+00 0. -1.
          1    1    1    2  502    0  0.48435072284E+02  0.10632210717E+02  0.45837993356E+03  0.46105440418E+03  0.00000000000E+00 0. -1.
         22    1    3    3    0    0 -0.11186539510E+03  0.37798616071E+02  0.10230528651E+03  0.15623371482E+03  0.00000000000E+00 0. -1.
         22    1    3    3    0    0  0.45594080142E+01 -0.41422466291E+02  0.90492914482E+01  0.42643857598E+02  0.00000000000E+00 0. -1.
</event>
<event>
 7    1  0.6152634E-006  0.2354451E+03  0.7818608E-02  0.1192172E+00
          2   -1    0    0  502    0  0.00000000000E+00  0.00000000000E+00  0.84209616062E+03  0.84209616062E+03  0.00000000000E+00 0. -1.
          1   -1    0    0  501    0 -0.00000000000E+00 -0.00000000000E+00 -0.95172668832E+03  0.95172668832E+03  0.00000000000E+00 0. -1.
         25    2    1    2    0    0 -0.27107730065E+03  0.17708584730E+03  0.14894710696E+03  0.37769287038E+03  0.12499745365E+03 0.  0.
          2    1    1    2  501    0  0.90106518438E+02 -0.53198138204E+02 -0.81310410243E+03  0.81980943393E+03  0.00000000000E+00 0. -1.
          1    1    1    2  502    0  0.18097078221E+03 -0.12388770910E+03  0.55452646777E+03  0.59632054462E+03  0.00000000000E+00 0. -1.
         22    1    3    3    0    0 -0.38404936929E+02  0.67691727677E+01  0.67681958806E+02  0.78112792988E+02  0.00000000000E+00 0. -1.
         22    1    3    3    0    0 -0.23267236372E+03  0.17031667454E+03  0.81265148151E+02  0.29958007739E+03  0.00000000000E+00 0. -1.
</event>
<event>
 7    1  0.6152634E-006  0.4538535E+02  0.7818608E-02  0.1583633E+00
          2   -1    0    0  502    0  0.00000000000E+00  0.00000000000E+00  0.12528091328E+04  0.12528091328E+04  0.00000000000E+00 0. -1.
          1   -1    0    0  501    0 -0.00000000000E+00 -0.00000000000E+00 -0.13968567208E+02  0.13968567208E+02  0.00000000000E+00 0. -1.
         25    2    1    2    0    0  0.24923328019E+02  0.13200931986E+02  0.49655011912E+03  0.51281770524E+03  0.12499816448E+03 0.  0.
          2    1    1    2  501    0 -0.39297368781E+02 -0.29396703182E+02  0.10087766799E+03  0.11218178662E+03  0.00000000000E+00 0. -1.
          1    1    1    2  502    0  0.14374040762E+02  0.16195771196E+02  0.64141277851E+03  0.64177820818E+03  0.00000000000E+00 0. -1.
         22    1    3    3    0    0 -0.29968566354E+02  0.49553764858E+02  0.16701966075E+03  0.17677459562E+03  0.00000000000E+00 0. -1.
         22    1    3    3    0    0  0.54891894372E+02 -0.36352832872E+02  0.32953045838E+03  0.33604310962E+03  0.00000000000E+00 0. -1.
</event>
<event>
 7    1  0.6152634E-006  0.8720567E+02  0.7818608E-02  0.1411093E+00
          2   -1    0    0  502    0  0.00000000000E+00  0.00000000000E+00  0.14651146523E+04  0.14651146523E+04  0.00000000000E+00 0. -1.
          1   -1    0    0  501    0 -0.00000000000E+00 -0.00000000000E+00 -0.22840685199E+04  0.22840685199E+04  0.00000000000E+00 0. -1.
         25    2    1    2    0    0  0.69410517177E+02 -0.29462139178E+02  0.16957275545E+03  0.22374798581E+03  0.12498961647E+03 0.  0.
          2    1    1    2  501    0 -0.87228658609E+02 -0.31840003103E+01 -0.22558640602E+04  0.22575521333E+04  0.00000000000E+00 0. -1.
          1    1    1    2  502    0  0.17818141432E+02  0.32646139488E+02  0.12673374372E+04  0.12678830531E+04  0.00000000000E+00 0. -1.
         22    1    3    3    0    0  0.70921861967E+01 -0.64008143688E+02  0.39814503558E+02  0.75713514361E+02  0.00000000000E+00 0. -1.
         22    1    3    3    0    0  0.62318330980E+02  0.34546004510E+02  0.12975825189E+03  0.14803447145E+03  0.00000000000E+00 0. -1.
</event>
<event>
 7    1  0.6152634E-006  0.1913915E+03  0.7818608E-02  0.1193896E+00
          2   -1    0    0  502    0  0.00000000000E+00  0.00000000000E+00  0.12170249407E+04  0.12170249407E+04  0.00000000000E+00 0. -1.
          1   -1    0    0  501    0 -0.00000000000E+00 -0.00000000000E+00 -0.21158616631E+03  0.21158616631E+03  0.00000000000E+00 0. -1.
         25    2    1    2    0    0 -0.10206142701E+03 -0.29726083113E+02  0.13614943462E+03  0.21321802326E+03  0.12500032799E+03 0.  0.
          2    1    1    2  501    0  0.22835718713E+03  0.27977337551E+02 -0.90576471878E+02  0.24725257044E+03  0.00000000000E+00 0. -1.
          1    1    1    2  502    0 -0.12629576012E+03  0.17487455617E+01  0.95986581166E+03  0.96814051332E+03  0.00000000000E+00 0. -1.
         22    1    3    3    0    0 -0.47913358509E+02 -0.72429120882E+02  0.41868970726E+02  0.96408911336E+02  0.00000000000E+00 0.  1.
         22    1    3    3    0    0 -0.54148068496E+02  0.42703037769E+02  0.94280463899E+02  0.11680911193E+03  0.00000000000E+00 0.  1.
</event>
<event>
 7    1  0.6152634E-006  0.4254628E+02  0.7818608E-02  0.1493767E+00
          2   -1    0    0  502    0  0.00000000000E+00  0.00000000000E+00  0.10921943541E+04  0.10921943541E+04  0.00000000000E+00 0. -1.
          1   -1    0    0  501    0 -0.00000000000E+00 -0.00000000000E+00 -0.18643518060E+02  0.18643518060E+02  0.00000000000E+00 0. -1.
         25    2    1    2    0    0 -0.66330347881E+01  0.61012782740E+01  0.55914519006E+03  0.57301927140E+03  0.12500607616E+03 0.  0.
          2    1    1    2  501    0  0.44356103698E+02  0.11255646233E+02  0.37653839719E+02  0.59261835552E+02  0.00000000000E+00 0. -1.
          1    1    1    2  502    0 -0.37723068910E+02 -0.17356924507E+02  0.47675180631E+03  0.47855676526E+03  0.00000000000E+00 0. -1.
         22    1    3    3    0    0 -0.40496100417E+02  0.31549893143E+02  0.48434255621E+03  0.48705548109E+03  0.00000000000E+00 0.  1.
         22    1    3    3    0    0  0.33863065629E+02 -0.25448614869E+02  0.74802633850E+02  0.85963790304E+02  0.00000000000E+00 0.  1.
</event>
<event>
 7    1  0.6152634E-006  0.6022964E+02  0.7818608E-02  0.1479018E+00
          2   -1    0    0  502    0  0.00000000000E+00  0.00000000000E+00  0.20326341765E+04  0.20326341765E+04  0.00000000000E+00 0. -1.
          1   -1    0    0  501    0 -0.00000000000E+00 -0.00000000000E+00 -0.88466181332E+03  0.88466181332E+03  0.00000000000E+00 0. -1.
         25    2    1    2    0    0 -0.54796761554E+02 -0.67421423823E+02  0.92359027713E+02  0.17804953460E+03  0.12499245299E+03 0.  0.
          2    1    1    2  501    0  0.65099076165E+01  0.31865857881E+02 -0.84102838399E+03  0.84165702900E+03  0.00000000000E+00 0. -1.
          1    1    1    2  502    0  0.48286853937E+02  0.35555565942E+02  0.18966417195E+04  0.18975894262E+04  0.00000000000E+00 0. -1.
         22    1    3    3    0    0 -0.51903823609E+02 -0.42215677584E+01  0.10154576727E+03  0.11411998681E+03  0.00000000000E+00 0.  1.
         22    1    3    3    0    0 -0.28929379443E+01 -0.63199856065E+02 -0.91867395575E+01  0.63929547787E+02  0.00000000000E+00 0.  1.
</event>
<event>
 7    1  0.6152634E-006  0.2160652E+03  0.7818608E-02  0.1229462E+00
          2   -1    0    0  502    0  0.00000000000E+00  0.00000000000E+00  0.28197237239E+04  0.28197237239E+04  0.00000000000E+00 0. -1.
          1   -1    0    0  501    0 -0.00000000000E+00 -0.00000000000E+00 -0.88577802888E+02  0.88577802888E+02  0.00000000000E+00 0. -1.
         25    2    1    2    0    0  0.10832589281E+03 -0.10298717563E+03  0.12844945579E+04  0.12991893963E+04  0.12500384351E+03 0.  0.
          2    1    1    2  501    0 -0.17596095138E+03  0.13896666181E+03  0.76631908050E+02  0.23695239783E+03  0.00000000000E+00 0. -1.
          1    1    1    2  502    0  0.67635058568E+02 -0.35979486186E+02  0.13700194551E+04  0.13721597326E+04  0.00000000000E+00 0. -1.
         22    1    3    3    0    0  0.10876925586E+03 -0.60546718452E+02  0.11778391170E+04  0.11843992746E+04  0.00000000000E+00 0. -1.
         22    1    3    3    0    0 -0.44336304919E+00 -0.42440457176E+02  0.10665544091E+03  0.11479012175E+03  0.00000000000E+00 0. -1.
</event>
<event>
 7    1  0.6152634E-006  0.8452585E+02  0.7818608E-02  0.1357425E+00
          2   -1    0    0  502    0  0.00000000000E+00  0.00000000000E+00  0.70183748451E+03  0.70183748451E+03  0.00000000000E+00 0. -1.
          1   -1    0    0  501    0 -0.00000000000E+00 -0.00000000000E+00 -0.56189513028E+03  0.56189513028E+03  0.00000000000E+00 0. -1.
         25    2    1    2    0    0  0.80100766621E+02  0.11008215663E+03  0.24626252600E+02  0.18645512241E+03  0.12499938533E+03 0.  0.
          2    1    1    2  501    0 -0.16594299890E+02 -0.56917452911E+02 -0.47625790136E+03  0.47993390778E+03  0.00000000000E+00 0. -1.
          1    1    1    2  502    0 -0.63506466731E+02 -0.53164703720E+02  0.59157400299E+03  0.59734358459E+03  0.00000000000E+00 0. -1.
         22    1    3    3    0    0  0.18731443405E+02  0.10206275524E+03 -0.25449945376E+02  0.10684274753E+03  0.00000000000E+00 0. -1.
         22    1    3    3    0    0  0.61369323216E+02  0.80194013880E+01  0.50076197976E+02  0.79612374881E+02  0.00000000000E+00 0. -1.
</event>
<event>
 7    1  0.6152634E-006  0.1242233E+03  0.7818608E-02  0.1443583E+00
          2   -1    0    0  502    0  0.00000000000E+00  0.00000000000E+00  0.30999354222E+03  0.30999354222E+03  0.00000000000E+00 0. -1.
          1   -1    0    0  501    0 -0.00000000000E+00 -0.00000000000E+00 -0.60469872682E+03  0.60469872682E+03  0.00000000000E+00 0. -1.
         25    2    1    2    0    0 -0.12220257886E+03 -0.92798613359E+01 -0.22411228595E+03  0.28437845399E+03  0.12500080909E+03 0.  0.
          2    1    1    2  501    0  0.12172683042E+03  0.29663846397E+02 -0.33885621050E+03  0.36127675876E+03  0.00000000000E+00 0. -1.
          1    1    1    2  502    0  0.47574843897E+00 -0.20383985061E+02  0.26826331184E+03  0.26903705630E+03  0.00000000000E+00 0. -1.
         22    1    3    3    0    0 -0.87065367498E+02 -0.14050071886E+02 -0.39923402429E+02  0.96807338560E+02  0.00000000000E+00 0. -1.
         22    1    3    3    0    0 -0.35137211362E+02  0.47702105498E+01 -0.18418888352E+03  0.18757111543E+03  0.00000000000E+00 0. -1.
</event>
<event>
 7    1  0.6152634E-006  0.2113625E+03  0.7818608E-02  0.1277889E+00
          2   -1    0    0  502    0  0.00000000000E+00  0.00000000000E+00  0.29657563508E+03  0.29657563508E+03  0.00000000000E+00 0. -1.
          1   -1    0    0  501    0 -0.00000000000E+00 -0.00000000000E+00 -0.25392819010E+03  0.25392819010E+03  0.00000000000E+00 0. -1.
         25    2    1    2    0    0  0.11517366446E+03 -0.13614207130E+03  0.12303124385E+03  0.25012271374E+03  0.12500019361E+03 0.  0.
          2    1    1    2  501    0 -0.15753591218E+03  0.15957214723E+03 -0.10322551346E+03  0.24685287202E+03  0.00000000000E+00 0. -1.
          1    1    1    2  502    0  0.42362247720E+02 -0.23430075929E+02  0.22841714584E+02  0.53528239417E+02  0.00000000000E+00 0. -1.
         22    1    3    3    0    0  0.44750243898E+02 -0.13520160864E+02 -0.18295489241E+02  0.50200637498E+02  0.00000000000E+00 0. -1.
         22    1    3    3    0    0  0.70423420558E+02 -0.12262191044E+03  0.14132673309E+03  0.19992207624E+03  0.00000000000E+00 0. -1.
</event>
<event>
 7    1  0.6152634E-006  0.1628163E+03  0.7818608E-02  0.1227884E+00
          2   -1    0    0  502    0  0.00000000000E+00  0.00000000000E+00  0.38901036570E+02  0.38901036570E+02  0.00000000000E+00 0. -1.
          1   -1    0    0  501    0 -0.00000000000E+00 -0.00000000000E+00 -0.22813607331E+04  0.22813607331E+04  0.00000000000E+00 0. -1.
         25    2    1    2    0    0  0.47844513366E+02 -0.10730334206E+03 -0.37088484671E+03  0.40863522141E+03  0.12499627988E+03 0.  0.
          2    1    1    2  501    0  0.29723631640E+02  0.17558172021E+03 -0.17137671509E+04  0.17229945682E+04  0.00000000000E+00 0. -1.
          1    1    1    2  502    0 -0.77568145006E+02 -0.68278378150E+02 -0.15780769897E+03  0.18863198005E+03  0.00000000000E+00 0. -1.
         22    1    3    3    0    0  0.35493906321E+02 -0.70902296419E+02 -0.36007957790E+03  0.36870619122E+03  0.00000000000E+00 0.  1.
         22    1    3    3    0    0  0.12350607045E+02 -0.36401045640E+02 -0.10805268812E+02  0.39929030193E+02  0.00000000000E+00 0.  1.
</event>
<event>
 7    1  0.6152634E-006  0.9443001E+02  0.7818608E-02  0.1347766E+00
          2   -1    0    0  502    0  0.00000000000E+00  0.00000000000E+00  0.25555844407E+04  0.25555844407E+04  0.00000000000E+00 0. -1.
          1   -1    0    0  501    0 -0.00000000000E+00 -0.00000000000E+00 -0.13118944006E+03  0.13118944006E+03  0.00000000000E+00 0. -1.
         25    2    1    2    0    0 -0.13935447131E+03 -0.21932361044E+01  0.38269595694E+03  0.42603556084E+03  0.12500249870E+03 0.  0.
          2    1    1    2  501    0  0.50383535529E+02  0.27933141567E+02 -0.10087359799E+03  0.11616472710E+03  0.00000000000E+00 0. -1.
          1    1    1    2  502    0  0.88970935784E+02 -0.25739905462E+02  0.21425726417E+04  0.21445735928E+04  0.00000000000E+00 0. -1.
         22    1    3    3    0    0 -0.11914714990E+03  0.28516973098E+02  0.16638735233E+03  0.20662529395E+03  0.00000000000E+00 0.  1.
         22    1    3    3    0    0 -0.20207321411E+02 -0.30710209202E+02  0.21630860461E+03  0.21941026689E+03  0.00000000000E+00 0.  1.
</event>
<event>
 7    1  0.6152634E-006  0.1254039E+03  0.7818608E-02  0.1368610E+00
          2   -1    0    0  502    0  0.00000000000E+00  0.00000000000E+00  0.13611446122E+04  0.13611446122E+04  0.00000000000E+00 0. -1.
          1   -1    0    0  501    0 -0.00000000000E+00 -0.00000000000E+00 -0.71977528794E+02  0.71977528794E+02  0.00000000000E+00 0. -1.
         25    2    1    2    0    0 -0.74492391247E+02 -0.12287716888E+03  0.20153069688E+03  0.27728596488E+03  0.12499987820E+03 0.  0.
          2    1    1    2  501    0  0.80234505676E+02  0.86941022522E+02  0.69825912947E+02  0.13737530861E+03  0.00000000000E+00 0. -1.
          1    1    1    2  502    0 -0.57421144288E+01  0.35936146361E+02  0.10178104736E+04  0.10184608675E+04  0.00000000000E+00 0. -1.
         22    1    3    3    0    0 -0.93934929230E+02 -0.34764315831E+02  0.10252749070E+03  0.14333253272E+03  0.00000000000E+00 0. -1.
         22    1    3    3    0    0  0.19442537982E+02 -0.88112853051E+02  0.99003206172E+02  0.13395343216E+03  0.00000000000E+00 0. -1.
</event>
<event>
 7    1  0.6152634E-006  0.5938692E+02  0.7818608E-02  0.1489555E+00
          2   -1    0    0  502    0  0.00000000000E+00  0.00000000000E+00  0.10240270586E+04  0.10240270586E+04  0.00000000000E+00 0. -1.
          1   -1    0    0  501    0 -0.00000000000E+00 -0.00000000000E+00 -0.13746371895E+04  0.13746371895E+04  0.00000000000E+00 0. -1.
         25    2    1    2    0    0  0.12970302016E+02 -0.52083491735E+02  0.76135101980E+03  0.77340882326E+03  0.12499965478E+03 0.  0.
          2    1    1    2  501    0 -0.41923377555E+02  0.42078104969E+02 -0.13670469938E+04  0.13683368079E+04  0.00000000000E+00 0. -1.
          1    1    1    2  502    0  0.28953075538E+02  0.10005386767E+02  0.25508584312E+03  0.25691861690E+03  0.00000000000E+00 0. -1.
         22    1    3    3    0    0  0.25934906976E+02 -0.90925587876E+02  0.56159107582E+03  0.56949505562E+03  0.00000000000E+00 0.  1.
         22    1    3    3    0    0 -0.12964604960E+02  0.38842096141E+02  0.19975994398E+03  0.20391376764E+03  0.00000000000E+00 0.  1.
</event>
<event>
 7    1  0.6152634E-006  0.5736235E+02  0.7818608E-02  0.1414084E+00
          2   -1    0    0  502    0  0.00000000000E+00  0.00000000000E+00  0.15954178264E+04  0.15954178264E+04  0.00000000000E+00 0. -1.
          1   -1    0    0  501    0 -0.00000000000E+00 -0.00000000000E+00 -0.60549336611E+02  0.60549336611E+02  0.00000000000E+00 0. -1.
         25    2    1    2    0    0  0.42718157277E+01  0.10962827370E+02  0.87228339515E+03  0.88127284368E+03  0.12500028622E+03 0.  0.
          2    1    1    2  501    0 -0.58297151391E+02  0.56836518690E+00 -0.39511660209E+02  0.70427637982E+02  0.00000000000E+00 0. -1.
          1    1    1    2  502    0  0.54025335664E+02 -0.11531192556E+02  0.70209675486E+03  0.70426668136E+03  0.00000000000E+00 0. -1.
         22    1    3    3    0    0  0.50580658926E+02  0.39313422058E+02  0.61467268248E+03  0.61800198608E+03  0.00000000000E+00 0. -1.
         22    1    3    3    0    0 -0.46308843198E+02 -0.28350594689E+02  0.25761071268E+03  0.26327085760E+03  0.00000000000E+00 0. -1.
</event>
<event>
 7    1  0.6152634E-006  0.7612998E+02  0.7818608E-02  0.1387263E+00
          2   -1    0    0  502    0  0.00000000000E+00  0.00000000000E+00  0.58887103676E+03  0.58887103676E+03  0.00000000000E+00 0. -1.
          1   -1    0    0  501    0 -0.00000000000E+00 -0.00000000000E+00 -0.36638456416E+04  0.36638456416E+04  0.00000000000E+00 0. -1.
         25    2    1    2    0    0 -0.61385260990E+02 -0.46564466159E+02  0.22853560616E+03  0.27164115454E+03  0.12499597506E+03 0.  0.
          2    1    1    2  501    0  0.41866927223E+02 -0.29925368274E+02 -0.36375098189E+04  0.36378738364E+04  0.00000000000E+00 0. -1.
          1    1    1    2  502    0  0.19518333766E+02  0.76489834433E+02  0.33399960792E+03  0.34320168737E+03  0.00000000000E+00 0. -1.
         22    1    3    3    0    0 -0.60541629875E+02  0.14679861674E+02  0.41554532252E+02  0.74883686056E+02  0.00000000000E+00 0. -1.
         22    1    3    3    0    0 -0.84363111470E+00 -0.61244327833E+02  0.18698107391E+03  0.19675746848E+03  0.00000000000E+00 0. -1.
</event>
<event>
 7    1  0.6152634E-006  0.2504590E+02  0.7818608E-02  0.1691096E+00
          2   -1    0    0  502    0  0.00000000000E+00  0.00000000000E+00  0.22160552916E+03  0.22160552916E+03  0.00000000000E+00 0. -1.
          1   -1    0    0  501    0 -0.00000000000E+00 -0.00000000000E+00 -0.71332880910E+03  0.71332880910E+03  0.00000000000E+00 0. -1.
         25    2    1    2    0    0 -0.20486744696E+02  0.17886217788E+02  0.13910963212E+03  0.18898544526E+03  0.12499754109E+03 0.  0.
          2    1    1    2  501    0  0.56709135149E+00 -0.25048799603E+02 -0.68620823238E+03  0.68666549509E+03  0.00000000000E+00 0. -1.
          1    1    1    2  502    0  0.19919653344E+02  0.71625818151E+01  0.55375320322E+02  0.59283397915E+02  0.00000000000E+00 0. -1.
         22    1    3    3    0    0  0.27591407496E+02 -0.15243975112E+02  0.12500510405E+03  0.12891834851E+03  0.00000000000E+00 0.  1.
         22    1    3    3    0    0 -0.48078152192E+02  0.33130192900E+02  0.14104528067E+02  0.60067096748E+02  0.00000000000E+00 0.  1.
</event>
<event>
 7    1  0.6152634E-006  0.5934471E+02  0.7818608E-02  0.1520634E+00
          2   -1    0    0  502    0  0.00000000000E+00  0.00000000000E+00  0.13053467454E+03  0.13053467454E+03  0.00000000000E+00 0. -1.
          1   -1    0    0  501    0 -0.00000000000E+00 -0.00000000000E+00 -0.36380164984E+04  0.36380164984E+04  0.00000000000E+00 0. -1.
         25    2    1    2    0    0  0.56287791273E+02  0.17487481271E+02 -0.60265198575E+03  0.61829574285E+03  0.12500432896E+03 0.  0.
          2    1    1    2  501    0 -0.44658478542E+02 -0.39387747778E+02 -0.30259940767E+04  0.30265799059E+04  0.00000000000E+00 0. -1.
          1    1    1    2  502    0 -0.11629312731E+02  0.21900266507E+02  0.12116423856E+03  0.12367552423E+03  0.00000000000E+00 0. -1.
         22    1    3    3    0    0 -0.28775411228E+02  0.38754766051E+02 -0.27007444479E+03  0.27435408127E+03  0.00000000000E+00 0. -1.
         22    1    3    3    0    0  0.85063202501E+02 -0.21267284779E+02 -0.33257754096E+03  0.34394166158E+03  0.00000000000E+00 0. -1.
</event>
<event>
 7    1  0.6152634E-006  0.2339017E+03  0.7818608E-02  0.1266741E+00
          2   -1    0    0  502    0  0.00000000000E+00  0.00000000000E+00  0.66944949734E+03  0.66944949734E+03  0.00000000000E+00 0. -1.
          1   -1    0    0  501    0 -0.00000000000E+00 -0.00000000000E+00 -0.12925324686E+04  0.12925324686E+04  0.00000000000E+00 0. -1.
         25    2    1    2    0    0 -0.11922933292E+03 -0.23370834908E+03  0.69190500979E+02  0.29874367530E+03  0.12500092737E+03 0.  0.
          2    1    1    2  501    0 -0.11612550210E+02  0.47300057073E+02 -0.11505029424E+04  0.11515333982E+04  0.00000000000E+00 0. -1.
          1    1    1    2  502    0  0.13084188313E+03  0.18640829201E+03  0.45822947012E+03  0.51170489249E+03  0.00000000000E+00 0. -1.
         22    1    3    3    0    0 -0.65834518503E+00  0.11640248460E+02 -0.95793368689E+01  0.15089483008E+02  0.00000000000E+00 0.  1.
         22    1    3    3    0    0 -0.11857098774E+03 -0.24534859754E+03  0.78769837848E+02  0.28365419229E+03  0.00000000000E+00 0.  1.
</event>
<event>
 7    1  0.6152634E-006  0.3448408E+02  0.7818608E-02  0.1573974E+00
          2   -1    0    0  502    0  0.00000000000E+00  0.00000000000E+00  0.26117962896E+03  0.26117962896E+03  0.00000000000E+00 0. -1.
          1   -1    0    0  501    0 -0.00000000000E+00 -0.00000000000E+00 -0.10140174296E+03  0.10140174296E+03  0.00000000000E+00 0. -1.
         25    2    1    2    0    0 -0.29657143136E+01  0.54416553808E+02  0.29301331099E+02  0.13950945925E+03  0.12503745210E+03 0.  0.
          2    1    1    2  501    0  0.18391145925E+02 -0.24022574467E+02 -0.39475542467E+02  0.49735669147E+02  0.00000000000E+00 0. -1.
          1    1    1    2  502    0 -0.15425431612E+02 -0.30393979341E+02  0.16995209737E+03  0.17333624353E+03  0.00000000000E+00 0. -1.
         22    1    3    3    0    0 -0.11421322718E+02  0.94280868166E+02  0.14079464485E+02  0.96008124838E+02  0.00000000000E+00 0.  1.
         22    1    3    3    0    0  0.84556084043E+01 -0.39864314358E+02  0.15221866614E+02  0.43501334416E+02  0.00000000000E+00 0.  1.
</event>
<event>
 7    1  0.6152634E-006  0.7207282E+02  0.7818608E-02  0.1358648E+00
          2   -1    0    0  502    0  0.00000000000E+00  0.00000000000E+00  0.23383134261E+04  0.23383134261E+04  0.00000000000E+00 0. -1.
          1   -1    0    0  501    0 -0.00000000000E+00 -0.00000000000E+00 -0.11347713420E+04  0.11347713420E+04  0.00000000000E+00 0. -1.
         25    2    1    2    0    0 -0.15959656339E+02 -0.75334782464E+01  0.14120714206E+04  0.14177029030E+04  0.12499744084E+03 0.  0.
          2    1    1    2  501    0  0.49245525131E+02 -0.52699024361E+02 -0.11295215770E+04  0.11318221158E+04  0.00000000000E+00 0. -1.
          1    1    1    2  502    0 -0.33285868792E+02  0.60232502607E+02  0.92099224050E+03  0.92355974928E+03  0.00000000000E+00 0. -1.
         22    1    3    3    0    0 -0.62713537190E+02  0.17865101997E+02  0.10135187833E+04  0.10156143332E+04  0.00000000000E+00 0.  1.
         22    1    3    3    0    0  0.46753880852E+02 -0.25398580244E+02  0.39855263731E+03  0.40208856980E+03  0.00000000000E+00 0.  1.
</event>
<event>
 7    1  0.6152634E-006  0.7133806E+02  0.7818608E-02  0.1378171E+00
          2   -1    0    0  502    0  0.00000000000E+00  0.00000000000E+00  0.70723880270E+02  0.70723880270E+02  0.00000000000E+00 0. -1.
          1   -1    0    0  501    0 -0.00000000000E+00 -0.00000000000E+00 -0.60391470565E+03  0.60391470565E+03  0.00000000000E+00 0. -1.
         25    2    1    2    0    0  0.21159880205E+02  0.15345681742E+02 -0.31269823213E+03  0.33776945423E+03  0.12499915741E+03 0.  0.
          2    1    1    2  501    0  0.41201477057E+01 -0.82054291455E+02 -0.24735415009E+03  0.26064143556E+03  0.00000000000E+00 0. -1.
          1    1    1    2  502    0 -0.25280027910E+02  0.66708609713E+02  0.26861556846E+02  0.76227696130E+02  0.00000000000E+00 0. -1.
         22    1    3    3    0    0 -0.34091306415E+02  0.21475145264E+02 -0.25303250182E+03  0.25622030757E+03  0.00000000000E+00 0. -1.
         22    1    3    3    0    0  0.55251186620E+02 -0.61294635218E+01 -0.59665730315E+02  0.81549146654E+02  0.00000000000E+00 0. -1.
</event>
<event>
 7    1  0.6152634E-006  0.5461392E+02  0.7818608E-02  0.1438846E+00
          2   -1    0    0  502    0  0.00000000000E+00  0.00000000000E+00  0.14662992371E+04  0.14662992371E+04  0.00000000000E+00 0. -1.
          1   -1    0    0  501    0 -0.00000000000E+00 -0.00000000000E+00 -0.80270423831E+02  0.80270423831E+02  0.00000000000E+00 0. -1.
         25    2    1    2    0    0  0.22013902087E+02  0.38740198733E+01  0.84292833643E+03  0.85243941042E+03  0.12500059264E+03 0.  0.
          2    1    1    2  501    0 -0.75518649418E+01  0.54089274302E+02 -0.63978737724E+02  0.84118720505E+02  0.00000000000E+00 0. -1.
          1    1    1    2  502    0 -0.14462037145E+02 -0.57963294175E+02  0.60707921457E+03  0.61001153002E+03  0.00000000000E+00 0. -1.
         22    1    3    3    0    0 -0.49033688074E+02  0.76993472356E+01  0.22390225646E+03  0.22933774866E+03  0.00000000000E+00 0.  1.
         22    1    3    3    0    0  0.71047590161E+02 -0.38253273623E+01  0.61902607998E+03  0.62310166176E+03  0.00000000000E+00 0.  1.
</event>
<event>
 7    1  0.6152634E-006  0.7106109E+02  0.7818608E-02  0.1402479E+00
          2   -1    0    0  502    0  0.00000000000E+00  0.00000000000E+00  0.44561489532E+03  0.44561489532E+03  0.00000000000E+00 0. -1.
          1   -1    0    0  501    0 -0.00000000000E+00 -0.00000000000E+00 -0.55280619798E+03  0.55280619798E+03  0.00000000000E+00 0. -1.
         25    2    1    2    0    0  0.60406119900E+01 -0.69012818515E+02 -0.72339028255E+00  0.14291764328E+03  0.12500268539E+03 0.  0.
          2    1    1    2  501    0 -0.47709966436E+02  0.10402890405E+02 -0.47627370654E+03  0.47877040903E+03  0.00000000000E+00 0. -1.
          1    1    1    2  502    0  0.41669354446E+02  0.58609928110E+02  0.36980579416E+03  0.37673304098E+03  0.00000000000E+00 0. -1.
         22    1    3    3    0    0  0.28053569074E+02 -0.97642664160E+01  0.52478239362E+02  0.60301817908E+02  0.00000000000E+00 0. -1.
         22    1    3    3    0    0 -0.22012957084E+02 -0.59248552099E+02 -0.53201629645E+02  0.82615825375E+02  0.00000000000E+00 0. -1.
</event>
<event>
 7    1  0.6152634E-006  0.2563965E+02  0.7818608E-02  0.1659975E+00
          2   -1    0    0  502    0  0.00000000000E+00  0.00000000000E+00  0.11607779206E+04  0.11607779206E+04  0.00000000000E+00 0. -1.
          1   -1    0    0  501    0 -0.00000000000E+00 -0.00000000000E+00 -0.10172872951E+04  0.10172872951E+04  0.00000000000E+00 0. -1.
         25    2    1    2    0    0 -0.82714389514E+01  0.27861070752E+02  0.85421530109E+02  0.15416484426E+03  0.12500122173E+03 0.  0.
          2    1    1    2  501    0  0.23450042026E+02 -0.71512886378E+01 -0.98260438493E+03  0.98291018038E+03  0.00000000000E+00 0. -1.
          1    1    1    2  502    0 -0.15178603075E+02 -0.20709782115E+02  0.10406734804E+04  0.10409901910E+04  0.00000000000E+00 0. -1.
         22    1    3    3    0    0  0.23237773776E+02 -0.37947414329E+02  0.37596950287E+01  0.44655746450E+02  0.00000000000E+00 0.  1.
         22    1    3    3    0    0 -0.31509212728E+02  0.65808485081E+02  0.81661835081E+02  0.10950909781E+03  0.00000000000E+00 0.  1.
</event>
<event>
 7    1  0.6152634E-006  0.2303586E+03  0.7818608E-02  0.1172341E+00
          2   -1    0    0  502    0  0.00000000000E+00  0.00000000000E+00  0.27627470553E+04  0.27627470553E+04  0.00000000000E+00 0. -1.
          1   -1    0    0  501    0 -0.00000000000E+00 -0.00000000000E+00 -0.22584355006E+03  0.22584355006E+03  0.00000000000E+00 0. -1.
         25    2    1    2    0    0  0.30586595518E+03  0.37268745303E+02  0.39573573667E+03  0.51688965309E+03  0.12500079310E+03 0.  0.
          2    1    1    2  501    0 -0.89352639434E+02 -0.99239270985E+02 -0.13178670827E+03  0.18761679977E+03  0.00000000000E+00 0. -1.
          1    1    1    2  502    0 -0.21651331575E+03  0.61970525682E+02  0.22729544768E+04  0.22840841525E+04  0.00000000000E+00 0. -1.
         22    1    3    3    0    0 -0.57459372002E+01  0.52530726720E+01  0.48970849928E+02  0.49585831742E+02  0.00000000000E+00 0. -1.
         22    1    3    3    0    0  0.31161189238E+03  0.32015672631E+02  0.34676488674E+03  0.46730382135E+03  0.00000000000E+00 0. -1.
</event>
<event>
 7    1  0.6152634E-006  0.1092030E+03  0.7818608E-02  0.1436602E+00
          2   -1    0    0  502    0  0.00000000000E+00  0.00000000000E+00  0.21870094986E+03  0.21870094986E+03  0.00000000000E+00 0. -1.
          1   -1    0    0  501    0 -0.00000000000E+00 -0.00000000000E+00 -0.16199632210E+04  0.16199632210E+04  0.00000000000E+00 0. -1.
         25    2    1    2    0    0  0.92454696273E+02 -0.12451198685E+02 -0.22256935962E+03  0.27178069737E+03  0.12499889765E+03 0.  0.
          2    1    1    2  501    0 -0.10574264565E+03  0.32958344664E+02 -0.13697747720E+04  0.13742454969E+04  0.00000000000E+00 0. -1.
          1    1    1    2  502    0  0.13287949379E+02 -0.20507145979E+02  0.19108186048E+03  0.19263797663E+03  0.00000000000E+00 0. -1.
         22    1    3    3    0    0  0.62117869987E+02  0.17541238611E+02 -0.24293273504E+02  0.68967296317E+02  0.00000000000E+00 0.  1.
         22    1    3    3    0    0  0.30336826285E+02 -0.29992437297E+02 -0.19827608611E+03  0.20281340106E+03  0.00000000000E+00 0.  1.
</event>
<event>
 7    1  0.6152634E-006  0.3729978E+02  0.7818608E-02  0.1587783E+00
          2   -1    0    0  502    0  0.00000000000E+00  0.00000000000E+00  0.11689107230E+04  0.11689107230E+04  0.00000000000E+00 0. -1.
          1   -1    0    0  501    0 -0.00000000000E+00 -0.00000000000E+00 -0.23677529740E+02  0.23677529740E+02  0.00000000000E+00 0. -1.
         25    2    1    2    0    0  0.10773824352E+01  0.15018900782E+02  0.25861114657E+03  0.28761818565E+03  0.12497106647E+03 0.  0.
          2    1    1    2  501    0  0.19136123488E+02  0.17135367332E+02  0.10061438655E+02  0.27587036513E+02  0.00000000000E+00 0. -1.
          1    1    1    2  502    0 -0.20213505923E+02 -0.32154268114E+02  0.87656060800E+03  0.87738303054E+03  0.00000000000E+00 0. -1.
         22    1    3    3    0    0  0.22804279126E+02  0.61390003172E+02  0.19646221960E+03  0.20708976645E+03  0.00000000000E+00 0. -1.
         22    1    3    3    0    0 -0.21726896691E+02 -0.46371102391E+02  0.62148926964E+02  0.80528419204E+02  0.00000000000E+00 0. -1.
</event>
<event>
 7    1  0.6152634E-006  0.5902309E+02  0.7818608E-02  0.1451794E+00
          2   -1    0    0  502    0  0.00000000000E+00  0.00000000000E+00  0.15930781479E+04  0.15930781479E+04  0.00000000000E+00 0. -1.
          1   -1    0    0  501    0 -0.00000000000E+00 -0.00000000000E+00 -0.21065845455E+03  0.21065845455E+03  0.00000000000E+00 0. -1.
         25    2    1    2    0    0  0.64198771299E+02 -0.74206701759E+02  0.82067415223E+02  0.17885253547E+03  0.12500020792E+03 0.  0.
          2    1    1    2  501    0 -0.30825473401E+02  0.26092699050E+02 -0.15915678579E+03  0.16420085632E+03  0.00000000000E+00 0. -1.
          1    1    1    2  502    0 -0.33373297898E+02  0.48114002709E+02  0.14595090639E+04  0.14606832107E+04  0.00000000000E+00 0. -1.
         22    1    3    3    0    0 -0.32754407166E+02 -0.39009400999E+02  0.48630462873E+02  0.70423763563E+02  0.00000000000E+00 0. -1.
         22    1    3    3    0    0  0.96953178465E+02 -0.35197300760E+02  0.33436952351E+02  0.10842877191E+03  0.00000000000E+00 0. -1.
</event>
<event>
 7    1  0.6152634E-006  0.1202261E+03  0.7818608E-02  0.1354616E+00
          2   -1    0    0  502    0  0.00000000000E+00  0.00000000000E+00  0.15175462636E+04  0.15175462636E+04  0.00000000000E+00 0. -1.
          1   -1    0    0  501    0 -0.00000000000E+00 -0.00000000000E+00 -0.87418102906E+03  0.87418102906E+03  0.00000000000E+00 0. -1.
         25    2    1    2    0    0  0.85079836622E+02 -0.11551077338E+03 -0.43951121120E+03  0.47893307530E+03  0.12500187391E+03 0.  0.
          2    1    1    2  501    0 -0.85415873053E+02  0.72828021696E+02 -0.40705665817E+03  0.42224982542E+03  0.00000000000E+00 0. -1.
          1    1    1    2  502    0  0.33603643167E+00  0.42682751682E+02  0.14899331039E+04  0.14905443919E+04  0.00000000000E+00 0. -1.
         22    1    3    3    0    0 -0.27141891150E+02 -0.33988314043E+02 -0.54694938891E+02  0.69881500320E+02  0.00000000000E+00 0. -1.
         22    1    3    3    0    0  0.11222172777E+03 -0.81522459336E+02 -0.38481627231E+03  0.40905157498E+03  0.00000000000E+00 0. -1.
</event>
<event>
 7    1  0.6152634E-006  0.6520785E+02  0.7818608E-02  0.1453252E+00
          2   -1    0    0  502    0  0.00000000000E+00  0.00000000000E+00  0.72234864513E+03  0.72234864513E+03  0.00000000000E+00 0. -1.
          1   -1    0    0  501    0 -0.00000000000E+00 -0.00000000000E+00 -0.31000759479E+03  0.31000759479E+03  0.00000000000E+00 0. -1.
         25    2    1    2    0    0  0.95227801554E+02  0.20045149864E+02  0.31032447928E+03  0.34841717009E+03  0.12499239877E+03 0.  0.
          2    1    1    2  501    0 -0.35631635408E+02 -0.61969905327E+01 -0.28743970627E+03  0.28970605944E+03  0.00000000000E+00 0. -1.
          1    1    1    2  502    0 -0.59596166146E+02 -0.13848159332E+02  0.38945627733E+03  0.39423301040E+03  0.00000000000E+00 0. -1.
         22    1    3    3    0    0  0.10595047675E+03  0.33739880058E+02  0.31172984959E+03  0.33096734303E+03  0.00000000000E+00 0. -1.
         22    1    3    3    0    0 -0.10722675199E+02 -0.13694730194E+02 -0.14053703109E+01  0.17449827054E+02  0.00000000000E+00 0. -1.
</event>
<event>
 7    1  0.6152634E-006  0.1374384E+03  0.7818608E-02  0.1238041E+00
          2   -1    0    0  502    0  0.00000000000E+00  0.00000000000E+00  0.23875904542E+04  0.23875904542E+04  0.00000000000E+00 0. -1.
          1   -1    0    0  501    0 -0.00000000000E+00 -0.00000000000E+00 -0.10738797467E+04  0.10738797467E+04  0.00000000000E+00 0. -1.
         25    2    1    2    0    0 -0.63435094418E+02  0.48902831863E+02  0.34267199014E+03  0.37345020944E+03  0.12500187171E+03 0.  0.
          2    1    1    2  501    0 -0.79121237299E+00 -0.13856123933E+03 -0.10524477787E+04  0.10615301078E+04  0.00000000000E+00 0. -1.
          1    1    1    2  502    0  0.64226306791E+02  0.89658407467E+02  0.20234864961E+04  0.20264898836E+04  0.00000000000E+00 0. -1.
         22    1    3    3    0    0  0.30932064968E+02 -0.15056927545E+02  0.83986755249E+02  0.90759455527E+02  0.00000000000E+00 0. -1.
         22    1    3    3    0    0 -0.94367159386E+02  0.63959759408E+02  0.25868523489E+03  0.28269075391E+03  0.00000000000E+00 0. -1.
</event>
<event>
 7    1  0.6152634E-006  0.1050837E+03  0.7818608E-02  0.1379657E+00
          2   -1    0    0  502    0  0.00000000000E+00  0.00000000000E+00  0.32694884148E+03  0.32694884148E+03  0.00000000000E+00 0. -1.
          1   -1    0    0  501    0 -0.00000000000E+00 -0.00000000000E+00 -0.13616558788E+04  0.13616558788E+04  0.00000000000E+00 0. -1.
         25    2    1    2    0    0 -0.49234321614E+02 -0.13548067894E+03  0.23841187827E+03  0.30536059386E+03  0.12500334313E+03 0.  0.
          2    1    1    2  501    0  0.39616206028E+02  0.97008481730E+02 -0.13186829412E+04  0.13228396685E+04  0.00000000000E+00 0. -1.
          1    1    1    2  502    0  0.96181155866E+01  0.38472197205E+02  0.45564025585E+02  0.60404457889E+02  0.00000000000E+00 0. -1.
         22    1    3    3    0    0 -0.35019357646E+02 -0.15766957306E+03  0.22118568400E+03  0.27387799562E+03  0.00000000000E+00 0. -1.
         22    1    3    3    0    0 -0.14214963969E+02  0.22188894123E+02  0.17226194264E+02  0.31482598238E+02  0.00000000000E+00 0. -1.
</event>
<event>
 7    1  0.6152634E-006  0.2260174E+03  0.7818608E-02  0.1259075E+00
          2   -1    0    0  502    0  0.00000000000E+00  0.00000000000E+00  0.14338193021E+04  0.14338193021E+04  0.00000000000E+00 0. -1.
          1   -1    0    0  501    0 -0.00000000000E+00 -0.00000000000E+00 -0.14335048427E+04  0.14335048427E+04  0.00000000000E+00 0. -1.
         25    2    1    2    0    0  0.63622908075E+02  0.25783571375E+03 -0.79243603170E+03  0.84504848324E+03  0.12499977991E+03 0.  0.
          2    1    1    2  501    0 -0.43031447851E+02 -0.33164278556E+02 -0.60449553880E+03  0.60693198243E+03  0.00000000000E+00 0. -1.
          1    1    1    2  502    0 -0.20591460225E+02 -0.22467143520E+03  0.13972460299E+04  0.14153436791E+04  0.00000000000E+00 0. -1.
         22    1    3    3    0    0  0.10168789976E+03  0.19687058948E+03 -0.60575377905E+03  0.64500860365E+03  0.00000000000E+00 0. -1.
         22    1    3    3    0    0 -0.38064991690E+02  0.60965124279E+02 -0.18668225265E+03  0.20003987959E+03  0.00000000000E+00 0. -1.
</event>
<event>
 7    1  0.6152634E-006  0.1232115E+03  0.7818608E-02  0.1274338E+00
          2   -1    0    0  502    0  0.00000000000E+00  0.00000000000E+00  0.12885264345E+04  0.12885264345E+04  0.00000000000E+00 0. -1.
          1   -1    0    0  501    0 -0.00000000000E+00 -0.00000000000E+00 -0.45433457648E+03  0.45433457648E+03  0.00000000000E+00 0. -1.
         25    2    1    2    0    0 -0.33701923960E+02 -0.51392221391E+02  0.20051550719E+02  0.14072694776E+03  0.12500011617E+03 0.  0.
          2    1    1    2  501    0  0.63538753031E+01  0.13283974125E+03 -0.38118827171E+03  0.40372176938E+03  0.00000000000E+00 0. -1.
          1    1    1    2  502    0  0.27348048657E+02 -0.81447519859E+02  0.11953285790E+04  0.11984122939E+04  0.00000000000E+00 0. -1.
         22    1    3    3    0    0  0.30907412787E+01  0.20072788171E+02  0.50766629989E+02  0.54678334165E+02  0.00000000000E+00 0. -1.
         22    1    3    3    0    0 -0.36792665239E+02 -0.71465009561E+02 -0.30715079271E+02  0.86048613595E+02  0.00000000000E+00 0. -1.
</event>
<event>
 7    1  0.6152634E-006  0.7269032E+02  0.7818608E-02  0.1471579E+00
          2   -1    0    0  502    0  0.00000000000E+00  0.00000000000E+00  0.60855943047E+03  0.60855943047E+03  0.00000000000E+00 0. -1.
          1   -1    0    0  501    0 -0.00000000000E+00 -0.00000000000E+00 -0.15101371784E+04  0.15101371784E+04  0.00000000000E+00 0. -1.
         25    2    1    2    0    0 -0.66536331485E+02 -0.56007129018E+02  0.20088035413E+03  0.25207341364E+03  0.12499682909E+03 0.  0.
          2    1    1    2  501    0  0.38661750481E+02  0.61508997430E+02 -0.14831220584E+04  0.14849003764E+04  0.00000000000E+00 0. -1.
          1    1    1    2  502    0  0.27874581004E+02 -0.55018684119E+01  0.38066395630E+03  0.38172281888E+03  0.00000000000E+00 0. -1.
         22    1    3    3    0    0 -0.21806523995E+02  0.28156240999E+02  0.12579507547E+03  0.13073905082E+03  0.00000000000E+00 0.  1.
         22    1    3    3    0    0 -0.44729807490E+02 -0.84163370017E+02  0.75085278657E+02  0.12133436282E+03  0.00000000000E+00 0.  1.
</event>
<event>
 7    1  0.6152634E-006  0.9493414E+02  0.7818608E-02  0.1341565E+00
          2   -1    0    0  502    0  0.00000000000E+00  0.00000000000E+00  0.13997905952E+04  0.13997905952E+04  0.00000000000E+00 0. -1.
          1   -1    0    0  501    0 -0.00000000000E+00 -0.00000000000E+00 -0.25895087606E+02  0.25895087606E+02  0.00000000000E+00 0. -1.
         25    2    1    2    0    0 -0.33108173153E+02  0.50095962845E+02  0.56426391770E+03  0.58105526377E+03  0.12500277642E+03 0.  0.
          2    1    1    2  501    0 -0.57161394552E+02  0.19642599702E+02  0.55942244082E+02  0.82357704091E+02  0.00000000000E+00 0. -1.
          1    1    1    2  502    0  0.90269567706E+02 -0.69738562547E+02  0.75368934580E+03  0.76227271494E+03  0.00000000000E+00 0. -1.
         22    1    3    3    0    0  0.14596014465E+02  0.16493430248E+02  0.10810812095E+02  0.24534680307E+02  0.00000000000E+00 0. -1.
         22    1    3    3    0    0 -0.47704187618E+02  0.33602532597E+02  0.55345310560E+03  0.55652058346E+03  0.00000000000E+00 0. -1.
</event>
<event>
 7    1  0.6152634E-006  0.3233894E+03  0.7818608E-02  0.1220635E+00
          2   -1    0    0  502    0  0.00000000000E+00  0.00000000000E+00  0.10609209217E+04  0.10609209217E+04  0.00000000000E+00 0. -1.
          1   -1    0    0  501    0 -0.00000000000E+00 -0.00000000000E+00 -0.48347722877E+03  0.48347722877E+03  0.00000000000E+00 0. -1.
         25    2    1    2    0    0  0.10210648147E+03 -0.35827859315E+03 -0.33248183734E+02  0.39436061803E+03  0.12500228584E+03 0.  0.
          2    1    1    2  501    0 -0.21119708233E+02  0.51984774203E+02 -0.23779778982E+03  0.24432815570E+03  0.00000000000E+00 0. -1.
          1    1    1    2  502    0 -0.80986773235E+02  0.30629381895E+03  0.84848966648E+03  0.90570937672E+03  0.00000000000E+00 0. -1.
         22    1    3    3    0    0  0.62384097132E+02 -0.70750056803E+02  0.26580547672E+02  0.97999345034E+02  0.00000000000E+00 0.  1.
         22    1    3    3    0    0  0.39722384337E+02 -0.28752853635E+03 -0.59828731406E+02  0.29636127300E+03  0.00000000000E+00 0.  1.
</event>
<event>
 7    1  0.6152634E-006  0.4989314E+02  0.7818608E-02  0.1486018E+00
          2   -1    0    0  502    0  0.00000000000E+00  0.00000000000E+00  0.12163370018E+04  0.12163370018E+04  0.00000000000E+00 0. -1.
          1   -1    0    0  501    0 -0.00000000000E+00 -0.00000000000E+00 -0.33068077639E+03  0.33068077639E+03  0.00000000000E+00 0. -1.
         25    2    1    2    0    0  0.61149976378E+02  0.32359468265E+02  0.74807627762E+03  0.76159208256E+03  0.12497170998E+03 0.  0.
          2    1    1    2  501    0 -0.49764777624E+02  0.32385864967E+01 -0.32123905555E+03  0.32508699196E+03  0.00000000000E+00 0. -1.
          1    1    1    2  502    0 -0.11385198754E+02 -0.35598054762E+02  0.45881900335E+03  0.46033870366E+03  0.00000000000E+00 0. -1.
         22    1    3    3    0    0 -0.10509266595E+02  0.49950312022E+02  0.50474456681E+03  0.50731898849E+03  0.00000000000E+00 0.  1.
         22    1    3    3    0    0  0.71659242972E+02 -0.17590843757E+02  0.24333171080E+03  0.25427309408E+03  0.00000000000E+00 0.  1.
</event>
<event>
 7    1  0.6152634E-006  0.2151760E+03  0.7818608E-02  0.1186313E+00
          2   -1    0    0  502    0  0.00000000000E+00  0.00000000000E+00  0.57848518614E+03  0.57848518614E+03  0.00000000000E+00 0. -1.
          1   -1    0    0  501    0 -0.00000000000E+00 -0.00000000000E+00 -0.31597056297E+03  0.31597056297E+03  0.00000000000E+00 0. -1.
         25    2    1    2    0    0 -0.80961097101E+02 -0.25713887315E+03 -0.32927352719E+02  0.29897174964E+03  0.12499918881E+03 0.  0.
          2    1    1    2  501    0 -0.23217042802E+02  0.19334075167E+03 -0.72503444283E+02  0.20778938078E+03  0.00000000000E+00 0. -1.
          1    1    1    2  502    0  0.10417813990E+03  0.63798121477E+02  0.36794542017E+03  0.38769461869E+03  0.00000000000E+00 0. -1.
         22    1    3    3    0    0 -0.55578079031E+01 -0.96112474795E+01  0.30581267655E+02  0.32534277896E+02  0.00000000000E+00 0.  1.
         22    1    3    3    0    0 -0.75403289198E+02 -0.24752762567E+03 -0.63508620375E+02  0.26643747175E+03  0.00000000000E+00 0.  1.
</event>
<event>
 7    1  0.6152634E-006  0.1200413E+03  0.7818608E-02  0.1269531E+00
          2   -1    0    0  502    0  0.00000000000E+00  0.00000000000E+00  0.90747899957E+03  0.90747899957E+03  0.00000000000E+00 0. -1.
          1   -1    0    0  501    0 -0.00000000000E+00 -0.00000000000E+00 -0.41620350262E+03  0.41620350262E+03  0.00000000000E+00 0. -1.
         25    2    1    2    0    0 -0.75357244482E+02 -0.14842427035E+03  0.27757654797E+03  0.34695909949E+03  0.12499359348E+03 0.  0.
          2    1    1    2  501    0 -0.12128451158E+02  0.11879079229E+03 -0.36843761451E+03  0.38730430859E+03  0.00000000000E+00 0. -1.
          1    1    1    2  502    0  0.87485695639E+02  0.29633478059E+02  0.58213656350E+03  0.58941909413E+03  0.00000000000E+00 0. -1.
         22    1    3    3    0    0 -0.39361734160E+02 -0.41920724313E+02  0.20555269583E+03  0.21344461579E+03  0.00000000000E+00 0. -1.
         22    1    3    3    0    0 -0.35995510322E+02 -0.10650354604E+03  0.72023852132E+02  0.13351448370E+03  0.00000000000E+00 0. -1.
</event>
<event>
 7    1  0.6152634E-006  0.5116096E+02  0.7818608E-02  0.1527446E+00
          2   -1    0    0  502    0  0.00000000000E+00  0.00000000000E+00  0.32729398324E+04  0.32729398324E+04  0.00000000000E+00 0. -1.
          1   -1    0    0  501    0 -0.00000000000E+00 -0.00000000000E+00 -0.33071377537E+02  0.33071377537E+02  0.00000000000E+00 0. -1.
         25    2    1    2    0    0 -0.29198959421E+02  0.14965165878E+02  0.23636864672E+03  0.26939268094E+03  0.12500297584E+03 0.  0.
          2    1    1    2  501    0 -0.22245317171E+02 -0.16149096394E+02 -0.47775322906E+01  0.27901115841E+02  0.00000000000E+00 0. -1.
          1    1    1    2  502    0  0.51444276592E+02  0.11839305152E+01  0.30082773405E+04  0.30087174132E+04  0.00000000000E+00 0. -1.
         22    1    3    3    0    0  0.35844977039E+02  0.41220688834E+02  0.69627410551E+02  0.88498496410E+02  0.00000000000E+00 0. -1.
         22    1    3    3    0    0 -0.65043936460E+02 -0.26255522956E+02  0.16674123617E+03  0.18089418453E+03  0.00000000000E+00 0. -1.
</event>
<event>
 7    1  0.6152634E-006  0.1383672E+03  0.7818608E-02  0.1322059E+00
          2   -1    0    0  502    0  0.00000000000E+00  0.00000000000E+00  0.27040435526E+04  0.27040435526E+04  0.00000000000E+00 0. -1.
          1   -1    0    0  501    0 -0.00000000000E+00 -0.00000000000E+00 -0.14917443541E+02  0.14917443541E+02  0.00000000000E+00 0. -1.
         25    2    1    2    0    0  0.10122693297E+03  0.25211631126E+02  0.76691303617E+03  0.78400538767E+03  0.12500529804E+03 0.  0.
          2    1    1    2  501    0  0.41552086503E+02  0.26361534521E+02  0.19610398626E+03  0.20218377735E+03  0.00000000000E+00 0. -1.
          1    1    1    2  502    0 -0.14277901947E+03 -0.51573165646E+02  0.17261090866E+04  0.17327718311E+04  0.00000000000E+00 0. -1.
         22    1    3    3    0    0  0.81951527455E+02 -0.30122829365E+02  0.27284545557E+03  0.28647527001E+03  0.00000000000E+00 0.  1.
         22    1    3    3    0    0  0.19275405513E+02  0.55334460490E+02  0.49406758060E+03  0.49753011766E+03  0.00000000000E+00 0.  1.
</event>
<event>
 7    1  0.6152634E-006  0.7531399E+02  0.7818608E-02  0.1350433E+00
          2   -1    0    0  502    0  0.00000000000E+00  0.00000000000E+00  0.57674631574E+02  0.57674631574E+02  0.00000000000E+00 0. -1.
          1   -1    0    0  501    0 -0.00000000000E+00 -0.00000000000E+00 -0.20576757070E+04  0.20576757070E+04  0.00000000000E+00 0. -1.
         25    2    1    2    0    0  0.23607725330E+02 -0.10894614274E+03 -0.10622830295E+04  0.10754054222E+04  0.12500000193E+03 0.  0.
          2    1    1    2  501    0 -0.56921091669E+02  0.41772301908E+02 -0.95931986134E+03  0.96191451400E+03  0.00000000000E+00 0. -1.
          1    1    1    2  502    0  0.33313366339E+02  0.67173840828E+02  0.21601815449E+02  0.78030402402E+02  0.00000000000E+00 0. -1.
         22    1    3    3    0    0  0.16771974409E+02  0.26521720287E+02 -0.23279191599E+03  0.23489737530E+03  0.00000000000E+00 0. -1.
         22    1    3    3    0    0  0.68357509204E+01 -0.13546786302E+03 -0.82949111353E+03  0.84050804686E+03  0.00000000000E+00 0. -1.
</event>
<event>
 7    1  0.6152634E-006  0.4623793E+02  0.7818608E-02  0.1502902E+00
          2   -1    0    0  502    0  0.00000000000E+00  0.00000000000E+00  0.31476377280E+03  0.31476377280E+03  0.00000000000E+00 0. -1.
          1   -1    0    0  501    0 -0.00000000000E+00 -0.00000000000E+00 -0.15409981964E+04  0.15409981964E+04  0.00000000000E+00 0. -1.
         25    2    1    2    0    0  0.51667154881E+01  0.35344997234E+02 -0.65412331577E+03  0.66691947489E+03  0.12501323916E+03 0.  0.
          2    1    1    2  501    0 -0.35872678844E+02 -0.69325667219E+00 -0.87837061908E+03  0.87910310781E+03  0.00000000000E+00 0. -1.
          1    1    1    2  502    0  0.30705963356E+02 -0.34651740562E+02  0.30625951127E+03  0.30973938650E+03  0.00000000000E+00 0. -1.
         22    1    3    3    0    0 -0.40350095625E+02  0.22993122565E+02 -0.55718332192E+03  0.55911543363E+03  0.00000000000E+00 0.  1.
         22    1    3    3    0    0  0.45516811113E+02  0.12351874669E+02 -0.96939993855E+02  0.10780404125E+03  0.00000000000E+00 0.  1.
</event>
<event>
 7    1  0.6152634E-006  0.6836145E+02  0.7818608E-02  0.1437040E+00
          2   -1    0    0  502    0  0.00000000000E+00  0.00000000000E+00  0.66378128484E+03  0.66378128484E+03  0.00000000000E+00 0. -1.
          1   -1    0    0  501    0 -0.00000000000E+00 -0.00000000000E+00 -0.15626355775E+04  0.15626355775E+04  0.00000000000E+00 0. -1.
         25    2    1    2    0    0  0.86513837753E+02 -0.46558942868E+02 -0.87953394925E+03  0.89378959256E+03  0.12500995403E+03 0.  0.
          2    1    1    2  501    0 -0.38835089957E+02 -0.23600693041E+01 -0.67363441726E+03  0.67475703942E+03  0.00000000000E+00 0. -1.
          1    1    1    2  502    0 -0.47678747797E+02  0.48919012172E+02  0.65431407385E+03  0.65787023035E+03  0.00000000000E+00 0. -1.
         22    1    3    3    0    0  0.10009264431E+03  0.51385524056E+01 -0.67437993868E+03  0.68178680235E+03  0.00000000000E+00 0.  1.
         22    1    3    3    0    0 -0.13578806554E+02 -0.51697495274E+02 -0.20515401057E+03  0.21200279021E+03  0.00000000000E+00 0.  1.
</event>
<event>
 7    1  0.6152634E-006  0.1168546E+03  0.7818608E-02  0.1314495E+00
          2   -1    0    0  502    0  0.00000000000E+00  0.00000000000E+00  0.18586550795E+04  0.18586550795E+04  0.00000000000E+00 0. -1.
          1   -1    0    0  501    0 -0.00000000000E+00 -0.00000000000E+00 -0.47846556061E+02  0.47846556061E+02  0.00000000000E+00 0. -1.
         25    2    1    2    0    0 -0.83313308925E+01  0.15601541441E+03  0.67168195988E+03  0.70085089999E+03  0.12500043273E+03 0.  0.
          2    1    1    2  501    0 -0.32696117128E+02 -0.53092923048E+02  0.12223202854E+01  0.62364963079E+02  0.00000000000E+00 0. -1.
          1    1    1    2  502    0  0.41027448020E+02 -0.10292249136E+03  0.11379042433E+04  0.11432857725E+04  0.00000000000E+00 0. -1.
         22    1    3    3    0    0  0.49785612040E+02  0.63217362204E+02  0.18068379552E+03  0.19779200189E+03  0.00000000000E+00 0. -1.
         22    1    3    3    0    0 -0.58116942932E+02  0.92798052205E+02  0.49099816436E+03  0.50305889810E+03  0.00000000000E+00 0. -1.
</event>
<event>
 7    1  0.6152634E-006  0.5445516E+02  0.7818608E-02  0.1478953E+00
          2   -1    0    0  502    0  0.00000000000E+00  0.00000000000E+00  0.16358257760E+03  0.16358257760E+03  0.00000000000E+00 0. -1.
          1   -1    0    0  501    0 -0.00000000000E+00 -0.00000000000E+00 -0.44645799144E+03  0.44645799144E+03  0.00000000000E+00 0. -1.
         25    2    1    2    0    0  0.10463097605E+02  0.88003439056E+02 -0.93583263347E+02  0.17954333666E+03  0.12499560338E+03 0.  0.
          2    1    1    2  501    0 -0.51327791734E+01 -0.52410932789E+02 -0.30490136725E+03  0.30941573174E+03  0.00000000000E+00 0. -1.
          1    1    1    2  502    0 -0.53303184317E+01 -0.35592506267E+02  0.11560921676E+03  0.12108150064E+03  0.00000000000E+00 0. -1.
         22    1    3    3    0    0 -0.46895034225E+02 -0.14958159282E+01 -0.28017623182E+02  0.54647679814E+02  0.00000000000E+00 0. -1.
         22    1    3    3    0    0  0.57358131830E+02  0.89499254984E+02 -0.65565640165E+02  0.12489565685E+03  0.00000000000E+00 0. -1.
</event>
<event>
 7    1  0.6152634E-006  0.5213054E+02  0.7818608E-02  0.1470735E+00
          2   -1    0    0  502    0  0.00000000000E+00  0.00000000000E+00  0.15500498729E+04  0.15500498729E+04  0.00000000000E+00 0. -1.
          1   -1    0    0  501    0 -0.00000000000E+00 -0.00000000000E+00 -0.10574625760E+03  0.10574625760E+03  0.00000000000E+00 0. -1.
         25    2    1    2    0    0 -0.63206325779E+01 -0.19073551560E+01  0.11077655080E+04  0.11148152414E+04  0.12500005314E+03 0.  0.
          2    1    1    2  501    0 -0.51427551880E+02 -0.85322885183E+01 -0.93449836355E+02  0.10700684536E+03  0.00000000000E+00 0. -1.
          1    1    1    2  502    0  0.57748184458E+02  0.10439643674E+02  0.42998794361E+03  0.43397404372E+03  0.00000000000E+00 0. -1.
         22    1    3    3    0    0 -0.55942524520E+02  0.21878149600E+02  0.35544350023E+03  0.36048342727E+03  0.00000000000E+00 0.  1.
         22    1    3    3    0    0  0.49621891942E+02 -0.23785504756E+02  0.75232200779E+03  0.75433181412E+03  0.00000000000E+00 0.  1.
</event>
<event>
 7    1  0.6152634E-006  0.5454559E+02  0.7818608E-02  0.1477340E+00
          2   -1    0    0  502    0  0.00000000000E+00  0.00000000000E+00  0.20518993664E+04  0.20518993664E+04  0.00000000000E+00 0. -1.
          1   -1    0    0  501    0 -0.00000000000E+00 -0.00000000000E+00 -0.10043647261E+04  0.10043647261E+04  0.00000000000E+00 0. -1.
         25    2    1    2    0    0 -0.16309914159E+02  0.19099892666E+02  0.86181841156E+02  0.15389350509E+03  0.12500032785E+03 0.  0.
          2    1    1    2  501    0  0.86616565467E+01  0.35295241945E+02 -0.96977799134E+03  0.97045872189E+03  0.00000000000E+00 0. -1.
          1    1    1    2  502    0  0.76482576124E+01 -0.54395134611E+02  0.19311307904E+04  0.19319118656E+04  0.00000000000E+00 0. -1.
         22    1    3    3    0    0  0.31166522249E+02  0.47983105069E+02  0.77051589100E+01  0.57733005768E+02  0.00000000000E+00 0. -1.
         22    1    3    3    0    0 -0.47476436408E+02 -0.28883212403E+02  0.78476682246E+02  0.96160499318E+02  0.00000000000E+00 0. -1.
</event>
<event>
 7    1  0.6152634E-006  0.4103910E+02  0.7818608E-02  0.1501914E+00
          2   -1    0    0  502    0  0.00000000000E+00  0.00000000000E+00  0.20540831104E+04  0.20540831104E+04  0.00000000000E+00 0. -1.
          1   -1    0    0  501    0 -0.00000000000E+00 -0.00000000000E+00 -0.30871595054E+03  0.30871595054E+03  0.00000000000E+00 0. -1.
         25    2    1    2    0    0 -0.69400949045E+01 -0.35579137404E+02  0.11459668424E+03  0.17341222521E+03  0.12500143949E+03 0.  0.
          2    1    1    2  501    0 -0.32489619371E+02  0.25494073856E+02 -0.27756346060E+03  0.28061895487E+03  0.00000000000E+00 0. -1.
          1    1    1    2  502    0  0.39429714275E+02  0.10085063547E+02  0.19083339362E+04  0.19087678808E+04  0.00000000000E+00 0. -1.
         22    1    3    3    0    0 -0.12912670348E+02 -0.15992351908E+02  0.13959359264E+03  0.14109877208E+03  0.00000000000E+00 0.  1.
         22    1    3    3    0    0  0.59725754430E+01 -0.19586785496E+02 -0.24996908400E+02  0.32313453128E+02  0.00000000000E+00 0.  1.
</event>
<event>
 7    1  0.6152634E-006  0.5225235E+02  0.7818608E-02  0.1496393E+00
          2   -1    0    0  502    0  0.00000000000E+00  0.00000000000E+00  0.69792941594E+03  0.69792941594E+03  0.00000000000E+00 0. -1.
          1   -1    0    0  501    0 -0.00000000000E+00 -0.00000000000E+00 -0.18147255740E+04  0.18147255740E+04  0.00000000000E+00 0. -1.
         25    2    1    2    0    0  0.35483582036E+02 -0.28302453596E+02  0.38437017937E+03  0.40672487819E+03  0.12499831310E+03 0.  0.
          2    1    1    2  501    0  0.20060930027E+02  0.26456997855E+02 -0.18008403452E+04  0.18011464023E+04  0.00000000000E+00 0. -1.
          1    1    1    2  502    0 -0.55544512064E+02  0.18454557404E+01  0.29967400784E+03  0.30478370938E+03  0.00000000000E+00 0. -1.
         22    1    3    3    0    0 -0.26249691794E+02 -0.26517086970E+02  0.32517994427E+02  0.49493657999E+02  0.00000000000E+00 0.  1.
         22    1    3    3    0    0  0.61733273830E+02 -0.17853666261E+01  0.35185218494E+03  0.35723122019E+03  0.00000000000E+00 0.  1.
</event>
<event>
 7    1  0.6152634E-006  0.8037344E+02  0.7818608E-02  0.1350715E+00
          2   -1    0    0  502    0  0.00000000000E+00  0.00000000000E+00  0.11905750508E+03  0.11905750508E+03  0.00000000000E+00 0. -1.
          1   -1    0    0  501    0 -0.00000000000E+00 -0.00000000000E+00 -0.48780521339E+03  0.48780521339E+03  0.00000000000E+00 0. -1.
         25    2    1    2    0    0  0.38428957725E+02  0.46935343891E+02  0.39165021745E+02  0.14435162232E+03  0.12499512246E+03 0.  0.
          2    1    1    2  501    0 -0.61443617781E+02  0.51812859214E+02 -0.31463101388E+03  0.32473460770E+03  0.00000000000E+00 0. -1.
          1    1    1    2  502    0  0.23014660057E+02 -0.98748203105E+02 -0.93281716182E+02  0.13777648844E+03  0.00000000000E+00 0. -1.
         22    1    3    3    0    0 -0.47425416407E+01 -0.38889776025E+02  0.26846537511E+02  0.47493609642E+02  0.00000000000E+00 0.  1.
         22    1    3    3    0    0  0.43171499365E+02  0.85825119915E+02  0.12318484234E+02  0.96858012677E+02  0.00000000000E+00 0.  1.
</event>
<event>
 7    1  0.6152634E-006  0.7151083E+02  0.7818608E-02  0.1408624E+00
          2   -1    0    0  502    0  0.00000000000E+00  0.00000000000E+00  0.57255827778E+03  0.57255827778E+03  0.00000000000E+00 0. -1.
          1   -1    0    0  501    0 -0.00000000000E+00 -0.00000000000E+00 -0.41081747466E+03  0.41081747466E+03  0.00000000000E+00 0. -1.
         25    2    1    2    0    0  0.54483034542E+02  0.70260888532E+02  0.21445920518E+03  0.26367204013E+03  0.12500080219E+03 0.  0.
          2    1    1    2  501    0 -0.82508239740E+01 -0.70966543455E+02 -0.38127426966E+03  0.38791029258E+03  0.00000000000E+00 0. -1.
          1    1    1    2  502    0 -0.46232210568E+02  0.70565492270E+00  0.32855586760E+03  0.33179341973E+03  0.00000000000E+00 0. -1.
         22    1    3    3    0    0  0.15839440080E+02 -0.25385774400E+02  0.52041451417E+01  0.30371179276E+02  0.00000000000E+00 0. -1.
         22    1    3    3    0    0  0.38643594462E+02  0.95646662932E+02  0.20925506004E+03  0.23330086085E+03  0.00000000000E+00 0. -1.
</event>
<event>
 7    1  0.6152634E-006  0.6624064E+02  0.7818608E-02  0.1409599E+00
          2   -1    0    0  502    0  0.00000000000E+00  0.00000000000E+00  0.13871592035E+03  0.13871592035E+03  0.00000000000E+00 0. -1.
          1   -1    0    0  501    0 -0.00000000000E+00 -0.00000000000E+00 -0.42776080316E+03  0.42776080316E+03  0.00000000000E+00 0. -1.
         25    2    1    2    0    0  0.25832565741E+02 -0.17263337131E+02 -0.10778571179E+03  0.16795192358E+03  0.12499897883E+03 0.  0.
          2    1    1    2  501    0 -0.72377818846E+02  0.30819977263E+00 -0.27938272768E+03  0.28860587689E+03  0.00000000000E+00 0. -1.
          1    1    1    2  502    0  0.46545253106E+02  0.16955137358E+02  0.98123556656E+02  0.10991892303E+03  0.00000000000E+00 0. -1.
         22    1    3    3    0    0  0.27371890028E+02 -0.31843721608E+02 -0.13262206938E+03  0.13911094945E+03  0.00000000000E+00 0.  1.
         22    1    3    3    0    0 -0.15393242871E+01  0.14580384477E+02  0.24836357591E+02  0.28840974137E+02  0.00000000000E+00 0.  1.
</event>
<event>
 7    1  0.6152634E-006  0.6052718E+02  0.7818608E-02  0.1398013E+00
          2   -1    0    0  502    0  0.00000000000E+00  0.00000000000E+00  0.13220804894E+04  0.13220804894E+04  0.00000000000E+00 0. -1.
          1   -1    0    0  501    0 -0.00000000000E+00 -0.00000000000E+00 -0.17972678147E+02  0.17972678147E+02  0.00000000000E+00 0. -1.
         25    2    1    2    0    0  0.38288547635E+02  0.41286050518E+02  0.78241092680E+03  0.79433163283E+03  0.12500133473E+03 0.  0.
          2    1    1    2  501    0  0.19222421570E+02 -0.60154738058E+02  0.90843352855E+02  0.11063728467E+03  0.00000000000E+00 0. -1.
          1    1    1    2  502    0 -0.57510969205E+02  0.18868687541E+02  0.43085353156E+03  0.43508425001E+03  0.00000000000E+00 0. -1.
         22    1    3    3    0    0 -0.16580850147E+02  0.56134055316E+02  0.60978672939E+03  0.61258943191E+03  0.00000000000E+00 0. -1.
         22    1    3    3    0    0  0.54869397782E+02 -0.14848004798E+02  0.17262419742E+03  0.18174220091E+03  0.00000000000E+00 0. -1.
</event>
<event>
 7    1  0.6152634E-006  0.1047997E+03  0.7818608E-02  0.1329054E+00
          2   -1    0    0  502    0  0.00000000000E+00  0.00000000000E+00  0.22039062991E+04  0.22039062991E+04  0.00000000000E+00 0. -1.
          1   -1    0    0  501    0 -0.00000000000E+00 -0.00000000000E+00 -0.20697067600E+04  0.20697067600E+04  0.00000000000E+00 0. -1.
         25    2    1    2    0    0 -0.92580240047E+02  0.11104614039E+03  0.44118326973E+03  0.48080103048E+03  0.12499842911E+03 0.  0.
          2    1    1    2  501    0  0.59409614872E+02 -0.14132628074E+02 -0.20479373198E+04  0.20488476028E+04  0.00000000000E+00 0. -1.
          1    1    1    2  502    0  0.33170625176E+02 -0.96913512316E+02  0.17409535891E+04  0.17439644259E+04  0.00000000000E+00 0. -1.
         22    1    3    3    0    0 -0.11410671426E+03  0.54272482639E+02  0.34096170289E+03  0.36362168176E+03  0.00000000000E+00 0. -1.
         22    1    3    3    0    0  0.21526474210E+02  0.56773657751E+02  0.10022156684E+03  0.11717934872E+03  0.00000000000E+00 0. -1.
</event>
<event>
 7    1  0.6152634E-006  0.3322925E+02  0.7818608E-02  0.1578316E+00
          2   -1    0    0  502    0  0.00000000000E+00  0.00000000000E+00  0.19273170948E+03  0.19273170948E+03  0.00000000000E+00 0. -1.
          1   -1    0    0  501    0 -0.00000000000E+00 -0.00000000000E+00 -0.16299509713E+04  0.16299509713E+04  0.00000000000E+00 0. -1.
         25    2    1    2    0    0 -0.30376566126E+02  0.50807792439E+02 -0.11069409041E+03  0.17715189193E+03  0.12500177447E+03 0.  0.
          2    1    1    2  501    0  0.25940508979E+02 -0.20569432262E+02 -0.14843777339E+04  0.14847468701E+04  0.00000000000E+00 0. -1.
          1    1    1    2  502    0  0.44360571470E+01 -0.30238360177E+02  0.15785256248E+03  0.16078391870E+03  0.00000000000E+00 0. -1.
         22    1    3    3    0    0 -0.39976529206E+02  0.13769183487E+01 -0.11951456272E+03  0.12603074821E+03  0.00000000000E+00 0. -1.
         22    1    3    3    0    0  0.95999630807E+01  0.49430874090E+02  0.88204723036E+01  0.51121143728E+02  0.00000000000E+00 0. -1.
</event>
<event>
 7    1  0.6152634E-006  0.1024997E+03  0.7818608E-02  0.1417485E+00
          2   -1    0    0  502    0  0.00000000000E+00  0.00000000000E+00  0.85993578986E+03  0.85993578986E+03  0.00000000000E+00 0. -1.
          1   -1    0    0  501    0 -0.00000000000E+00 -0.00000000000E+00 -0.18385616310E+04  0.18385616310E+04  0.00000000000E+00 0. -1.
         25    2    1    2    0    0  0.12338653710E+03  0.29322761894E+02  0.23555566502E+03  0.29529012806E+03  0.12500290599E+03 0.  0.
          2    1    1    2  501    0 -0.10205683493E+03 -0.80668723882E+01 -0.18068632025E+04  0.18097611181E+04  0.00000000000E+00 0. -1.
          1    1    1    2  502    0 -0.21329702164E+02 -0.21255889506E+02  0.59268169638E+03  0.59344617469E+03  0.00000000000E+00 0. -1.
         22    1    3    3    0    0  0.52445848026E+02 -0.48562554454E+02  0.78416198986E+02  0.10610367069E+03  0.00000000000E+00 0.  1.
         22    1    3    3    0    0  0.70940689073E+02  0.77885316348E+02  0.15713946603E+03  0.18918645737E+03  0.00000000000E+00 0.  1.
</event>
<event>
 7    1  0.6152634E-006  0.5670468E+02  0.7818608E-02  0.1429930E+00
          2   -1    0    0  502    0  0.00000000000E+00  0.00000000000E+00  0.17062140412E+03  0.17062140412E+03  0.00000000000E+00 0. -1.
          1   -1    0    0  501    0 -0.00000000000E+00 -0.00000000000E+00 -0.12024646988E+04  0.12024646988E+04  0.00000000000E+00 0. -1.
         25    2    1    2    0    0 -0.40474206503E+02 -0.56951955998E+02 -0.46468733317E+03  0.48625233715E+03  0.12500132435E+03 0.  0.
          2    1    1    2  501    0 -0.90126511135E+01  0.56497276890E+02 -0.72200530072E+03  0.72426847539E+03  0.00000000000E+00 0. -1.
          1    1    1    2  502    0  0.49486857616E+02  0.45467910765E+00  0.15484933917E+03  0.16256529042E+03  0.00000000000E+00 0. -1.
         22    1    3    3    0    0 -0.57223555046E+02 -0.73277904969E+02 -0.44793515869E+03  0.45748234173E+03  0.00000000000E+00 0.  1.
         22    1    3    3    0    0  0.16749348543E+02  0.16325948972E+02 -0.16752174487E+02  0.28769995420E+02  0.00000000000E+00 0.  1.
</event>
<event>
 7    1  0.6152634E-006  0.5021762E+02  0.7818608E-02  0.1530371E+00
          2   -1    0    0  502    0  0.00000000000E+00  0.00000000000E+00  0.17192110711E+04  0.17192110711E+04  0.00000000000E+00 0. -1.
          1   -1    0    0  501    0 -0.00000000000E+00 -0.00000000000E+00 -0.55125550734E+03  0.55125550734E+03  0.00000000000E+00 0. -1.
         25    2    1    2    0    0 -0.30636083406E+02 -0.54898592648E+01  0.64555890853E+02  0.14408890710E+03  0.12500176777E+03 0.  0.
          2    1    1    2  501    0  0.47939842268E+02 -0.15844325925E+02 -0.51012580510E+03  0.51261838455E+03  0.00000000000E+00 0. -1.
          1    1    1    2  502    0 -0.17303758862E+02  0.21334185190E+02  0.16135254780E+04  0.16137592868E+04  0.00000000000E+00 0. -1.
         22    1    3    3    0    0 -0.22106864390E+02  0.28116130064E+02 -0.27890058339E+02  0.45355105304E+02  0.00000000000E+00 0.  1.
         22    1    3    3    0    0 -0.85292190162E+01 -0.33605989329E+02  0.92445949193E+02  0.98733801801E+02  0.00000000000E+00 0.  1.
</event>
<event>
 7    1  0.6152634E-006  0.5965442E+02  0.7818608E-02  0.1503116E+00
          2   -1    0    0  502    0  0.00000000000E+00  0.00000000000E+00  0.14750654763E+04  0.14750654763E+04  0.00000000000E+00 0. -1.
          1   -1    0    0  501    0 -0.00000000000E+00 -0.00000000000E+00 -0.11375614416E+03  0.11375614416E+03  0.00000000000E+00 0. -1.
         25    2    1    2    0    0  0.81267694596E+02  0.18799626119E+02  0.20637862510E+03  0.25529382403E+03  0.12499974225E+03 0.  0.
          2    1    1    2  501    0 -0.58652127575E+02 -0.26852283915E+01 -0.79474478022E+02  0.98810298944E+02  0.00000000000E+00 0. -1.
          1    1    1    2  502    0 -0.22615567021E+02 -0.16114397727E+02  0.12344051851E+04  0.12347174975E+04  0.00000000000E+00 0. -1.
         22    1    3    3    0    0  0.53743133305E+02 -0.26674560397E+02  0.19063804685E+03  0.19985675234E+03  0.00000000000E+00 0. -1.
         22    1    3    3    0    0  0.27524561292E+02  0.45474186516E+02  0.15740578245E+02  0.55437071686E+02  0.00000000000E+00 0. -1.
</event>
<event>
 7    1  0.6152634E-006  0.1661476E+03  0.7818608E-02  0.1262380E+00
          2   -1    0    0  502    0  0.00000000000E+00  0.00000000000E+00  0.11205607163E+04  0.11205607163E+04  0.00000000000E+00 0. -1.
          1   -1    0    0  501    0 -0.00000000000E+00 -0.00000000000E+00 -0.39407690295E+03  0.39407690295E+03  0.00000000000E+00 0. -1.
         25    2    1    2    0    0 -0.16494060058E+03 -0.86718268508E+02  0.18028818828E+03  0.28784497841E+03  0.12500176378E+03 0.  0.
          2    1    1    2  501    0  0.16482351560E+03  0.15172879362E+02 -0.31860634314E+03  0.35903622303E+03  0.00000000000E+00 0. -1.
          1    1    1    2  502    0  0.11708497769E+00  0.71545389146E+02  0.86480196825E+03  0.86775641784E+03  0.00000000000E+00 0. -1.
         22    1    3    3    0    0 -0.49141039533E+02 -0.67314407788E+02  0.14352261719E+02  0.84569844972E+02  0.00000000000E+00 0.  1.
         22    1    3    3    0    0 -0.11579956105E+03 -0.19403860720E+02  0.16593592656E+03  0.20327513344E+03  0.00000000000E+00 0.  1.
</event>
<event>
 7    1  0.6152634E-006  0.1047648E+03  0.7818608E-02  0.1288132E+00
          2   -1    0    0  502    0  0.00000000000E+00  0.00000000000E+00  0.71166322652E+03  0.71166322652E+03  0.00000000000E+00 0. -1.
          1   -1    0    0  501    0 -0.00000000000E+00 -0.00000000000E+00 -0.48398634599E+03  0.48398634599E+03  0.00000000000E+00 0. -1.
         25    2    1    2    0    0 -0.57753276727E+02  0.12244563076E+03  0.44778049987E+03  0.48421116141E+03  0.12499879719E+03 0.  0.
          2    1    1    2  501    0 -0.32341418098E+02 -0.82526708412E+02 -0.45140264276E+03  0.46002279380E+03  0.00000000000E+00 0. -1.
          1    1    1    2  502    0  0.90094694824E+02 -0.39918922349E+02  0.23129902341E+03  0.25141561731E+03  0.00000000000E+00 0. -1.
         22    1    3    3    0    0 -0.56057808697E+02  0.97875614983E+02  0.16215369239E+03  0.19752451463E+03  0.00000000000E+00 0.  1.
         22    1    3    3    0    0 -0.16954680291E+01  0.24570015778E+02  0.28562680748E+03  0.28668664678E+03  0.00000000000E+00 0.  1.
</event>
<event>
 7    1  0.6152634E-006  0.7489181E+02  0.7818608E-02  0.1380788E+00
          2   -1    0    0  502    0  0.00000000000E+00  0.00000000000E+00  0.21245963239E+03  0.21245963239E+03  0.00000000000E+00 0. -1.
          1   -1    0    0  501    0 -0.00000000000E+00 -0.00000000000E+00 -0.29466383262E+04  0.29466383262E+04  0.00000000000E+00 0. -1.
         25    2    1    2    0    0 -0.19368560421E+02  0.95092380181E+01 -0.17193202337E+03  0.21366213042E+03  0.12500127430E+03 0.  0.
          2    1    1    2  501    0  0.73255227106E+02 -0.21162501794E+02 -0.27493355389E+04  0.27503927148E+04  0.00000000000E+00 0. -1.
          1    1    1    2  502    0 -0.53886666685E+02  0.11653263776E+02  0.18708886845E+03  0.19504311344E+03  0.00000000000E+00 0. -1.
         22    1    3    3    0    0  0.41434278890E+02  0.40426366976E+02 -0.67454344431E+02  0.88888577425E+02  0.00000000000E+00 0.  1.
         22    1    3    3    0    0 -0.60802839311E+02 -0.30917128958E+02 -0.10447767894E+03  0.12477355300E+03  0.00000000000E+00 0.  1.
</event>
<event>
 7    1  0.6152634E-006  0.1759994E+03  0.7818608E-02  0.1261889E+00
          2   -1    0    0  502    0  0.00000000000E+00  0.00000000000E+00  0.10058186116E+04  0.10058186116E+04  0.00000000000E+00 0. -1.
          1   -1    0    0  501    0 -0.00000000000E+00 -0.00000000000E+00 -0.20048224121E+04  0.20048224121E+04  0.00000000000E+00 0. -1.
         25    2    1    2    0    0 -0.22812760502E+03  0.19108666443E+02 -0.25669708114E+03  0.36595898152E+03  0.12500095753E+03 0.  0.
          2    1    1    2  501    0  0.17113449385E+03  0.17737049876E+02 -0.16879052023E+04  0.16966512871E+04  0.00000000000E+00 0. -1.
          1    1    1    2  502    0  0.56993111169E+02 -0.36845716319E+02  0.94559848304E+03  0.94803075512E+03  0.00000000000E+00 0. -1.
         22    1    3    3    0    0 -0.23149443289E+03 -0.96262224896E+01 -0.22348686980E+03  0.32191414630E+03  0.00000000000E+00 0. -1.
         22    1    3    3    0    0  0.33668278690E+01  0.28734888933E+02 -0.33210211343E+02  0.44044835217E+02  0.00000000000E+00 0. -1.
</event>
<event>
 7    1  0.6152634E-006  0.1560550E+03  0.7818608E-02  0.1357114E+00
          2   -1    0    0  502    0  0.00000000000E+00  0.00000000000E+00  0.71299177621E+03  0.71299177621E+03  0.00000000000E+00 0. -1.
          1   -1    0    0  501    0 -0.00000000000E+00 -0.00000000000E+00 -0.20674094364E+04  0.20674094364E+04  0.00000000000E+00 0. -1.
         25    2    1    2    0    0  0.13169107934E+03 -0.11006996186E+03 -0.23788157568E+03  0.31886091009E+03  0.12500679602E+03 0.  0.
          2    1    1    2  501    0 -0.31022648140E+02 -0.86161069663E+01 -0.17798867696E+04  0.17801779559E+04  0.00000000000E+00 0. -1.
          1    1    1    2  502    0 -0.10066843120E+03  0.11868606883E+03  0.66335068510E+03  0.68136234663E+03  0.00000000000E+00 0. -1.
         22    1    3    3    0    0  0.61757218824E+02 -0.11961815252E+02 -0.13737012891E+02  0.64387457041E+02  0.00000000000E+00 0. -1.
         22    1    3    3    0    0  0.69933860520E+02 -0.98108146612E+02 -0.22414456278E+03  0.25447345305E+03  0.00000000000E+00 0. -1.
</event>
<event>
 7    1  0.6152634E-006  0.1024891E+03  0.7818608E-02  0.1383576E+00
          2   -1    0    0  502    0  0.00000000000E+00  0.00000000000E+00  0.25419876850E+04  0.25419876850E+04  0.00000000000E+00 0. -1.
          1   -1    0    0  501    0 -0.00000000000E+00 -0.00000000000E+00 -0.90194002128E+02  0.90194002128E+02  0.00000000000E+00 0. -1.
         25    2    1    2    0    0 -0.39061699141E+02 -0.61721815587E+02  0.10131815017E+03  0.17670896175E+03  0.12500116300E+03 0.  0.
          2    1    1    2  501    0 -0.38876578252E+02 -0.63034002654E+01 -0.43834645631E+02  0.58928748070E+02  0.00000000000E+00 0. -1.
          1    1    1    2  502    0  0.77938277393E+02  0.68025215852E+02  0.23943101783E+04  0.23965439773E+04  0.00000000000E+00 0. -1.
         22    1    3    3    0    0 -0.36853438410E+02 -0.79406736734E+02  0.12152024539E+03  0.14976907491E+03  0.00000000000E+00 0.  1.
         22    1    3    3    0    0 -0.22082607314E+01  0.17684921147E+02 -0.20202095223E+02  0.26939886838E+02  0.00000000000E+00 0.  1.
</event>
<event>
 7    1  0.6152634E-006  0.6436833E+02  0.7818608E-02  0.1488365E+00
          2   -1    0    0  502    0  0.00000000000E+00  0.00000000000E+00  0.28759654611E+04  0.28759654611E+04  0.00000000000E+00 0. -1.
          1   -1    0    0  501    0 -0.00000000000E+00 -0.00000000000E+00 -0.27049455559E+02  0.27049455559E+02  0.00000000000E+00 0. -1.
         25    2    1    2    0    0 -0.97393582555E+01  0.89206026108E+02  0.74479377585E+03  0.76052321782E+03  0.12500090444E+03 0.  0.
          2    1    1    2  501    0 -0.49921938470E+01 -0.28057274623E+02 -0.78687424204E+01  0.29564332665E+02  0.00000000000E+00 0. -1.
          1    1    1    2  502    0  0.14731552102E+02 -0.61148751485E+02  0.21119909722E+04  0.21129273662E+04  0.00000000000E+00 0. -1.
         22    1    3    3    0    0  0.46035017770E+02  0.66653045766E+01  0.36213600626E+03  0.36511112853E+03  0.00000000000E+00 0.  1.
         22    1    3    3    0    0 -0.55774376026E+02  0.82540721531E+02  0.38265776959E+03  0.39541208929E+03  0.00000000000E+00 0.  1.
</event>
<event>
 7    1  0.6152634E-006  0.6169714E+02  0.7818608E-02  0.1427604E+00
          2   -1    0    0  502    0  0.00000000000E+00  0.00000000000E+00  0.13149842246E+04  0.13149842246E+04  0.00000000000E+00 0. -1.
          1   -1    0    0  501    0 -0.00000000000E+00 -0.00000000000E+00 -0.94975771148E+03  0.94975771148E+03  0.00000000000E+00 0. -1.
         25    2    1    2    0    0  0.82318803150E+02  0.50175614287E+02  0.14260814329E+03  0.21273543334E+03  0.12500121777E+03 0.  0.
          2    1    1    2  501    0 -0.36024854915E+02 -0.49891708746E+02 -0.91318695225E+03  0.91525809613E+03  0.00000000000E+00 0. -1.
          1    1    1    2  502    0 -0.46293948235E+02 -0.28390554089E+00  0.11358053220E+04  0.11367484066E+04  0.00000000000E+00 0. -1.
         22    1    3    3    0    0 -0.19298447296E+02  0.34950218234E+02  0.87410257992E+02  0.96096311192E+02  0.00000000000E+00 0. -1.
         22    1    3    3    0    0  0.10161725045E+03  0.15225396053E+02  0.55197885298E+02  0.11663912214E+03  0.00000000000E+00 0. -1.
</event>
<event>
 7    1  0.6152634E-006  0.6159838E+02  0.7818608E-02  0.1429968E+00
          2   -1    0    0  502    0  0.00000000000E+00  0.00000000000E+00  0.30776704155E+03  0.30776704155E+03  0.00000000000E+00 0. -1.
          1   -1    0    0  501    0 -0.00000000000E+00 -0.00000000000E+00 -0.70309083466E+02  0.70309083466E+02  0.00000000000E+00 0. -1.
         25    2    1    2    0    0  0.45189901367E+02 -0.12665863281E+02  0.18353690710E+03  0.22696852474E+03  0.12500545458E+03 0.  0.
          2    1    1    2  501    0 -0.56856424558E+02 -0.31358492008E+02 -0.16727864989E+02  0.67050947060E+02  0.00000000000E+00 0. -1.
          1    1    1    2  502    0  0.11666523191E+02  0.44024355289E+02  0.70648915969E+02  0.84056653215E+02  0.00000000000E+00 0. -1.
         22    1    3    3    0    0 -0.12656043062E+02  0.37696850634E+02  0.12297085457E+03  0.12924031510E+03  0.00000000000E+00 0.  1.
         22    1    3    3    0    0  0.57845944429E+02 -0.50362713915E+02  0.60566052533E+02  0.97728209639E+02  0.00000000000E+00 0.  1.
</event>
<event>
 7    1  0.6152634E-006  0.1081692E+03  0.7818608E-02  0.1368831E+00
          2   -1    0    0  502    0  0.00000000000E+00  0.00000000000E+00  0.12881022649E+03  0.12881022649E+03  0.00000000000E+00 0. -1.
          1   -1    0    0  501    0 -0.00000000000E+00 -0.00000000000E+00 -0.55655614677E+03  0.55655614677E+03  0.00000000000E+00 0. -1.
         25    2    1    2    0    0  0.71912226560E+02  0.14715529223E+02 -0.71871605539E+02  0.16179660681E+03  0.12499879665E+03 0.  0.
          2    1    1    2  501    0 -0.10816279653E+03 -0.36149448238E+02 -0.42642179334E+03  0.44140856244E+03  0.00000000000E+00 0. -1.
          1    1    1    2  502    0  0.36250569967E+02  0.21433919015E+02  0.70547478602E+02  0.82161204010E+02  0.00000000000E+00 0. -1.
         22    1    3    3    0    0  0.33778851273E+02 -0.30591167474E+02 -0.89138074509E+02  0.10011207044E+03  0.00000000000E+00 0. -1.
         22    1    3    3    0    0  0.38133375288E+02  0.45306696697E+02  0.17266468970E+02  0.61684536370E+02  0.00000000000E+00 0. -1.
</event>
<event>
 7    1  0.6152634E-006  0.4076848E+02  0.7818608E-02  0.1550159E+00
          2   -1    0    0  502    0  0.00000000000E+00  0.00000000000E+00  0.11894548973E+04  0.11894548973E+04  0.00000000000E+00 0. -1.
          1   -1    0    0  501    0 -0.00000000000E+00 -0.00000000000E+00 -0.17364057050E+03  0.17364057050E+03  0.00000000000E+00 0. -1.
         25    2    1    2    0    0  0.31860732052E+02  0.55650235919E+02  0.62105464685E+03  0.63674901509E+03  0.12501351462E+03 0.  0.
          2    1    1    2  501    0 -0.64535175817E+01 -0.40176840280E+02 -0.16289413110E+03  0.16789974488E+03  0.00000000000E+00 0. -1.
          1    1    1    2  502    0 -0.25407214471E+02 -0.15473395639E+02  0.55765381102E+03  0.55844670781E+03  0.00000000000E+00 0. -1.
         22    1    3    3    0    0  0.30510316787E+02 -0.17432002272E+02  0.44136201696E+03  0.44275860708E+03  0.00000000000E+00 0. -1.
         22    1    3    3    0    0  0.13504152657E+01  0.73082238191E+02  0.17969262990E+03  0.19399040801E+03  0.00000000000E+00 0. -1.
</event>
<event>
 7    1  0.6152634E-006  0.1054801E+03  0.7818608E-02  0.1298751E+00
          2   -1    0    0  502    0  0.00000000000E+00  0.00000000000E+00  0.17071746956E+04  0.17071746956E+04  0.00000000000E+00 0. -1.
          1   -1    0    0  501    0 -0.00000000000E+00 -0.00000000000E+00 -0.23266607521E+03  0.23266607521E+03  0.00000000000E+00 0. -1.
         25    2    1    2    0    0  0.67942348141E+02 -0.97871681742E+02 -0.48148269373E+01  0.17275184066E+03  0.12499994853E+03 0.  0.
          2    1    1    2  501    0 -0.79413455442E+02 -0.72776864331E+01 -0.13096305161E+03  0.15333226181E+03  0.00000000000E+00 0. -1.
          1    1    1    2  502    0  0.11471107301E+02  0.10514936818E+03  0.16102864989E+04  0.16137566683E+04  0.00000000000E+00 0. -1.
         22    1    3    3    0    0  0.41687072429E+02 -0.64780056104E+02  0.58437282750E+02  0.96691176907E+02  0.00000000000E+00 0.  1.
         22    1    3    3    0    0  0.26255275712E+02 -0.33091625639E+02 -0.63252109687E+02  0.76060663749E+02  0.00000000000E+00 0.  1.
</event>
<event>
 7    1  0.6152634E-006  0.4474625E+02  0.7818608E-02  0.1579957E+00
          2   -1    0    0  502    0  0.00000000000E+00  0.00000000000E+00  0.25672861489E+03  0.25672861489E+03  0.00000000000E+00 0. -1.
          1   -1    0    0  501    0 -0.00000000000E+00 -0.00000000000E+00 -0.80138582880E+03  0.80138582880E+03  0.00000000000E+00 0. -1.
         25    2    1    2    0    0  0.82771188522E+01 -0.46686545501E+02 -0.17118986472E+03  0.21720744431E+03  0.12499983942E+03 0.  0.
          2    1    1    2  501    0  0.13825553763E+02  0.42658782607E+02 -0.60581663876E+03  0.60747404674E+03  0.00000000000E+00 0. -1.
          1    1    1    2  502    0 -0.22102672615E+02  0.40277628935E+01  0.23234928957E+03  0.23343295264E+03  0.00000000000E+00 0. -1.
         22    1    3    3    0    0 -0.54444928700E+02 -0.45310337521E+02 -0.95374008324E+02  0.11880016166E+03  0.00000000000E+00 0. -1.
         22    1    3    3    0    0  0.62722047552E+02 -0.13762079792E+01 -0.75815856397E+02  0.98407282651E+02  0.00000000000E+00 0. -1.
</event>
<event>
 7    1  0.6152634E-006  0.1017408E+03  0.7818608E-02  0.1380575E+00
          2   -1    0    0  502    0  0.00000000000E+00  0.00000000000E+00  0.68634912352E+03  0.68634912352E+03  0.00000000000E+00 0. -1.
          1   -1    0    0  501    0 -0.00000000000E+00 -0.00000000000E+00 -0.47001329550E+03  0.47001329550E+03  0.00000000000E+00 0. -1.
         25    2    1    2    0    0  0.40191863515E+02  0.67991142577E+02  0.22207428731E+03  0.26679692727E+03  0.12500171982E+03 0.  0.
          2    1    1    2  501    0  0.40149597660E+02  0.63829635271E+01 -0.43991945156E+03  0.44179390702E+03  0.00000000000E+00 0. -1.
          1    1    1    2  502    0 -0.80341461175E+02 -0.74374106104E+02  0.43418099227E+03  0.44777158473E+03  0.00000000000E+00 0. -1.
         22    1    3    3    0    0  0.28841197576E+02 -0.27368105741E+02  0.12104847511E+03  0.12741099331E+03  0.00000000000E+00 0. -1.
         22    1    3    3    0    0  0.11350665939E+02  0.95359248318E+02  0.10102581219E+03  0.13938593396E+03  0.00000000000E+00 0. -1.
</event>
<event>
 7    1  0.6152634E-006  0.5942654E+02  0.7818608E-02  0.1466470E+00
          2   -1    0    0  502    0  0.00000000000E+00  0.00000000000E+00  0.28236243863E+02  0.28236243863E+02  0.00000000000E+00 0. -1.
          1   -1    0    0  501    0 -0.00000000000E+00 -0.00000000000E+00 -0.15284106836E+04  0.15284106836E+04  0.00000000000E+00 0. -1.
         25    2    1    2    0    0 -0.10816992843E+02 -0.34959453788E+02 -0.24907740850E+03  0.28107616437E+03  0.12500033602E+03 0.  0.
          2    1    1    2  501    0  0.13290886363E+02 -0.33511486559E+02 -0.11649118615E+04  0.11654695674E+04  0.00000000000E+00 0. -1.
          1    1    1    2  502    0 -0.24738935205E+01  0.68470940347E+02 -0.86185169784E+02  0.11010119578E+03  0.00000000000E+00 0. -1.
         22    1    3    3    0    0  0.14387873610E+01 -0.80587591524E+02 -0.18180868900E+03  0.19887390330E+03  0.00000000000E+00 0. -1.
         22    1    3    3    0    0 -0.12255780203E+02  0.45628137736E+02 -0.67268719498E+02  0.82202261067E+02  0.00000000000E+00 0. -1.
</event>
<event>
 7    1  0.6152634E-006  0.2080717E+03  0.7818608E-02  0.1293973E+00
          2   -1    0    0  502    0  0.00000000000E+00  0.00000000000E+00  0.85679294006E+03  0.85679294006E+03  0.00000000000E+00 0. -1.
          1   -1    0    0  501    0 -0.00000000000E+00 -0.00000000000E+00 -0.22934835380E+03  0.22934835380E+03  0.00000000000E+00 0. -1.
         25    2    1    2    0    0  0.18449519754E+03 -0.14745889642E+03  0.17876858140E+03  0.32150556083E+03  0.12500006360E+03 0.  0.
          2    1    1    2  501    0 -0.13842640477E+02  0.39925941674E+02 -0.13796230929E+03  0.14428894032E+03  0.00000000000E+00 0. -1.
          1    1    1    2  502    0 -0.17065255706E+03  0.10753295475E+03  0.58663831416E+03  0.62034679271E+03  0.00000000000E+00 0. -1.
         22    1    3    3    0    0  0.17823903839E+03 -0.11974239697E+03  0.19389684771E+03  0.28931537116E+03  0.00000000000E+00 0. -1.
         22    1    3    3    0    0  0.62561591437E+01 -0.27716499451E+02 -0.15128266310E+02  0.32190189664E+02  0.00000000000E+00 0. -1.
</event>
<event>
 7    1  0.6152634E-006  0.1900658E+03  0.7818608E-02  0.1269722E+00
          2   -1    0    0  502    0  0.00000000000E+00  0.00000000000E+00  0.27286575897E+04  0.27286575897E+04  0.00000000000E+00 0. -1.
          1   -1    0    0  501    0 -0.00000000000E+00 -0.00000000000E+00 -0.14783492227E+03  0.14783492227E+03  0.00000000000E+00 0. -1.
         25    2    1    2    0    0  0.66100362949E+02 -0.13335434835E+03  0.53343060042E+03  0.56773730367E+03  0.12499920127E+03 0.  0.
          2    1    1    2  501    0 -0.29356959630E+01 -0.58155816100E+02 -0.11927181884E+03  0.13272710359E+03  0.00000000000E+00 0. -1.
          1    1    1    2  502    0 -0.63164666986E+02  0.19151016445E+03  0.21666638859E+04  0.21760281047E+04  0.00000000000E+00 0. -1.
         22    1    3    3    0    0  0.40193741081E+02 -0.57661328800E+02  0.76628176818E+02  0.10398193662E+03  0.00000000000E+00 0. -1.
         22    1    3    3    0    0  0.25906621867E+02 -0.75693019546E+02  0.45680242360E+03  0.46375536705E+03  0.00000000000E+00 0. -1.
</event>
<event>
 7    1  0.6152634E-006  0.5625804E+02  0.7818608E-02  0.1501045E+00
          2   -1    0    0  502    0  0.00000000000E+00  0.00000000000E+00  0.15604043093E+04  0.15604043093E+04  0.00000000000E+00 0. -1.
          1   -1    0    0  501    0 -0.00000000000E+00 -0.00000000000E+00 -0.23724047313E+03  0.23724047313E+03  0.00000000000E+00 0. -1.
         25    2    1    2    0    0  0.45690954047E+02  0.17936251709E+02 -0.26544087361E+02  0.13688878961E+03  0.12499831895E+03 0.  0.
          2    1    1    2  501    0 -0.56749759637E+02  0.98076403758E+01 -0.15003872105E+03  0.16071198724E+03  0.00000000000E+00 0. -1.
          1    1    1    2  502    0  0.11058805590E+02 -0.27743892085E+02  0.14997466446E+04  0.15000440056E+04  0.00000000000E+00 0. -1.
         22    1    3    3    0    0 -0.41730786694E+02 -0.91437138225E+01 -0.67128919770E+01  0.43244987909E+02  0.00000000000E+00 0.  1.
         22    1    3    3    0    0  0.87421740741E+02  0.27079965531E+02 -0.19831195384E+02  0.93643801704E+02  0.00000000000E+00 0.  1.
</event>
<event>
 7    1  0.6152634E-006  0.1225260E+03  0.7818608E-02  0.1257614E+00
          2   -1    0    0  502    0  0.00000000000E+00  0.00000000000E+00  0.11411563991E+04  0.11411563991E+04  0.00000000000E+00 0. -1.
          1   -1    0    0  501    0 -0.00000000000E+00 -0.00000000000E+00 -0.13376985450E+03  0.13376985450E+03  0.00000000000E+00 0. -1.
         25    2    1    2    0    0 -0.35890833583E+02  0.33975310719E+02  0.95723013463E+02  0.16501701552E+03  0.12500098572E+03 0.  0.
          2    1    1    2  501    0  0.23007957865E+02  0.99031905405E+02 -0.67262010277E+02  0.12190513705E+03  0.00000000000E+00 0. -1.
          1    1    1    2  502    0  0.12882875718E+02 -0.13300721612E+03  0.97892554140E+03  0.98800410102E+03  0.00000000000E+00 0. -1.
         22    1    3    3    0    0 -0.37036488413E+02 -0.29831536062E+02  0.88919839065E+02  0.10083828537E+03  0.00000000000E+00 0.  1.
         22    1    3    3    0    0  0.11456548299E+01  0.63806846781E+02  0.68031743974E+01  0.64178730145E+02  0.00000000000E+00 0.  1.
</event>
<event>
 7    1  0.6152634E-006  0.1424651E+03  0.7818608E-02  0.1306299E+00
          2   -1    0    0  502    0  0.00000000000E+00  0.00000000000E+00  0.15078890940E+03  0.15078890940E+03  0.00000000000E+00 0. -1.
          1   -1    0    0  501    0 -0.00000000000E+00 -0.00000000000E+00 -0.23439605655E+04  0.23439605655E+04  0.00000000000E+00 0. -1.
         25    2    1    2    0    0  0.10560179418E+03 -0.16305499491E+03 -0.28979916322E+03  0.37060445540E+03  0.12500174822E+03 0.  0.
          2    1    1    2  501    0 -0.72454072614E+02  0.11905279262E+03 -0.20043114435E+04  0.20091509457E+04  0.00000000000E+00 0. -1.
          1    1    1    2  502    0 -0.33147721568E+02  0.44002202291E+02  0.10093895063E+03  0.11499407379E+03  0.00000000000E+00 0. -1.
         22    1    3    3    0    0 -0.12970080460E+02 -0.91241843967E+02 -0.10778533693E+03  0.14181317264E+03  0.00000000000E+00 0. -1.
         22    1    3    3    0    0  0.11857187464E+03 -0.71813150944E+02 -0.18201382629E+03  0.22879128276E+03  0.00000000000E+00 0. -1.
</event>
<event>
 7    1  0.6152634E-006  0.6018282E+02  0.7818608E-02  0.1528409E+00
          2   -1    0    0  502    0  0.00000000000E+00  0.00000000000E+00  0.17289396265E+03  0.17289396265E+03  0.00000000000E+00 0. -1.
          1   -1    0    0  501    0 -0.00000000000E+00 -0.00000000000E+00 -0.14806085644E+04  0.14806085644E+04  0.00000000000E+00 0. -1.
         25    2    1    2    0    0 -0.13876613938E+02  0.37544239399E+02 -0.54406623657E+03  0.55967437026E+03  0.12500080250E+03 0.  0.
          2    1    1    2  501    0  0.62391795799E+01  0.22365885982E+02 -0.92306378329E+03  0.92335578638E+03  0.00000000000E+00 0. -1.
          1    1    1    2  502    0  0.76374343580E+01 -0.59910125381E+02  0.15941541813E+03  0.17047237039E+03  0.00000000000E+00 0. -1.
         22    1    3    3    0    0  0.49073037940E+02 -0.10266258466E+02 -0.26134312999E+03  0.26610860698E+03  0.00000000000E+00 0.  1.
         22    1    3    3    0    0 -0.62949651878E+02  0.47810497865E+02 -0.28272310658E+03  0.29356576328E+03  0.00000000000E+00 0.  1.
</event>
<event>
 7    1  0.6152634E-006  0.1214047E+03  0.7818608E-02  0.1349572E+00
          2   -1    0    0  502    0  0.00000000000E+00  0.00000000000E+00  0.88573686918E+03  0.88573686918E+03  0.00000000000E+00 0. -1.
          1   -1    0    0  501    0 -0.00000000000E+00 -0.00000000000E+00 -0.37259239907E+03  0.37259239907E+03  0.00000000000E+00 0. -1.
         25    2    1    2    0    0 -0.91148369151E+02  0.46038946687E+02  0.35883389013E+02  0.16530346818E+03  0.12494002231E+03 0.  0.
          2    1    1    2  501    0  0.12345362821E+03 -0.15986716753E+02 -0.29464353462E+03  0.31986119790E+03  0.00000000000E+00 0. -1.
          1    1    1    2  502    0 -0.32305259054E+02 -0.30052229934E+02  0.77190461571E+03  0.77316460217E+03  0.00000000000E+00 0. -1.
         22    1    3    3    0    0 -0.38269578215E+02 -0.36657421658E+02  0.41015749250E+02  0.67012080000E+02  0.00000000000E+00 0. -1.
         22    1    3    3    0    0 -0.52878790935E+02  0.82696368345E+02 -0.51323602369E+01  0.98291388178E+02  0.00000000000E+00 0. -1.
</event>
<event>
 7    1  0.6152634E-006  0.5051347E+02  0.7818608E-02  0.1472755E+00
          2   -1    0    0  502    0  0.00000000000E+00  0.00000000000E+00  0.13262061797E+04  0.13262061797E+04  0.00000000000E+00 0. -1.
          1   -1    0    0  501    0 -0.00000000000E+00 -0.00000000000E+00 -0.42443878248E+03  0.42443878248E+03  0.00000000000E+00 0. -1.
         25    2    1    2    0    0 -0.26812871406E+02  0.41872461620E+02 -0.26298418222E+03  0.29539550258E+03  0.12500235890E+03 0.  0.
          2    1    1    2  501    0 -0.12132499022E+02 -0.53146373159E+02 -0.13980798384E+03  0.15006001086E+03  0.00000000000E+00 0. -1.
          1    1    1    2  502    0  0.38945370427E+02  0.11273911539E+02  0.13045595633E+04  0.13051894488E+04  0.00000000000E+00 0. -1.
         22    1    3    3    0    0  0.16164674678E+02  0.27132053062E+02 -0.32860883899E+01  0.31752848497E+02  0.00000000000E+00 0. -1.
         22    1    3    3    0    0 -0.42977546084E+02  0.14740408558E+02 -0.25969809383E+03  0.26364265408E+03  0.00000000000E+00 0. -1.
</event>
<event>
 7    1  0.6152634E-006  0.5521634E+02  0.7818608E-02  0.1526230E+00
          2   -1    0    0  502    0  0.00000000000E+00  0.00000000000E+00  0.13220171716E+04  0.13220171716E+04  0.00000000000E+00 0. -1.
          1   -1    0    0  501    0 -0.00000000000E+00 -0.00000000000E+00 -0.94448763741E+02  0.94448763741E+02  0.00000000000E+00 0. -1.
         25    2    1    2    0    0 -0.77322523082E+00 -0.79652286488E+02  0.90534127493E+03  0.91739345398E+03  0.12499136250E+03 0.  0.
          2    1    1    2  501    0 -0.53858672789E+01  0.54725908524E+02 -0.79423275656E+02  0.96602222263E+02  0.00000000000E+00 0. -1.
          1    1    1    2  502    0  0.61590925098E+01  0.24926377964E+02  0.40165040858E+03  0.40247025909E+03  0.00000000000E+00 0. -1.
         22    1    3    3    0    0  0.55318600239E+02 -0.48537772520E+02  0.64855177351E+03  0.65271392341E+03  0.00000000000E+00 0. -1.
         22    1    3    3    0    0 -0.56091825470E+02 -0.31114513968E+02  0.25678950142E+03  0.26467953057E+03  0.00000000000E+00 0. -1.
</event>
<event>
 7    1  0.6152634E-006  0.5346463E+02  0.7818608E-02  0.1454513E+00
          2   -1    0    0  502    0  0.00000000000E+00  0.00000000000E+00  0.10222227066E+04  0.10222227066E+04  0.00000000000E+00 0. -1.
          1   -1    0    0  501    0 -0.00000000000E+00 -0.00000000000E+00 -0.51190272678E+03  0.51190272678E+03  0.00000000000E+00 0. -1.
         25    2    1    2    0    0 -0.31209981054E+02 -0.74908387782E+02  0.13259730194E+03  0.19948075104E+03  0.12500078431E+03 0.  0.
          2    1    1    2  501    0  0.42179327107E+02  0.32602943677E+02 -0.47641557168E+03  0.47938903253E+03  0.00000000000E+00 0. -1.
          1    1    1    2  502    0 -0.10969346053E+02  0.42305444105E+02  0.85413824953E+03  0.85525564977E+03  0.00000000000E+00 0. -1.
         22    1    3    3    0    0  0.24939080534E+02  0.16481125538E+02  0.67975443125E+02  0.74257969976E+02  0.00000000000E+00 0.  1.
         22    1    3    3    0    0 -0.56149061588E+02 -0.91389513320E+02  0.64621858811E+02  0.12522278107E+03  0.00000000000E+00 0.  1.
</event>
<event>
 7    1  0.6152634E-006  0.8472935E+02  0.7818608E-02  0.1360783E+00
          2   -1    0    0  502    0  0.00000000000E+00  0.00000000000E+00  0.13604804704E+04  0.13604804704E+04  0.00000000000E+00 0. -1.
          1   -1    0    0  501    0 -0.00000000000E+00 -0.00000000000E+00 -0.13754760711E+04  0.13754760711E+04  0.00000000000E+00 0. -1.
         25    2    1    2    0    0 -0.58112912732E+02  0.12713819652E+03  0.12241635896E+03  0.22395050605E+03  0.12500733011E+03 0.  0.
          2    1    1    2  501    0  0.16694197474E+02 -0.55020421089E+02 -0.13226272935E+04  0.13238764672E+04  0.00000000000E+00 0. -1.
          1    1    1    2  502    0  0.41418715258E+02 -0.72117775431E+02  0.11852153338E+04  0.11881295682E+04  0.00000000000E+00 0. -1.
         22    1    3    3    0    0 -0.76679800284E+02  0.12164946516E+03  0.13784215617E+03  0.19919549232E+03  0.00000000000E+00 0.  1.
         22    1    3    3    0    0  0.18566887552E+02  0.54887313614E+01 -0.15425797208E+02  0.24755013731E+02  0.00000000000E+00 0.  1.
</event>
<event>
 7    1  0.6152634E-006  0.1213473E+03  0.7818608E-02  0.1368479E+00
          2   -1    0    0  502    0  0.00000000000E+00  0.00000000000E+00  0.11953156785E+04  0.11953156785E+04  0.00000000000E+00 0. -1.
          1   -1    0    0  501    0 -0.00000000000E+00 -0.00000000000E+00 -0.44504975320E+02  0.44504975320E+02  0.00000000000E+00 0. -1.
         25    2    1    2    0    0  0.14473578191E+03  0.94297839969E+01  0.64079462878E+03  0.66878984497E+03  0.12499893225E+03 0.  0.
          2    1    1    2  501    0 -0.11352360311E+03 -0.30484161145E+02  0.86742544866E+02  0.14608614457E+03  0.00000000000E+00 0. -1.
          1    1    1    2  502    0 -0.31212178794E+02  0.21054377148E+02  0.42327352954E+03  0.42494466430E+03  0.00000000000E+00 0. -1.
         22    1    3    3    0    0  0.24213100420E+02 -0.41624446917E+02  0.84061744089E+02  0.96877477426E+02  0.00000000000E+00 0. -1.
         22    1    3    3    0    0  0.12052268149E+03  0.51054230914E+02  0.55673288469E+03  0.57191236754E+03  0.00000000000E+00 0. -1.
</event>
<event>
 7    1  0.6152634E-006  0.8615381E+02  0.7818608E-02  0.1341943E+00
          2   -1    0    0  502    0  0.00000000000E+00  0.00000000000E+00  0.62490082676E+03  0.62490082676E+03  0.00000000000E+00 0. -1.
          1   -1    0    0  501    0 -0.00000000000E+00 -0.00000000000E+00 -0.98820456348E+03  0.98820456348E+03  0.00000000000E+00 0. -1.
         25    2    1    2    0    0  0.48609894543E+02  0.11518555513E+02 -0.16897560834E+02  0.13567068739E+03  0.12500163553E+03 0.  0.
          2    1    1    2  501    0 -0.60368296509E+01  0.66109968846E+02 -0.90723494005E+03  0.90966049037E+03  0.00000000000E+00 0. -1.
          1    1    1    2  502    0 -0.42573064892E+02 -0.77628524358E+02  0.56082876416E+03  0.56777421248E+03  0.00000000000E+00 0. -1.
         22    1    3    3    0    0 -0.26685282402E+02 -0.27880463887E+02  0.19481119014E+02  0.43231222068E+02  0.00000000000E+00 0. -1.
         22    1    3    3    0    0  0.75295176945E+02  0.39399019400E+02 -0.36378679848E+02  0.92439465318E+02  0.00000000000E+00 0. -1.
</event>
<event>
 7    1  0.6152634E-006  0.4943669E+02  0.7818608E-02  0.1467940E+00
          2   -1    0    0  502    0  0.00000000000E+00  0.00000000000E+00  0.28897924431E+03  0.28897924431E+03  0.00000000000E+00 0. -1.
          1   -1    0    0  501    0 -0.00000000000E+00 -0.00000000000E+00 -0.14625752019E+04  0.14625752019E+04  0.00000000000E+00 0. -1.
         25    2    1    2    0    0 -0.80073181955E+02 -0.31191114091E+01 -0.35045080597E+03  0.38060974684E+03  0.12500627448E+03 0.  0.
          2    1    1    2  501    0  0.37228406984E+02 -0.21278474105E+02 -0.10944028486E+04  0.10952425863E+04  0.00000000000E+00 0. -1.
          1    1    1    2  502    0  0.42844774971E+02  0.24397585514E+02  0.27125769705E+03  0.27570211304E+03  0.00000000000E+00 0. -1.
         22    1    3    3    0    0 -0.19734095055E+02  0.58712885314E+02 -0.15485133546E+03  0.16678001530E+03  0.00000000000E+00 0.  1.
         22    1    3    3    0    0 -0.60339086900E+02 -0.61831996723E+02 -0.19559947050E+03  0.21382973153E+03  0.00000000000E+00 0.  1.
</event>
<event>
 7    1  0.6152634E-006  0.7642947E+02  0.7818608E-02  0.1382094E+00
          2   -1    0    0  502    0  0.00000000000E+00  0.00000000000E+00  0.13638759326E+04  0.13638759326E+04  0.00000000000E+00 0. -1.
          1   -1    0    0  501    0 -0.00000000000E+00 -0.00000000000E+00 -0.20793160311E+04  0.20793160311E+04  0.00000000000E+00 0. -1.
         25    2    1    2    0    0  0.32477099790E+02 -0.97721301093E+02  0.62570485714E+02  0.17362106002E+03  0.12499996841E+03 0.  0.
          2    1    1    2  501    0 -0.57347885362E+02  0.50407879653E+02 -0.20224966989E+04  0.20239374080E+04  0.00000000000E+00 0. -1.
          1    1    1    2  502    0  0.24870785572E+02  0.47313421439E+02  0.12444861148E+04  0.12456334957E+04  0.00000000000E+00 0. -1.
         22    1    3    3    0    0  0.10885947166E+02 -0.29089076356E+02  0.91079990768E+02  0.96230156018E+02  0.00000000000E+00 0.  1.
         22    1    3    3    0    0  0.21591152624E+02 -0.68632224736E+02 -0.28509505054E+02  0.77390904002E+02  0.00000000000E+00 0.  1.
</event>
<event>
 7    1  0.6152634E-006  0.1670228E+03  0.7818608E-02  0.1236438E+00
          2   -1    0    0  502    0  0.00000000000E+00  0.00000000000E+00  0.82243062894E+03  0.82243062894E+03  0.00000000000E+00 0. -1.
          1   -1    0    0  501    0 -0.00000000000E+00 -0.00000000000E+00 -0.27921357748E+03  0.27921357748E+03  0.00000000000E+00 0. -1.
         25    2    1    2    0    0 -0.83166913630E+02  0.44167199642E+02 -0.76753883543E+02  0.17430728739E+03  0.12499757898E+03 0.  0.
          2    1    1    2  501    0 -0.29586731403E+02  0.87376378096E+02 -0.12899862105E+03  0.15858956573E+03  0.00000000000E+00 0. -1.
          1    1    1    2  502    0  0.11275364503E+03 -0.13154357774E+03  0.74896955606E+03  0.76874735330E+03  0.00000000000E+00 0. -1.
         22    1    3    3    0    0 -0.17083066905E+02 -0.31282221439E+02  0.14717953968E+02  0.38561985452E+02  0.00000000000E+00 0. -1.
         22    1    3    3    0    0 -0.66083846726E+02  0.75449421081E+02 -0.91471837512E+02  0.13574530193E+03  0.00000000000E+00 0. -1.
</event>
<event>
 7    1  0.6152634E-006  0.1013217E+03  0.7818608E-02  0.1402658E+00
          2   -1    0    0  502    0  0.00000000000E+00  0.00000000000E+00  0.17569992312E+04  0.17569992312E+04  0.00000000000E+00 0. -1.
          1   -1    0    0  501    0 -0.00000000000E+00 -0.00000000000E+00 -0.19481780712E+03  0.19481780712E+03  0.00000000000E+00 0. -1.
         25    2    1    2    0    0 -0.95976408805E+02  0.92216257247E+02  0.42565226569E+03  0.46316402881E+03  0.12500302857E+03 0.  0.
          2    1    1    2  501    0  0.66231997243E+02 -0.75339659428E+02 -0.16152977433E+03  0.19014365553E+03  0.00000000000E+00 0. -1.
          1    1    1    2  502    0  0.29744411562E+02 -0.16876597819E+02  0.12980589327E+04  0.12985093540E+04  0.00000000000E+00 0. -1.
         22    1    3    3    0    0 -0.11323607531E+03  0.92698026228E+02  0.42036070319E+03  0.44510499166E+03  0.00000000000E+00 0. -1.
         22    1    3    3    0    0  0.17259666502E+02 -0.48176898155E+00  0.52915625011E+01  0.18059037151E+02  0.00000000000E+00 0. -1.
</event>
<event>
 7    1  0.6152634E-006  0.6735365E+02  0.7818608E-02  0.1521893E+00
          2   -1    0    0  502    0  0.00000000000E+00  0.00000000000E+00  0.28915000222E+04  0.28915000222E+04  0.00000000000E+00 0. -1.
          1   -1    0    0  501    0 -0.00000000000E+00 -0.00000000000E+00 -0.19759265223E+03  0.19759265223E+03  0.00000000000E+00 0. -1.
         25    2    1    2    0    0  0.27869590060E+02 -0.36826322250E+02  0.57996321670E+02  0.14533294764E+03  0.12500080112E+03 0.  0.
          2    1    1    2  501    0  0.93754884906E+01 -0.19531365512E+02 -0.15275092097E+03  0.15427967423E+03  0.00000000000E+00 0. -1.
          1    1    1    2  502    0 -0.37245078551E+02  0.56357687762E+02  0.27886619693E+04  0.27894800526E+04  0.00000000000E+00 0. -1.
         22    1    3    3    0    0 -0.41831136967E+02 -0.46349850519E+02  0.33407724858E+02  0.70811219049E+02  0.00000000000E+00 0. -1.
         22    1    3    3    0    0  0.69700727027E+02  0.95235282686E+01  0.24588596812E+02  0.74521728589E+02  0.00000000000E+00 0. -1.
</event>
<event>
 7    1  0.6152634E-006  0.1116179E+03  0.7818608E-02  0.1329906E+00
          2   -1    0    0  502    0  0.00000000000E+00  0.00000000000E+00  0.99369310559E+02  0.99369310559E+02  0.00000000000E+00 0. -1.
          1   -1    0    0  501    0 -0.00000000000E+00 -0.00000000000E+00 -0.16042656105E+04  0.16042656105E+04  0.00000000000E+00 0. -1.
         25    2    1    2    0    0 -0.13459342092E+03 -0.76902080744E+02 -0.16291837072E+03  0.25728825724E+03  0.12500213124E+03 0.  0.
          2    1    1    2  501    0  0.39570697228E+02  0.40899161682E+02 -0.13435156989E+04  0.13447204225E+04  0.00000000000E+00 0. -1.
          1    1    1    2  502    0  0.95022723694E+02  0.36002919062E+02  0.15377696314E+01  0.10162624137E+03  0.00000000000E+00 0. -1.
         22    1    3    3    0    0 -0.72555799678E+01 -0.63046470333E+02 -0.89288902870E+02  0.10954455275E+03  0.00000000000E+00 0.  1.
         22    1    3    3    0    0 -0.12733784095E+03 -0.13855610411E+02 -0.73629467854E+02  0.14774370449E+03  0.00000000000E+00 0.  1.
</event>
<event>
 7    1  0.6152634E-006  0.9117498E+02  0.7818608E-02  0.1374167E+00
          2   -1    0    0  502    0  0.00000000000E+00  0.00000000000E+00  0.27686262670E+04  0.27686262670E+04  0.00000000000E+00 0. -1.
          1   -1    0    0  501    0 -0.00000000000E+00 -0.00000000000E+00 -0.10671725285E+04  0.10671725285E+04  0.00000000000E+00 0. -1.
         25    2    1    2    0    0 -0.37462892849E+02 -0.10793430212E+03  0.19928812158E+03  0.26152189361E+03  0.12499865405E+03 0.  0.
          2    1    1    2  501    0  0.61859545093E+02  0.66819021552E+02 -0.10338291959E+04  0.10378314850E+04  0.00000000000E+00 0. -1.
          1    1    1    2  502    0 -0.24396652244E+02  0.41115280572E+02  0.25359948127E+04  0.25364454169E+04  0.00000000000E+00 0. -1.
         22    1    3    3    0    0  0.27006384117E+01 -0.10882783783E+03  0.78457289398E+02  0.13418769688E+03  0.00000000000E+00 0. -1.
         22    1    3    3    0    0 -0.40163531261E+02  0.89353570260E+00  0.12083083219E+03  0.12733419673E+03  0.00000000000E+00 0. -1.
</event>
<event>
 7    1  0.6152634E-006  0.5097855E+02  0.7818608E-02  0.1485918E+00
          2   -1    0    0  502    0  0.00000000000E+00  0.00000000000E+00  0.19488568318E+04  0.19488568318E+04  0.00000000000E+00 0. -1.
          1   -1    0    0  501    0 -0.00000000000E+00 -0.00000000000E+00 -0.79397902361E+02  0.79397902361E+02  0.00000000000E+00 0. -1.
         25    2    1    2    0    0  0.64172040588E+02  0.16975820379E+02  0.54373210942E+02  0.15161480873E+03  0.12499749952E+03 0.  0.
          2    1    1    2  501    0 -0.47180191353E+02  0.15445630373E+02 -0.10454326756E+02  0.50732937049E+02  0.00000000000E+00 0. -1.
          1    1    1    2  502    0 -0.16991849235E+02 -0.32421450751E+02  0.18255400453E+04  0.18259069884E+04  0.00000000000E+00 0. -1.
         22    1    3    3    0    0 -0.23602137105E+02  0.46054015166E+01  0.58115534838E+02  0.62894244479E+02  0.00000000000E+00 0. -1.
         22    1    3    3    0    0  0.87774177693E+02  0.12370418862E+02 -0.37423238965E+01  0.88720564249E+02  0.00000000000E+00 0. -1.
</event>
<event>
 7    1  0.6152634E-006  0.4726545E+02  0.7818608E-02  0.1480798E+00
          2   -1    0    0  502    0  0.00000000000E+00  0.00000000000E+00  0.21344414463E+03  0.21344414463E+03  0.00000000000E+00 0. -1.
          1   -1    0    0  501    0 -0.00000000000E+00 -0.00000000000E+00 -0.34803733815E+03  0.34803733815E+03  0.00000000000E+00 0. -1.
         25    2    1    2    0    0  0.77050042306E+02  0.30511553198E+02  0.73097328003E+02  0.16684074494E+03  0.12499980366E+03 0.  0.
          2    1    1    2  501    0 -0.34348380356E+02 -0.22252897755E+02 -0.29461413049E+03  0.29744325269E+03  0.00000000000E+00 0. -1.
          1    1    1    2  502    0 -0.42701661951E+02 -0.82586554424E+01  0.86923608959E+02  0.97197485140E+02  0.00000000000E+00 0. -1.
         22    1    3    3    0    0  0.34451732849E+02  0.63006574801E+02 -0.51649209666E+01  0.71996019148E+02  0.00000000000E+00 0.  1.
         22    1    3    3    0    0  0.42598309457E+02 -0.32495021604E+02  0.78262248969E+02  0.94844725797E+02  0.00000000000E+00 0.  1.
</event>
<event>
 7    1  0.6152634E-006  0.6790652E+02  0.7818608E-02  0.1406562E+00
          2   -1    0    0  502    0  0.00000000000E+00  0.00000000000E+00  0.57879520629E+03  0.57879520629E+03  0.00000000000E+00 0. -1.
          1   -1    0    0  501    0 -0.00000000000E+00 -0.00000000000E+00 -0.29664898666E+03  0.29664898666E+03  0.00000000000E+00 0. -1.
         25    2    1    2    0    0 -0.45523010367E+02 -0.37991107189E+02  0.33226385003E+02  0.14228180134E+03  0.12499779852E+03 0.  0.
          2    1    1    2  501    0  0.69100193164E+02 -0.55152803802E+01 -0.23587423903E+03  0.24584936781E+03  0.00000000000E+00 0. -1.
          1    1    1    2  502    0 -0.23577182797E+02  0.43506387569E+02  0.48479407366E+03  0.48731302380E+03  0.00000000000E+00 0. -1.
         22    1    3    3    0    0 -0.54160626333E+01 -0.39514486915E+02 -0.41437841980E+02  0.57513678013E+02  0.00000000000E+00 0.  1.
         22    1    3    3    0    0 -0.40106947734E+02  0.15233797264E+01  0.74664226983E+02  0.84768123332E+02  0.00000000000E+00 0.  1.
</event>
<event>
 7    1  0.6152634E-006  0.5678227E+02  0.7818608E-02  0.1487214E+00
          2   -1    0    0  502    0  0.00000000000E+00  0.00000000000E+00  0.63377545039E+03  0.63377545039E+03  0.00000000000E+00 0. -1.
          1   -1    0    0  501    0 -0.00000000000E+00 -0.00000000000E+00 -0.21081414255E+03  0.21081414255E+03  0.00000000000E+00 0. -1.
         25    2    1    2    0    0  0.77935311524E+02  0.39270956340E+02  0.19377373644E+03  0.24655528895E+03  0.12500051513E+03 0.  0.
          2    1    1    2  501    0 -0.53221746883E+02 -0.18062552857E+02 -0.17947849913E+03  0.18807270351E+03  0.00000000000E+00 0. -1.
          1    1    1    2  502    0 -0.24713564641E+02 -0.21208403482E+02  0.40866607053E+03  0.40996160047E+03  0.00000000000E+00 0. -1.
         22    1    3    3    0    0  0.54274938181E+02 -0.52456791680E+01  0.92978605497E+01  0.55314882946E+02  0.00000000000E+00 0.  1.
         22    1    3    3    0    0  0.23660373343E+02  0.44516635508E+02  0.18447587589E+03  0.19124040601E+03  0.00000000000E+00 0.  1.
</event>
<event>
 7    1  0.6152634E-006  0.8471257E+02  0.7818608E-02  0.1328096E+00
          2   -1    0    0  502    0  0.00000000000E+00  0.00000000000E+00  0.27621432540E+03  0.27621432540E+03  0.00000000000E+00 0. -1.
          1   -1    0    0  501    0 -0.00000000000E+00 -0.00000000000E+00 -0.38778105081E+03  0.38778105081E+03  0.00000000000E+00 0. -1.
         25    2    1    2    0    0 -0.67131488855E+02 -0.14132438364E+02  0.58956310383E+02  0.15429472275E+03  0.12499860929E+03 0.  0.
          2    1    1    2  501    0 -0.63139237050E+01  0.75926649056E+02 -0.32171570379E+03  0.33061414933E+03  0.00000000000E+00 0. -1.
          1    1    1    2  502    0  0.73445412560E+02 -0.61794210691E+02  0.15119266800E+03  0.17908650412E+03  0.00000000000E+00 0. -1.
         22    1    3    3    0    0  0.13379166720E+02 -0.26641399707E+02 -0.23810333581E+02  0.38153614058E+02  0.00000000000E+00 0.  1.
         22    1    3    3    0    0 -0.80510655575E+02  0.12508961342E+02  0.82766643964E+02  0.11614110869E+03  0.00000000000E+00 0.  1.
</event>
<event>
 7    1  0.6152634E-006  0.6543304E+02  0.7818608E-02  0.1501120E+00
          2   -1    0    0  502    0  0.00000000000E+00  0.00000000000E+00  0.27264203678E+04  0.27264203678E+04  0.00000000000E+00 0. -1.
          1   -1    0    0  501    0 -0.00000000000E+00 -0.00000000000E+00 -0.15747005899E+02  0.15747005899E+02  0.00000000000E+00 0. -1.
         25    2    1    2    0    0  0.50768788951E+02 -0.18045856867E+02  0.12455979601E+04  0.12530133362E+04  0.12500007873E+03 0.  0.
          2    1    1    2  501    0 -0.50194112449E+02  0.43704937982E+02  0.80979005035E+02  0.10481970132E+03  0.00000000000E+00 0. -1.
          1    1    1    2  502    0 -0.57467650155E+00 -0.25659081115E+02  0.13840963968E+04  0.13843343362E+04  0.00000000000E+00 0. -1.
         22    1    3    3    0    0 -0.15580464318E+02  0.32607930432E+02  0.15212041313E+03  0.15635423911E+03  0.00000000000E+00 0.  1.
         22    1    3    3    0    0  0.66349253269E+02 -0.50653787299E+02  0.10934775469E+04  0.10966590971E+04  0.00000000000E+00 0.  1.
</event>
<event>
 7    1  0.6152634E-006  0.7994206E+02  0.7818608E-02  0.1394365E+00
          2   -1    0    0  502    0  0.00000000000E+00  0.00000000000E+00  0.12708913807E+03  0.12708913807E+03  0.00000000000E+00 0. -1.
          1   -1    0    0  501    0 -0.00000000000E+00 -0.00000000000E+00 -0.99420281154E+03  0.99420281154E+03  0.00000000000E+00 0. -1.
         25    2    1    2    0    0  0.41812016832E+02  0.39551881822E+02 -0.21092515423E+03  0.25184708412E+03  0.12499974794E+03 0.  0.
          2    1    1    2  501    0 -0.20721778384E+02 -0.80761662254E+02 -0.75538786842E+03  0.75997544035E+03  0.00000000000E+00 0. -1.
          1    1    1    2  502    0 -0.21090238447E+02  0.41209780432E+02  0.99199349184E+02  0.10946942514E+03  0.00000000000E+00 0. -1.
         22    1    3    3    0    0 -0.20064014883E+02  0.65851434060E+02 -0.87894208101E+02  0.11164393346E+03  0.00000000000E+00 0.  1.
         22    1    3    3    0    0  0.61876031715E+02 -0.26299552238E+02 -0.12303094613E+03  0.14020315066E+03  0.00000000000E+00 0.  1.
</event>
<event>
 7    1  0.6152634E-006  0.2894594E+03  0.7818608E-02  0.1330966E+00
          2   -1    0    0  502    0  0.00000000000E+00  0.00000000000E+00  0.15892691123E+03  0.15892691123E+03  0.00000000000E+00 0. -1.
          1   -1    0    0  501    0 -0.00000000000E+00 -0.00000000000E+00 -0.84502675695E+03  0.84502675695E+03  0.00000000000E+00 0. -1.
         25    2    1    2    0    0  0.78782995957E+02  0.27687332177E+03 -0.27107393359E+03  0.41469159146E+03  0.12498976678E+03 0.  0.
          2    1    1    2  501    0 -0.58517444618E+02 -0.28474578528E+03 -0.45721389778E+03  0.54180162595E+03  0.00000000000E+00 0. -1.
          1    1    1    2  502    0 -0.20265551339E+02  0.78724635088E+01  0.42187985651E+02  0.47460450757E+02  0.00000000000E+00 0. -1.
         22    1    3    3    0    0  0.20692672033E+02  0.35898092474E+02 -0.11385193623E+03  0.12115743106E+03  0.00000000000E+00 0. -1.
         22    1    3    3    0    0  0.58090323924E+02  0.24097522930E+03 -0.15722199736E+03  0.29353416040E+03  0.00000000000E+00 0. -1.
</event>
<event>
 7    1  0.6152634E-006  0.1474387E+03  0.7818608E-02  0.1283919E+00
          2   -1    0    0  502    0  0.00000000000E+00  0.00000000000E+00  0.14778790977E+04  0.14778790977E+04  0.00000000000E+00 0. -1.
          1   -1    0    0  501    0 -0.00000000000E+00 -0.00000000000E+00 -0.69272467928E+02  0.69272467928E+02  0.00000000000E+00 0. -1.
         25    2    1    2    0    0  0.11021486028E+03  0.32805369648E+02  0.30884553449E+03  0.35246957286E+03  0.12500291162E+03 0.  0.
          2    1    1    2  501    0 -0.16348188299E+03  0.53699085965E+01  0.97795975599E+02  0.19057600800E+03  0.00000000000E+00 0. -1.
          1    1    1    2  502    0  0.53267022707E+02 -0.38175278245E+02  0.10019651197E+04  0.10041059848E+04  0.00000000000E+00 0. -1.
         22    1    3    3    0    0  0.98313492892E+02  0.48452531016E+02  0.11967987792E+03  0.16228513125E+03  0.00000000000E+00 0.  1.
         22    1    3    3    0    0  0.11901367390E+02 -0.15647161368E+02  0.18916565657E+03  0.19018444161E+03  0.00000000000E+00 0.  1.
</event>
<event>
 7    1  0.6152634E-006  0.1198495E+03  0.7818608E-02  0.1273891E+00
          2   -1    0    0  502    0  0.00000000000E+00  0.00000000000E+00  0.43060732484E+04  0.43060732484E+04  0.00000000000E+00 0. -1.
          1   -1    0    0  501    0 -0.00000000000E+00 -0.00000000000E+00 -0.25761828567E+02  0.25761828567E+02  0.00000000000E+00 0. -1.
         25    2    1    2    0    0  0.10182447777E+03 -0.11084260091E+03  0.62030527021E+03  0.65042925372E+03  0.12500111760E+03 0.  0.
          2    1    1    2  501    0 -0.11104799946E+03  0.22616643108E+02  0.30737311126E+03  0.32759945093E+03  0.00000000000E+00 0. -1.
          1    1    1    2  502    0  0.92235216889E+01  0.88225957798E+02  0.33526330384E+04  0.33538063723E+04  0.00000000000E+00 0. -1.
         22    1    3    3    0    0  0.11886684882E+03 -0.12460965653E+03  0.57255268331E+03  0.59789085075E+03  0.00000000000E+00 0. -1.
         22    1    3    3    0    0 -0.17042371044E+02  0.13767055620E+02  0.47752586897E+02  0.52538402970E+02  0.00000000000E+00 0. -1.
</event>
<event>
 7    1  0.6152634E-006  0.1243155E+03  0.7818608E-02  0.1291263E+00
          2   -1    0    0  502    0  0.00000000000E+00  0.00000000000E+00  0.54642893064E+03  0.54642893064E+03  0.00000000000E+00 0. -1.
          1   -1    0    0  501    0 -0.00000000000E+00 -0.00000000000E+00 -0.11832590728E+03  0.11832590728E+03  0.00000000000E+00 0. -1.
         25    2    1    2    0    0  0.49037479063E+02 -0.11301365760E+03  0.11504060239E+03  0.20984770212E+03  0.12499982691E+03 0.  0.
          2    1    1    2  501    0  0.58652007767E+02  0.42682811078E+02 -0.37382108071E+02  0.81604548773E+02  0.00000000000E+00 0. -1.
          1    1    1    2  502    0 -0.10768948683E+03  0.70330846525E+02  0.35044452904E+03  0.37330258703E+03  0.00000000000E+00 0. -1.
         22    1    3    3    0    0  0.31566284650E+02  0.18784223102E+02  0.46193176752E+01  0.37021824103E+02  0.00000000000E+00 0. -1.
         22    1    3    3    0    0  0.17471194413E+02 -0.13179788070E+03  0.11042128472E+03  0.17282587801E+03  0.00000000000E+00 0. -1.
</event>
<event>
 7    1  0.6152634E-006  0.1287250E+03  0.7818608E-02  0.1308330E+00
          2   -1    0    0  502    0  0.00000000000E+00  0.00000000000E+00  0.37018446689E+04  0.37018446689E+04  0.00000000000E+00 0. -1.
          1   -1    0    0  501    0 -0.00000000000E+00 -0.00000000000E+00 -0.50417328565E+02  0.50417328565E+02  0.00000000000E+00 0. -1.
         25    2    1    2    0    0 -0.92504644553E+02 -0.80920133199E+02  0.52189895164E+03  0.55055474947E+03  0.12500735669E+03 0.  0.
          2    1    1    2  501    0 -0.34041261905E+02  0.49229125205E+02 -0.89507921212E+01  0.60518021780E+02  0.00000000000E+00 0. -1.
          1    1    1    2  502    0  0.12654590646E+03  0.31691007994E+02  0.31384791808E+04  0.31411892262E+04  0.00000000000E+00 0. -1.
         22    1    3    3    0    0 -0.87108225259E+02 -0.53996019387E+02  0.51072892290E+03  0.52091020887E+03  0.00000000000E+00 0.  1.
         22    1    3    3    0    0 -0.53964192934E+01 -0.26924113812E+02  0.11170028740E+02  0.29644540607E+02  0.00000000000E+00 0.  1.
</event>
<event>
 7    1  0.6152634E-006  0.9911802E+02  0.7818608E-02  0.1329258E+00
          2   -1    0    0  502    0  0.00000000000E+00  0.00000000000E+00  0.13489798053E+04  0.13489798053E+04  0.00000000000E+00 0. -1.
          1   -1    0    0  501    0 -0.00000000000E+00 -0.00000000000E+00 -0.53726097729E+03  0.53726097729E+03  0.00000000000E+00 0. -1.
         25    2    1    2    0    0  0.87296648074E+02 -0.10610652637E+03  0.19046342567E+03  0.26604699912E+03  0.12500155807E+03 0.  0.
          2    1    1    2  501    0 -0.89331572748E+02  0.41686530404E+02 -0.49366530112E+03  0.50341168663E+03  0.00000000000E+00 0. -1.
          1    1    1    2  502    0  0.20349246746E+01  0.64419995967E+02  0.11149207034E+04  0.11167820968E+04  0.00000000000E+00 0. -1.
         22    1    3    3    0    0  0.15525398704E+02  0.13862967774E+02 -0.88302757494E+01  0.22609591996E+02  0.00000000000E+00 0. -1.
         22    1    3    3    0    0  0.71771249369E+02 -0.11996949415E+03  0.19929370142E+03  0.24343740712E+03  0.00000000000E+00 0. -1.
</event>
<event>
 7    1  0.6152634E-006  0.1333538E+03  0.7818608E-02  0.1288523E+00
          2   -1    0    0  502    0  0.00000000000E+00  0.00000000000E+00  0.11007053998E+04  0.11007053998E+04  0.00000000000E+00 0. -1.
          1   -1    0    0  501    0 -0.00000000000E+00 -0.00000000000E+00 -0.53677171988E+03  0.53677171988E+03  0.00000000000E+00 0. -1.
         25    2    1    2    0    0  0.64338490355E+02 -0.62351067105E+02  0.13214962618E+03  0.20276974864E+03  0.12499980141E+03 0.  0.
          2    1    1    2  501    0 -0.11506897015E+02 -0.68419086639E+02 -0.49369343784E+03  0.49854467269E+03  0.00000000000E+00 0. -1.
          1    1    1    2  502    0 -0.52831593340E+02  0.13077015374E+03  0.92547749156E+03  0.93616269833E+03  0.00000000000E+00 0. -1.
         22    1    3    3    0    0 -0.33036637929E+02 -0.11395486373E+02  0.65493851801E+02  0.74234231855E+02  0.00000000000E+00 0.  1.
         22    1    3    3    0    0  0.97375128284E+02 -0.50955580732E+02  0.66655774379E+02  0.12853551678E+03  0.00000000000E+00 0.  1.
</event>
<event>
 7    1  0.6152634E-006  0.6098953E+02  0.7818608E-02  0.1420787E+00
          2   -1    0    0  502    0  0.00000000000E+00  0.00000000000E+00  0.25233279513E+04  0.25233279513E+04  0.00000000000E+00 0. -1.
          1   -1    0    0  501    0 -0.00000000000E+00 -0.00000000000E+00 -0.77008330033E+03  0.77008330033E+03  0.00000000000E+00 0. -1.
         25    2    1    2    0    0  0.49727846738E+02 -0.32023004970E+02  0.12992340988E+04  0.13065729242E+04  0.12500092467E+03 0.  0.
          2    1    1    2  501    0  0.13518867234E+02  0.47448673878E+02 -0.76475025817E+03  0.76634006407E+03  0.00000000000E+00 0. -1.
          1    1    1    2  502    0 -0.63246713972E+02 -0.15425668908E+02  0.12187608104E+04  0.12204982634E+04  0.00000000000E+00 0. -1.
         22    1    3    3    0    0  0.66382029769E+01  0.47435432525E+02  0.45121483873E+03  0.45374994952E+03  0.00000000000E+00 0.  1.
         22    1    3    3    0    0  0.43089643761E+02 -0.79458437494E+02  0.84801926008E+03  0.85282297469E+03  0.00000000000E+00 0.  1.
</event>
<event>
 7    1  0.6152634E-006  0.8996170E+02  0.7818608E-02  0.1341772E+00
          2   -1    0    0  502    0  0.00000000000E+00  0.00000000000E+00  0.12671247730E+03  0.12671247730E+03  0.00000000000E+00 0. -1.
          1   -1    0    0  501    0 -0.00000000000E+00 -0.00000000000E+00 -0.82708090652E+03  0.82708090652E+03  0.00000000000E+00 0. -1.
         25    2    1    2    0    0 -0.13567799791E+03 -0.86503528338E+01 -0.78143184543E+01  0.18485654703E+03  0.12501012634E+03 0.  0.
          2    1    1    2  501    0  0.62861284977E+02  0.10109746535E+02 -0.69318490823E+03  0.69610276909E+03  0.00000000000E+00 0. -1.
          1    1    1    2  502    0  0.72816712932E+02 -0.14593937016E+01  0.63079746448E+00  0.72834067699E+02  0.00000000000E+00 0. -1.
         22    1    3    3    0    0  0.14048132487E+02 -0.26024878070E+02 -0.16518033678E+02  0.33874617954E+02  0.00000000000E+00 0.  1.
         22    1    3    3    0    0 -0.14972613040E+03  0.17374525237E+02  0.87037152234E+01  0.15098192908E+03  0.00000000000E+00 0.  1.
</event>
<event>
 7    1  0.6152634E-006  0.6237943E+02  0.7818608E-02  0.1453130E+00
          2   -1    0    0  502    0  0.00000000000E+00  0.00000000000E+00  0.29176004075E+03  0.29176004075E+03  0.00000000000E+00 0. -1.
          1   -1    0    0  501    0 -0.00000000000E+00 -0.00000000000E+00 -0.41017314477E+03  0.41017314477E+03  0.00000000000E+00 0. -1.
         25    2    1    2    0    0  0.31065623241E+02 -0.66236006913E+02  0.42162773486E+02  0.15086113155E+03  0.12501639887E+03 0.  0.
          2    1    1    2  501    0 -0.37593696395E+02  0.43099588454E+01 -0.34981277996E+03  0.35185343934E+03  0.00000000000E+00 0. -1.
          1    1    1    2  502    0  0.65280731541E+01  0.61926048067E+02  0.18923690245E+03  0.19921861463E+03  0.00000000000E+00 0. -1.
         22    1    3    3    0    0 -0.33182175456E+02  0.26441200046E+01 -0.19215459988E+02  0.38435426902E+02  0.00000000000E+00 0.  1.
         22    1    3    3    0    0  0.64247798696E+02 -0.68880126917E+02  0.61378233474E+02  0.11242570465E+03  0.00000000000E+00 0.  1.
</event>
<event>
 7    1  0.6152634E-006  0.1027004E+03  0.7818608E-02  0.1398733E+00
          2   -1    0    0  502    0  0.00000000000E+00  0.00000000000E+00  0.44190159846E+04  0.44190159846E+04  0.00000000000E+00 0. -1.
          1   -1    0    0  501    0 -0.00000000000E+00 -0.00000000000E+00 -0.75136505353E+02  0.75136505353E+02  0.00000000000E+00 0. -1.
         25    2    1    2    0    0 -0.10844250024E+03  0.64057874119E+02  0.51453735969E+03  0.54427635649E+03  0.12499948247E+03 0.  0.
          2    1    1    2  501    0  0.11563305940E+02 -0.32826390185E+02 -0.54519332110E+02  0.64681059906E+02  0.00000000000E+00 0. -1.
          1    1    1    2  502    0  0.96879194305E+02 -0.31231483934E+02  0.38838614516E+04  0.38851950735E+04  0.00000000000E+00 0. -1.
         22    1    3    3    0    0 -0.12468618785E+03  0.47371444141E+02  0.29797590658E+03  0.32646644554E+03  0.00000000000E+00 0.  1.
         22    1    3    3    0    0  0.16243687610E+02  0.16686429979E+02  0.21656145312E+03  0.21780991095E+03  0.00000000000E+00 0.  1.
</event>
<event>
 7    1  0.6152634E-006  0.5284296E+02  0.7818608E-02  0.1518385E+00
          2   -1    0    0  502    0  0.00000000000E+00  0.00000000000E+00  0.10732511662E+04  0.10732511662E+04  0.00000000000E+00 0. -1.
          1   -1    0    0  501    0 -0.00000000000E+00 -0.00000000000E+00 -0.78425770771E+02  0.78425770771E+02  0.00000000000E+00 0. -1.
         25    2    1    2    0    0 -0.58490456910E+02 -0.51862833770E+02  0.48536538264E+03  0.50726250281E+03  0.12499922004E+03 0.  0.
          2    1    1    2  501    0  0.44752757581E+02  0.27155707781E+02 -0.56918886333E+02  0.77330468753E+02  0.00000000000E+00 0. -1.
          1    1    1    2  502    0  0.13737699328E+02  0.24707125988E+02  0.56637889915E+03  0.56708396544E+03  0.00000000000E+00 0. -1.
         22    1    3    3    0    0 -0.29463240393E+01 -0.60690417102E+02  0.94346988554E+02  0.11222014883E+03  0.00000000000E+00 0.  1.
         22    1    3    3    0    0 -0.55544132870E+02  0.88275833323E+01  0.39101839409E+03  0.39504235398E+03  0.00000000000E+00 0.  1.
</event>
<event>
 7    1  0.6152634E-006  0.1208084E+03  0.7818608E-02  0.1362051E+00
          2   -1    0    0  502    0  0.00000000000E+00  0.00000000000E+00  0.59647789461E+03  0.59647789461E+03  0.00000000000E+00 0. -1.
          1   -1    0    0  501    0 -0.00000000000E+00 -0.00000000000E+00 -0.36652271670E+03  0.36652271670E+03  0.00000000000E+00 0. -1.
         25    2    1    2    0    0 -0.11009712830E+03  0.25282709033E+02 -0.16251387945E+02  0.16926364304E+03  0.12500192082E+03 0.  0.
          2    1    1    2  501    0  0.12252725746E+03  0.12630818959E+02 -0.25908350689E+03  0.28687406636E+03  0.00000000000E+00 0. -1.
          1    1    1    2  502    0 -0.12430129154E+02 -0.37913527991E+02  0.50529007275E+03  0.50686290191E+03  0.00000000000E+00 0. -1.
         22    1    3    3    0    0 -0.10672463112E+03  0.51822412448E+02  0.23891498933E+02  0.12102277902E+03  0.00000000000E+00 0. -1.
         22    1    3    3    0    0 -0.33724971830E+01 -0.26539703415E+02 -0.40142886878E+02  0.48240864021E+02  0.00000000000E+00 0. -1.
</event>
<event>
 7    1  0.6152634E-006  0.7179668E+02  0.7818608E-02  0.1460308E+00
          2   -1    0    0  502    0  0.00000000000E+00  0.00000000000E+00  0.24173243473E+03  0.24173243473E+03  0.00000000000E+00 0. -1.
          1   -1    0    0  501    0 -0.00000000000E+00 -0.00000000000E+00 -0.17869311912E+03  0.17869311912E+03  0.00000000000E+00 0. -1.
         25    2    1    2    0    0  0.76590406400E+01  0.88600843959E+01  0.93111412479E+01  0.12589106763E+03  0.12499880623E+03 0.  0.
          2    1    1    2  501    0 -0.11601634451E+02 -0.80548434012E+02  0.15224578870E+03  0.17263090198E+03  0.00000000000E+00 0. -1.
          1    1    1    2  502    0  0.39425938107E+01  0.71688349616E+02 -0.98517614336E+02  0.12190358424E+03  0.00000000000E+00 0. -1.
         22    1    3    3    0    0 -0.12218065049E+02 -0.55440449508E+02 -0.53095518023E+01  0.57018557466E+02  0.00000000000E+00 0.  1.
         22    1    3    3    0    0  0.19877105689E+02  0.64300533904E+02  0.14620693050E+02  0.68872510163E+02  0.00000000000E+00 0.  1.
</event>
<event>
 7    1  0.6152634E-006  0.4932814E+02  0.7818608E-02  0.1518740E+00
          2   -1    0    0  502    0  0.00000000000E+00  0.00000000000E+00  0.34105724916E+03  0.34105724916E+03  0.00000000000E+00 0. -1.
          1   -1    0    0  501    0 -0.00000000000E+00 -0.00000000000E+00 -0.27631227530E+03  0.27631227530E+03  0.00000000000E+00 0. -1.
         25    2    1    2    0    0  0.77845666212E+02  0.21634850670E+01 -0.19053650727E+03  0.24081871279E+03  0.12499945365E+03 0.  0.
          2    1    1    2  501    0 -0.29119764657E+02 -0.80500397979E+01 -0.54817563683E+02  0.62591765613E+02  0.00000000000E+00 0. -1.
          1    1    1    2  502    0 -0.48725901555E+02  0.58865547309E+01  0.31009904481E+03  0.31395904606E+03  0.00000000000E+00 0. -1.
         22    1    3    3    0    0 -0.21636885763E+02  0.27022752582E+02 -0.15437361227E+02  0.37903774275E+02  0.00000000000E+00 0.  1.
         22    1    3    3    0    0  0.99482551975E+02 -0.24859267515E+02 -0.17509914604E+03  0.20291493852E+03  0.00000000000E+00 0.  1.
</event>
<event>
 7    1  0.6152634E-006  0.9091101E+02  0.7818608E-02  0.1302065E+00
          2   -1    0    0  502    0  0.00000000000E+00  0.00000000000E+00  0.61790312503E+02  0.61790312503E+02  0.00000000000E+00 0. -1.
          1   -1    0    0  501    0 -0.00000000000E+00 -0.00000000000E+00 -0.30671065729E+04  0.30671065729E+04  0.00000000000E+00 0. -1.
         25    2    1    2    0    0  0.28804210243E+02 -0.13165979178E+02 -0.27748982411E+03  0.30598791270E+03  0.12499989879E+03 0.  0.
          2    1    1    2  501    0 -0.61306473838E+02 -0.71736401906E+02 -0.27303332173E+04  0.27319634098E+04  0.00000000000E+00 0. -1.
          1    1    1    2  502    0  0.32502263596E+02  0.84902381084E+02  0.25067810395E+01  0.90945562860E+02  0.00000000000E+00 0. -1.
         22    1    3    3    0    0  0.28808298581E+02 -0.22878641790E+02 -0.97312254801E+01  0.38053213618E+02  0.00000000000E+00 0. -1.
         22    1    3    3    0    0 -0.40883383639E-02  0.97126626120E+01 -0.26775859863E+03  0.26793469908E+03  0.00000000000E+00 0. -1.
</event>
<event>
 7    1  0.6152634E-006  0.3621985E+02  0.7818608E-02  0.1565071E+00
          2   -1    0    0  502    0  0.00000000000E+00  0.00000000000E+00  0.75157093284E+02  0.75157093284E+02  0.00000000000E+00 0. -1.
          1   -1    0    0  501    0 -0.00000000000E+00 -0.00000000000E+00 -0.11108639152E+04  0.11108639152E+04  0.00000000000E+00 0. -1.
         25    2    1    2    0    0  0.18194846748E+02  0.48336975828E+01 -0.77660451843E+03  0.78682578966E+03  0.12500331256E+03 0.  0.
          2    1    1    2  501    0 -0.67510454383E+01  0.29697290685E+02 -0.32366211328E+03  0.32509178590E+03  0.00000000000E+00 0. -1.
          1    1    1    2  502    0 -0.11443801310E+02 -0.34530988268E+02  0.64559809761E+02  0.74103432954E+02  0.00000000000E+00 0. -1.
         22    1    3    3    0    0  0.34279026099E+02  0.43438508112E+02 -0.67045788413E+03  0.67273748967E+03  0.00000000000E+00 0. -1.
         22    1    3    3    0    0 -0.16084179351E+02 -0.38604810529E+02 -0.10614663430E+03  0.11408829999E+03  0.00000000000E+00 0. -1.
</event>
<event>
 7    1  0.6152634E-006  0.8526219E+02  0.7818608E-02  0.1496649E+00
          2   -1    0    0  502    0  0.00000000000E+00  0.00000000000E+00  0.59402417464E+03  0.59402417464E+03  0.00000000000E+00 0. -1.
          1   -1    0    0  501    0 -0.00000000000E+00 -0.00000000000E+00 -0.39633232099E+03  0.39633232099E+03  0.00000000000E+00 0. -1.
         25    2    1    2    0    0  0.62182889235E+02  0.25010917873E+02  0.96458606530E+02  0.17152230551E+03  0.12499352299E+03 0.  0.
          2    1    1    2  501    0  0.18108530707E+02  0.92009643876E+01 -0.35436756600E+03  0.35494921955E+03  0.00000000000E+00 0. -1.
          1    1    1    2  502    0 -0.80291419943E+02 -0.34211882260E+02  0.45560081311E+03  0.46388497056E+03  0.00000000000E+00 0. -1.
         22    1    3    3    0    0  0.97737930604E+02  0.30268576838E+00  0.58271170585E+02  0.11379070269E+03  0.00000000000E+00 0.  1.
         22    1    3    3    0    0 -0.35555041368E+02  0.24708232104E+02  0.38187435945E+02  0.57731602823E+02  0.00000000000E+00 0.  1.
</event>
<event>
 7    1  0.6152634E-006  0.9618099E+02  0.7818608E-02  0.1308673E+00
          2   -1    0    0  502    0  0.00000000000E+00  0.00000000000E+00  0.16497736109E+02  0.16497736109E+02  0.00000000000E+00 0. -1.
          1   -1    0    0  501    0 -0.00000000000E+00 -0.00000000000E+00 -0.19625961583E+04  0.19625961583E+04  0.00000000000E+00 0. -1.
         25    2    1    2    0    0  0.66874635053E+02 -0.68587201840E+02 -0.10696133107E+04  0.10811442698E+04  0.12499550597E+03 0.  0.
          2    1    1    2  501    0 -0.71579005664E+02 -0.35400749389E+02 -0.53575666155E+03  0.54167514942E+03  0.00000000000E+00 0. -1.
          1    1    1    2  502    0  0.47043706113E+01  0.10398795123E+03 -0.34072844985E+03  0.35627447515E+03  0.00000000000E+00 0. -1.
         22    1    3    3    0    0  0.82819651104E+02  0.42333960407E+01 -0.55800921748E+03  0.56413766320E+03  0.00000000000E+00 0. -1.
         22    1    3    3    0    0 -0.15945016052E+02 -0.72820597880E+02 -0.51160409326E+03  0.51700660659E+03  0.00000000000E+00 0. -1.
</event>
<event>
 7    1  0.6152634E-006  0.6153951E+02  0.7818608E-02  0.1462068E+00
          2   -1    0    0  502    0  0.00000000000E+00  0.00000000000E+00  0.94583592642E+03  0.94583592642E+03  0.00000000000E+00 0. -1.
          1   -1    0    0  501    0 -0.00000000000E+00 -0.00000000000E+00 -0.59771460414E+02  0.59771460414E+02  0.00000000000E+00 0. -1.
         25    2    1    2    0    0 -0.34651702647E+02 -0.34303753065E+02  0.71670109680E+02  0.15212033269E+03  0.12500601196E+03 0.  0.
          2    1    1    2  501    0  0.22124468015E+02  0.67987180047E+02  0.47693195651E+02  0.85944107692E+02  0.00000000000E+00 0. -1.
          1    1    1    2  502    0  0.12527234631E+02 -0.33683426981E+02  0.76670116067E+03  0.76754294645E+03  0.00000000000E+00 0. -1.
         22    1    3    3    0    0 -0.68047897266E+02 -0.60626654060E+02  0.54992647485E+02  0.10644387621E+03  0.00000000000E+00 0. -1.
         22    1    3    3    0    0  0.33396194619E+02  0.26322900995E+02  0.16677462195E+02  0.45676456486E+02  0.00000000000E+00 0. -1.
</event>
<event>
 7    1  0.6152634E-006  0.3102103E+02  0.7818608E-02  0.1640654E+00
          2   -1    0    0  502    0  0.00000000000E+00  0.00000000000E+00  0.12875431980E+02  0.12875431980E+02  0.00000000000E+00 0. -1.
          1   -1    0    0  501    0 -0.00000000000E+00 -0.00000000000E+00 -0.22962494289E+04  0.22962494289E+04  0.00000000000E+00 0. -1.
         25    2    1    2    0    0 -0.13772896674E+02 -0.46483637515E+02 -0.55356447658E+03  0.56956735997E+03  0.12499170603E+03 0.  0.
          2    1    1    2  501    0  0.18709888902E+02  0.24431370256E+02 -0.17075840961E+04  0.17078613518E+04  0.00000000000E+00 0. -1.
          1    1    1    2  502    0 -0.49369922271E+01  0.22052267258E+02 -0.22225424208E+02  0.31696149052E+02  0.00000000000E+00 0. -1.
         22    1    3    3    0    0 -0.28622183724E+02 -0.34726957332E+02 -0.56915265151E+02  0.72557138683E+02  0.00000000000E+00 0. -1.
         22    1    3    3    0    0  0.14849287049E+02 -0.11756680183E+02 -0.49664921143E+03  0.49701022129E+03  0.00000000000E+00 0. -1.
</event>
<event>
 7    1  0.6152634E-006  0.9288401E+02  0.7818608E-02  0.1446673E+00
          2   -1    0    0  502    0  0.00000000000E+00  0.00000000000E+00  0.23247967934E+03  0.23247967934E+03  0.00000000000E+00 0. -1.
          1   -1    0    0  501    0 -0.00000000000E+00 -0.00000000000E+00 -0.27244545185E+03  0.27244545185E+03  0.00000000000E+00 0. -1.
         25    2    1    2    0    0 -0.68628820516E+01 -0.94500648451E+02 -0.11833964780E+03  0.19648556843E+03  0.12499933861E+03 0.  0.
          2    1    1    2  501    0 -0.19575360100E+02  0.91139343317E+02 -0.94960715425E+02  0.13306807317E+03  0.00000000000E+00 0. -1.
          1    1    1    2  502    0  0.26438242151E+02  0.33613051338E+01  0.17333459072E+03  0.17537148959E+03  0.00000000000E+00 0. -1.
         22    1    3    3    0    0 -0.61421037793E+02 -0.20641241754E+02 -0.54224422236E+02  0.84491968325E+02  0.00000000000E+00 0. -1.
         22    1    3    3    0    0  0.54558155741E+02 -0.73859406697E+02 -0.64115225564E+02  0.11199360011E+03  0.00000000000E+00 0. -1.
</event>
<event>
 7    1  0.6152634E-006  0.5217850E+02  0.7818608E-02  0.1508466E+00
          2   -1    0    0  502    0  0.00000000000E+00  0.00000000000E+00  0.50305516905E+02  0.50305516905E+02  0.00000000000E+00 0. -1.
          1   -1    0    0  501    0 -0.00000000000E+00 -0.00000000000E+00 -0.35163681458E+03  0.35163681458E+03  0.00000000000E+00 0. -1.
         25    2    1    2    0    0  0.37470518586E+02  0.53071097162E+02 -0.25531853130E+03  0.29160425318E+03  0.12499962772E+03 0.  0.
          2    1    1    2  501    0 -0.42396885399E+02 -0.22859074014E+02 -0.59782787144E+02  0.76772487227E+02  0.00000000000E+00 0. -1.
          1    1    1    2  502    0  0.49263668127E+01 -0.30212023148E+02  0.13770020766E+02  0.33565591080E+02  0.00000000000E+00 0. -1.
         22    1    3    3    0    0  0.83085181309E+02  0.45092778297E+02 -0.17435083140E+03  0.19832982231E+03  0.00000000000E+00 0. -1.
         22    1    3    3    0    0 -0.45614662722E+02  0.79783188651E+01 -0.80967699900E+02  0.93274430871E+02  0.00000000000E+00 0. -1.
</event>
<event>
 7    1  0.6152634E-006  0.7781631E+02  0.7818608E-02  0.1491292E+00
          2   -1    0    0  502    0  0.00000000000E+00  0.00000000000E+00  0.16422179527E+04  0.16422179527E+04  0.00000000000E+00 0. -1.
          1   -1    0    0  501    0 -0.00000000000E+00 -0.00000000000E+00 -0.70745832619E+02  0.70745832619E+02  0.00000000000E+00 0. -1.
         25    2    1    2    0    0 -0.74667647110E+02  0.57355973062E+02  0.11556200812E+03  0.19455221622E+03  0.12502408546E+03 0.  0.
          2    1    1    2  501    0  0.52331574406E+02 -0.51475479549E+02  0.12074964600E+02  0.74391689353E+02  0.00000000000E+00 0. -1.
          1    1    1    2  502    0  0.22336072704E+02 -0.58804935125E+01  0.14438351473E+04  0.14440198797E+04  0.00000000000E+00 0. -1.
         22    1    3    3    0    0 -0.43721693921E+02 -0.34697956071E+02  0.62832551115E+02  0.84044417747E+02  0.00000000000E+00 0. -1.
         22    1    3    3    0    0 -0.30945953190E+02  0.92053929133E+02  0.52729457007E+02  0.11050779848E+03  0.00000000000E+00 0. -1.
</event>
<event>
 7    1  0.6152634E-006  0.9705212E+02  0.7818608E-02  0.1385123E+00
          2   -1    0    0  502    0  0.00000000000E+00  0.00000000000E+00  0.12298609097E+04  0.12298609097E+04  0.00000000000E+00 0. -1.
          1   -1    0    0  501    0 -0.00000000000E+00 -0.00000000000E+00 -0.49792461481E+03  0.49792461481E+03  0.00000000000E+00 0. -1.
         25    2    1    2    0    0  0.40003887905E+02 -0.90981847645E+02 -0.12412993134E+03  0.20225163017E+03  0.12497789567E+03 0.  0.
          2    1    1    2  501    0  0.47137475650E+00  0.97961139023E+02 -0.32720254334E+03  0.34155250156E+03  0.00000000000E+00 0. -1.
          1    1    1    2  502    0 -0.40475262661E+02 -0.69792913779E+01  0.11832687696E+04  0.11839813928E+04  0.00000000000E+00 0. -1.
         22    1    3    3    0    0 -0.31583798156E+01 -0.35194071159E+02  0.20846756029E+02  0.41026640670E+02  0.00000000000E+00 0. -1.
         22    1    3    3    0    0  0.43162267720E+02 -0.55787776487E+02 -0.14497668737E+03  0.16122498950E+03  0.00000000000E+00 0. -1.
</event>
<event>
 7    1  0.6152634E-006  0.3067505E+03  0.7818608E-02  0.1314220E+00
          2   -1    0    0  502    0  0.00000000000E+00  0.00000000000E+00  0.23190933721E+04  0.23190933721E+04  0.00000000000E+00 0. -1.
          1   -1    0    0  501    0 -0.00000000000E+00 -0.00000000000E+00 -0.23422470759E+03  0.23422470759E+03  0.00000000000E+00 0. -1.
         25    2    1    2    0    0 -0.18241512373E+02 -0.28451083881E+03  0.11246962600E+04  0.11669815338E+04  0.12500021144E+03 0.  0.
          2    1    1    2  501    0  0.18336446639E+02  0.30832267100E+03 -0.10095065178E+03  0.32494634761E+03  0.00000000000E+00 0. -1.
          1    1    1    2  502    0 -0.94934265713E-01 -0.23811832195E+02  0.10611230563E+04  0.10613901982E+04  0.00000000000E+00 0. -1.
         22    1    3    3    0    0 -0.61559186608E+00 -0.18996833286E+03  0.93719945900E+03  0.95625894631E+03  0.00000000000E+00 0.  1.
         22    1    3    3    0    0 -0.17625920507E+02 -0.94542505951E+02  0.18749680099E+03  0.21072258751E+03  0.00000000000E+00 0.  1.
</event>
<event>
 7    1  0.6152634E-006  0.1094795E+03  0.7818608E-02  0.1324840E+00
          2   -1    0    0  502    0  0.00000000000E+00  0.00000000000E+00  0.36344615637E+03  0.36344615637E+03  0.00000000000E+00 0. -1.
          1   -1    0    0  501    0 -0.00000000000E+00 -0.00000000000E+00 -0.40040589283E+03  0.40040589283E+03  0.00000000000E+00 0. -1.
         25    2    1    2    0    0 -0.55340262417E+02 -0.38785360121E+02  0.78099439117E+02  0.16214522149E+03  0.12499880663E+03 0.  0.
          2    1    1    2  501    0 -0.58608272161E+02 -0.15702446675E+02 -0.33911602537E+03  0.34450134261E+03  0.00000000000E+00 0. -1.
          1    1    1    2  502    0  0.11394853458E+03  0.54487806795E+02  0.22405684980E+03  0.25720548510E+03  0.00000000000E+00 0. -1.
         22    1    3    3    0    0  0.27564184069E+02 -0.10704159857E+02  0.67853281945E+02  0.74016424882E+02  0.00000000000E+00 0.  1.
         22    1    3    3    0    0 -0.82904446486E+02 -0.28081200264E+02  0.10246157173E+02  0.88128796612E+02  0.00000000000E+00 0.  1.
</event>
<event>
 7    1  0.6152634E-006  0.1335319E+03  0.7818608E-02  0.1340207E+00
          2   -1    0    0  502    0  0.00000000000E+00  0.00000000000E+00  0.26785709763E+04  0.26785709763E+04  0.00000000000E+00 0. -1.
          1   -1    0    0  501    0 -0.00000000000E+00 -0.00000000000E+00 -0.40732306556E+03  0.40732306556E+03  0.00000000000E+00 0. -1.
         25    2    1    2    0    0 -0.12775050262E+02  0.10086874181E+03  0.48506312786E+03  0.51112485826E+03  0.12499871095E+03 0.  0.
          2    1    1    2  501    0 -0.29748189904E+02  0.31709020473E+02 -0.39086298400E+03  0.39327380925E+03  0.00000000000E+00 0. -1.
          1    1    1    2  502    0  0.42523240166E+02 -0.13257776228E+03  0.21770477668E+04  0.21814953743E+04  0.00000000000E+00 0. -1.
         22    1    3    3    0    0  0.63659386381E+01  0.49619545617E+02  0.43208098269E+03  0.43496735519E+03  0.00000000000E+00 0.  1.
         22    1    3    3    0    0 -0.19140988900E+02  0.51249196194E+02  0.52982145171E+02  0.76157503068E+02  0.00000000000E+00 0.  1.
</event>
<event>
 7    1  0.6152634E-006  0.1380805E+03  0.7818608E-02  0.1289814E+00
          2   -1    0    0  502    0  0.00000000000E+00  0.00000000000E+00  0.12984887932E+04  0.12984887932E+04  0.00000000000E+00 0. -1.
          1   -1    0    0  501    0 -0.00000000000E+00 -0.00000000000E+00 -0.71759470066E+03  0.71759470066E+03  0.00000000000E+00 0. -1.
         25    2    1    2    0    0  0.41062742684E+02 -0.17118243450E+03 -0.30429694487E+03  0.37310883843E+03  0.12499599969E+03 0.  0.
          2    1    1    2  501    0 -0.65723614667E+02  0.10974850941E+03 -0.36719516798E+03  0.38884009597E+03  0.00000000000E+00 0. -1.
          1    1    1    2  502    0  0.24660871983E+02  0.61433925095E+02  0.12523862054E+04  0.12541345595E+04  0.00000000000E+00 0. -1.
         22    1    3    3    0    0  0.63658345677E+02 -0.16354664990E+03 -0.30181304612E+03  0.34912892529E+03  0.00000000000E+00 0. -1.
         22    1    3    3    0    0 -0.22595602993E+02 -0.76357845998E+01 -0.24838987510E+01  0.23979913137E+02  0.00000000000E+00 0. -1.
</event>
<event>
 7    1  0.6152634E-006  0.8249635E+02  0.7818608E-02  0.1377642E+00
          2   -1    0    0  502    0  0.00000000000E+00  0.00000000000E+00  0.16569253557E+03  0.16569253557E+03  0.00000000000E+00 0. -1.
          1   -1    0    0  501    0 -0.00000000000E+00 -0.00000000000E+00 -0.27424249940E+03  0.27424249940E+03  0.00000000000E+00 0. -1.
         25    2    1    2    0    0  0.40168237702E+02  0.45997700597E+02 -0.11900957673E+03  0.18307702688E+03  0.12499857053E+03 0.  0.
          2    1    1    2  501    0 -0.33050735435E+02  0.39303173790E+02 -0.10278715897E+03  0.11490122119E+03  0.00000000000E+00 0. -1.
          1    1    1    2  502    0 -0.71175022666E+01 -0.85300874387E+02  0.11324677187E+03  0.14195678690E+03  0.00000000000E+00 0. -1.
         22    1    3    3    0    0  0.22751144174E+02  0.89311297087E+02 -0.84311888346E+02  0.12491043537E+03  0.00000000000E+00 0.  1.
         22    1    3    3    0    0  0.17417093528E+02 -0.43313596490E+02 -0.34697688384E+02  0.58166591502E+02  0.00000000000E+00 0.  1.
</event>
<event>
 7    1  0.6152634E-006  0.5540132E+02  0.7818608E-02  0.1470213E+00
          2   -1    0    0  502    0  0.00000000000E+00  0.00000000000E+00  0.64897554569E+02  0.64897554569E+02  0.00000000000E+00 0. -1.
          1   -1    0    0  501    0 -0.00000000000E+00 -0.00000000000E+00 -0.42823345220E+04  0.42823345220E+04  0.00000000000E+00 0. -1.
         25    2    1    2    0    0  0.21496787083E+02  0.26729633372E+01 -0.82676867368E+03  0.83644376206E+03  0.12498988250E+03 0.  0.
          2    1    1    2  501    0 -0.55513647552E+02  0.13451189942E+02 -0.34445693425E+04  0.34450429104E+04  0.00000000000E+00 0. -1.
          1    1    1    2  502    0  0.34016860470E+02 -0.16124153279E+02  0.53901048677E+02  0.65745404125E+02  0.00000000000E+00 0. -1.
         22    1    3    3    0    0  0.51645204564E+02 -0.43772735814E+02 -0.55322156914E+03  0.55734853020E+03  0.00000000000E+00 0.  1.
         22    1    3    3    0    0 -0.30148417481E+02  0.46445699151E+02 -0.27354710454E+03  0.27909523186E+03  0.00000000000E+00 0.  1.
</event>
<event>
 7    1  0.6152634E-006  0.9871708E+02  0.7818608E-02  0.1368177E+00
          2   -1    0    0  502    0  0.00000000000E+00  0.00000000000E+00  0.17079280537E+03  0.17079280537E+03  0.00000000000E+00 0. -1.
          1   -1    0    0  501    0 -0.00000000000E+00 -0.00000000000E+00 -0.49462432586E+03  0.49462432586E+03  0.00000000000E+00 0. -1.
         25    2    1    2    0    0  0.26842552529E+01 -0.78597245774E+02 -0.31905535041E+02  0.15108179909E+03  0.12499205806E+03 0.  0.
          2    1    1    2  501    0  0.43254759992E+02 -0.16783044721E+02 -0.37618204815E+03  0.37903242368E+03  0.00000000000E+00 0. -1.
          1    1    1    2  502    0 -0.45939015245E+02  0.95380290495E+02  0.84256062704E+02  0.13530290846E+03  0.00000000000E+00 0. -1.
         22    1    3    3    0    0 -0.46601992350E+02 -0.57964095438E+02 -0.55373366794E+02  0.92724278380E+02  0.00000000000E+00 0. -1.
         22    1    3    3    0    0  0.49286247603E+02 -0.20633150336E+02  0.23467831754E+02  0.58357520705E+02  0.00000000000E+00 0. -1.
</event>
<event>
 7    1  0.6152634E-006  0.7654377E+02  0.7818608E-02  0.1416790E+00
          2   -1    0    0  502    0  0.00000000000E+00  0.00000000000E+00  0.87573843424E+03  0.87573843424E+03  0.00000000000E+00 0. -1.
          1   -1    0    0  501    0 -0.00000000000E+00 -0.00000000000E+00 -0.78627621348E+03  0.78627621348E+03  0.00000000000E+00 0. -1.
         25    2    1    2    0    0 -0.40369346816E+02 -0.10978136052E+03  0.72863078364E+03  0.74847148111E+03  0.12500043155E+03 0.  0.
          2    1    1    2  501    0  0.27145346293E+02  0.71458123824E+02 -0.77142999542E+03  0.77520795346E+03  0.00000000000E+00 0. -1.
          1    1    1    2  502    0  0.13224000523E+02  0.38323236694E+02  0.13226143253E+03  0.13833521315E+03  0.00000000000E+00 0. -1.
         22    1    3    3    0    0 -0.57851927923E+02 -0.91378182506E+02  0.29672481755E+03  0.31582025766E+03  0.00000000000E+00 0.  1.
         22    1    3    3    0    0  0.17482581106E+02 -0.18403178013E+02  0.43190596610E+03  0.43265122345E+03  0.00000000000E+00 0.  1.
</event>
<event>
 7    1  0.6152634E-006  0.3256169E+02  0.7818608E-02  0.1622506E+00
          2   -1    0    0  502    0  0.00000000000E+00  0.00000000000E+00  0.78642520485E+02  0.78642520485E+02  0.00000000000E+00 0. -1.
          1   -1    0    0  501    0 -0.00000000000E+00 -0.00000000000E+00 -0.81813671703E+03  0.81813671703E+03  0.00000000000E+00 0. -1.
         25    2    1    2    0    0 -0.32142842465E+02  0.29817559603E+02 -0.66372534724E+03  0.67681524200E+03  0.12500114420E+03 0.  0.
          2    1    1    2  501    0  0.23852840364E+02  0.16452729189E+01 -0.14315292017E+03  0.14513587933E+03  0.00000000000E+00 0. -1.
          1    1    1    2  502    0  0.82900021003E+01 -0.31462832522E+02  0.67384070865E+02  0.74828116183E+02  0.00000000000E+00 0. -1.
         22    1    3    3    0    0  0.21030826809E+02 -0.38469268361E+02 -0.17005422931E+03  0.17561497998E+03  0.00000000000E+00 0.  1.
         22    1    3    3    0    0 -0.53173669274E+02  0.68286827964E+02 -0.49367111793E+03  0.50120026202E+03  0.00000000000E+00 0.  1.
</event>
<event>
 7    1  0.6152634E-006  0.9856978E+02  0.7818608E-02  0.1331549E+00
          2   -1    0    0  502    0  0.00000000000E+00  0.00000000000E+00  0.20071429715E+04  0.20071429715E+04  0.00000000000E+00 0. -1.
          1   -1    0    0  501    0 -0.00000000000E+00 -0.00000000000E+00 -0.14942910000E+04  0.14942910000E+04  0.00000000000E+00 0. -1.
         25    2    1    2    0    0 -0.24033467348E+02 -0.14405829520E+03  0.19712367109E+03  0.27533651059E+03  0.12498820901E+03 0.  0.
          2    1    1    2  501    0  0.41183516095E+02  0.48357822789E+02 -0.14531558457E+04  0.14545433898E+04  0.00000000000E+00 0. -1.
          1    1    1    2  502    0 -0.17150048747E+02  0.95700472409E+02  0.17688841461E+04  0.17715540711E+04  0.00000000000E+00 0. -1.
         22    1    3    3    0    0  0.23815057520E+01  0.22692577651E+02  0.16956039550E+02  0.28427661306E+02  0.00000000000E+00 0.  1.
         22    1    3    3    0    0 -0.26414973100E+02 -0.16675087285E+03  0.18016763154E+03  0.24690884929E+03  0.00000000000E+00 0.  1.
</event>
<event>
 7    1  0.6152634E-006  0.7548119E+02  0.7818608E-02  0.1364746E+00
          2   -1    0    0  502    0  0.00000000000E+00  0.00000000000E+00  0.84341214886E+02  0.84341214886E+02  0.00000000000E+00 0. -1.
          1   -1    0    0  501    0 -0.00000000000E+00 -0.00000000000E+00 -0.17420958668E+04  0.17420958668E+04  0.00000000000E+00 0. -1.
         25    2    1    2    0    0  0.12786870403E+03 -0.49362001363E+02 -0.15001992752E+04  0.15116251154E+04  0.12500244574E+03 0.  0.
          2    1    1    2  501    0 -0.59059760013E+02  0.20254218356E+02 -0.21287895814E+03  0.22184620671E+03  0.00000000000E+00 0. -1.
          1    1    1    2  502    0 -0.68808944016E+02  0.29107783008E+02  0.55323581391E+02  0.92965759644E+02  0.00000000000E+00 0. -1.
         22    1    3    3    0    0  0.82565938784E+02  0.32742104771E+02 -0.86373731123E+03  0.86829218727E+03  0.00000000000E+00 0.  1.
         22    1    3    3    0    0  0.45302765244E+02 -0.82104106134E+02 -0.63646196396E+03  0.64333292808E+03  0.00000000000E+00 0.  1.
</event>
<event>
 7    1  0.6152634E-006  0.2162425E+03  0.7818608E-02  0.1250603E+00
          2   -1    0    0  502    0  0.00000000000E+00  0.00000000000E+00  0.16932104980E+04  0.16932104980E+04  0.00000000000E+00 0. -1.
          1   -1    0    0  501    0 -0.00000000000E+00 -0.00000000000E+00 -0.10662951329E+04  0.10662951329E+04  0.00000000000E+00 0. -1.
         25    2    1    2    0    0 -0.23637816399E+02 -0.20027242416E+03  0.45117945810E+03  0.50975973928E+03  0.12499719253E+03 0.  0.
          2    1    1    2  501    0  0.58293692599E+02 -0.20392093670E+02 -0.10257830687E+04  0.10276404508E+04  0.00000000000E+00 0. -1.
          1    1    1    2  502    0 -0.34655876199E+02  0.22066451783E+03  0.12015189758E+04  0.12221054408E+04  0.00000000000E+00 0. -1.
         22    1    3    3    0    0 -0.39318242904E+02 -0.18804024574E+03  0.29317800440E+03  0.35051162678E+03  0.00000000000E+00 0.  1.
         22    1    3    3    0    0  0.15680426504E+02 -0.12232178414E+02  0.15800145370E+03  0.15924811250E+03  0.00000000000E+00 0.  1.
</event>
<event>
 7    1  0.6152634E-006  0.8753550E+02  0.7818608E-02  0.1412193E+00
          2   -1    0    0  502    0  0.00000000000E+00  0.00000000000E+00  0.18806103300E+04  0.18806103300E+04  0.00000000000E+00 0. -1.
          1   -1    0    0  501    0 -0.00000000000E+00 -0.00000000000E+00 -0.11389285246E+03  0.11389285246E+03  0.00000000000E+00 0. -1.
         25    2    1    2    0    0  0.80544425864E+01 -0.10859266819E+03  0.28568566771E+03  0.33028244274E+03  0.12495178916E+03 0.  0.
          2    1    1    2  501    0  0.19421602083E+02  0.84207708477E+02 -0.70944912951E+02  0.11180929062E+03  0.00000000000E+00 0. -1.
          1    1    1    2  502    0 -0.27476044670E+02  0.24384959710E+02  0.15519767228E+04  0.15524114491E+04  0.00000000000E+00 0. -1.
         22    1    3    3    0    0  0.61750299142E+01 -0.88945382999E+02  0.29520092710E+03  0.30837152837E+03  0.00000000000E+00 0.  1.
         22    1    3    3    0    0  0.18794126722E+01 -0.19647285188E+02 -0.95152593819E+01  0.21910914366E+02  0.00000000000E+00 0.  1.
</event>
<event>
 7    1  0.6152634E-006  0.1877809E+03  0.7818608E-02  0.1239399E+00
          2   -1    0    0  502    0  0.00000000000E+00  0.00000000000E+00  0.12370228082E+04  0.12370228082E+04  0.00000000000E+00 0. -1.
          1   -1    0    0  501    0 -0.00000000000E+00 -0.00000000000E+00 -0.16708885974E+03  0.16708885974E+03  0.00000000000E+00 0. -1.
         25    2    1    2    0    0  0.35846374783E+02  0.21021597014E+03  0.41310503548E+03  0.48141097516E+03  0.12500015990E+03 0.  0.
          2    1    1    2  501    0  0.38554996811E+02 -0.18188404742E+03 -0.64648197416E+02  0.19684431390E+03  0.00000000000E+00 0. -1.
          1    1    1    2  502    0 -0.74401371594E+02 -0.28331922724E+02  0.72147711037E+03  0.72585637886E+03  0.00000000000E+00 0. -1.
         22    1    3    3    0    0  0.42183080972E+01  0.83430424064E+02  0.29033530693E+03  0.30211425030E+03  0.00000000000E+00 0.  1.
         22    1    3    3    0    0  0.31628066685E+02  0.12678554608E+03  0.12276972855E+03  0.17929672486E+03  0.00000000000E+00 0.  1.
</event>
<event>
 7    1  0.6152634E-006  0.3355578E+02  0.7818608E-02  0.1564988E+00
          2   -1    0    0  502    0  0.00000000000E+00  0.00000000000E+00  0.46524668708E+03  0.46524668708E+03  0.00000000000E+00 0. -1.
          1   -1    0    0  501    0 -0.00000000000E+00 -0.00000000000E+00 -0.23097232478E+03  0.23097232478E+03  0.00000000000E+00 0. -1.
         25    2    1    2    0    0 -0.30431790366E+02  0.41970376729E+02  0.88122975633E+02  0.16148992863E+03  0.12500292728E+03 0.  0.
          2    1    1    2  501    0  0.31743424332E+02 -0.86089249094E+01 -0.19206903578E+03  0.19486475587E+03  0.00000000000E+00 0. -1.
          1    1    1    2  502    0 -0.13116339654E+01 -0.33361451820E+02  0.33822042244E+03  0.33986432735E+03  0.00000000000E+00 0. -1.
         22    1    3    3    0    0 -0.66208633635E+02  0.64847649577E+02  0.56466647554E+02  0.10852319157E+03  0.00000000000E+00 0. -1.
         22    1    3    3    0    0  0.35776843268E+02 -0.22877272848E+02  0.31656328079E+02  0.52966737059E+02  0.00000000000E+00 0. -1.
</event>
<event>
 7    1  0.6152634E-006  0.1419393E+03  0.7818608E-02  0.1217225E+00
          2   -1    0    0  502    0  0.00000000000E+00  0.00000000000E+00  0.17435144135E+04  0.17435144135E+04  0.00000000000E+00 0. -1.
          1   -1    0    0  501    0 -0.00000000000E+00 -0.00000000000E+00 -0.65321614963E+03  0.65321614963E+03  0.00000000000E+00 0. -1.
         25    2    1    2    0    0 -0.28489527338E+02 -0.39615777678E+02  0.29930310739E+03  0.32800704109E+03  0.12500082361E+03 0.  0.
          2    1    1    2  501    0  0.74379271678E+02 -0.12089042555E+03 -0.62601967567E+03  0.64190918779E+03  0.00000000000E+00 0. -1.
          1    1    1    2  502    0 -0.45889744340E+02  0.16050620323E+03  0.14170148321E+04  0.14268143342E+04  0.00000000000E+00 0. -1.
         22    1    3    3    0    0  0.28093707966E+02 -0.39631845353E+01  0.22982875088E+03  0.23157335337E+03  0.00000000000E+00 0. -1.
         22    1    3    3    0    0 -0.56583235304E+02 -0.35652593143E+02  0.69474356512E+02  0.96433687724E+02  0.00000000000E+00 0. -1.
</event>
<event>
 7    1  0.6152634E-006  0.2421327E+03  0.7818608E-02  0.1151737E+00
          2   -1    0    0  502    0  0.00000000000E+00  0.00000000000E+00  0.28880745214E+04  0.28880745214E+04  0.00000000000E+00 0. -1.
          1   -1    0    0  501    0 -0.00000000000E+00 -0.00000000000E+00 -0.21683849406E+03  0.21683849406E+03  0.00000000000E+00 0. -1.
         25    2    1    2    0    0 -0.21914101507E+03  0.11852501002E+03  0.14677356620E+04  0.14939698402E+04  0.12500778961E+03 0.  0.
          2    1    1    2  501    0 -0.38870819435E+02 -0.15658776196E+03 -0.15732689114E+03  0.22534954731E+03  0.00000000000E+00 0. -1.
          1    1    1    2  502    0  0.25801183450E+03  0.38062751938E+02  0.13608272565E+04  0.13855936279E+04  0.00000000000E+00 0. -1.
         22    1    3    3    0    0 -0.12165950117E+03  0.87364627054E+01  0.86780220482E+03  0.87633214405E+03  0.00000000000E+00 0.  1.
         22    1    3    3    0    0 -0.97481513894E+02  0.10978854731E+03  0.59993345720E+03  0.61763769617E+03  0.00000000000E+00 0.  1.
</event>
<event>
 7    1  0.6152634E-006  0.7955418E+02  0.7818608E-02  0.1407505E+00
          2   -1    0    0  502    0  0.00000000000E+00  0.00000000000E+00  0.22974969411E+04  0.22974969411E+04  0.00000000000E+00 0. -1.
          1   -1    0    0  501    0 -0.00000000000E+00 -0.00000000000E+00 -0.27052822037E+04  0.27052822037E+04  0.00000000000E+00 0. -1.
         25    2    1    2    0    0  0.76903609066E+02 -0.89844837925E+02  0.22294700166E+02  0.17351004180E+03  0.12498968342E+03 0.  0.
          2    1    1    2  501    0 -0.35483615971E+02  0.22335865572E+02 -0.26287943235E+04  0.26291286718E+04  0.00000000000E+00 0. -1.
          1    1    1    2  502    0 -0.41419993095E+02  0.67508972353E+02  0.21987143607E+04  0.22001404312E+04  0.00000000000E+00 0. -1.
         22    1    3    3    0    0 -0.32692401151E+02 -0.22883494438E+02  0.20948293821E+02  0.45069706286E+02  0.00000000000E+00 0. -1.
         22    1    3    3    0    0  0.10959601022E+03 -0.66961343487E+02  0.13464063451E+01  0.12844033551E+03  0.00000000000E+00 0. -1.
</event>
<event>
 7    1  0.6152634E-006  0.1399483E+03  0.7818608E-02  0.1271074E+00
          2   -1    0    0  502    0  0.00000000000E+00  0.00000000000E+00  0.12540559598E+04  0.12540559598E+04  0.00000000000E+00 0. -1.
          1   -1    0    0  501    0 -0.00000000000E+00 -0.00000000000E+00 -0.18039408515E+03  0.18039408515E+03  0.00000000000E+00 0. -1.
         25    2    1    2    0    0  0.86244558121E+02  0.18545422749E+03  0.27246553166E+03  0.36289356066E+03  0.12499150419E+03 0.  0.
          2    1    1    2  501    0 -0.75681589507E+01 -0.77688128437E+02 -0.11868289688E+03  0.14205052743E+03  0.00000000000E+00 0. -1.
          1    1    1    2  502    0 -0.78676399170E+02 -0.10776609905E+03  0.91987923990E+03  0.92950595689E+03  0.00000000000E+00 0. -1.
         22    1    3    3    0    0  0.47935345773E+02  0.11806924506E+03  0.68451500608E+02  0.14465044742E+03  0.00000000000E+00 0. -1.
         22    1    3    3    0    0  0.38309212348E+02  0.67384982435E+02  0.20401403105E+03  0.21824311324E+03  0.00000000000E+00 0. -1.
</event>
<event>
 7    1  0.6152634E-006  0.4259789E+02  0.7818608E-02  0.1496541E+00
          2   -1    0    0  502    0  0.00000000000E+00  0.00000000000E+00  0.28309229951E+02  0.28309229951E+02  0.00000000000E+00 0. -1.
          1   -1    0    0  501    0 -0.00000000000E+00 -0.00000000000E+00 -0.16575173984E+04  0.16575173984E+04  0.00000000000E+00 0. -1.
         25    2    1    2    0    0  0.46851546169E+02  0.74479084423E+01 -0.23880333480E+03  0.27368358804E+03  0.12500053972E+03 0.  0.
          2    1    1    2  501    0 -0.30715648841E+02  0.29901588313E+02 -0.13616425331E+04  0.13623171231E+04  0.00000000000E+00 0. -1.
          1    1    1    2  502    0 -0.16135897328E+02 -0.37349496755E+02 -0.28762300578E+02  0.49825917202E+02  0.00000000000E+00 0. -1.
         22    1    3    3    0    0  0.17149014630E+02  0.49950000266E+01  0.11739602500E+02  0.21374213317E+02  0.00000000000E+00 0.  1.
         22    1    3    3    0    0  0.29702531538E+02  0.24529084157E+01 -0.25054293730E+03  0.25230937472E+03  0.00000000000E+00 0.  1.
</event>
<event>
 7    1  0.6152634E-006  0.7660417E+02  0.7818608E-02  0.1400103E+00
          2   -1    0    0  502    0  0.00000000000E+00  0.00000000000E+00  0.16430078500E+03  0.16430078500E+03  0.00000000000E+00 0. -1.
          1   -1    0    0  501    0 -0.00000000000E+00 -0.00000000000E+00 -0.82870953512E+03  0.82870953512E+03  0.00000000000E+00 0. -1.
         25    2    1    2    0    0 -0.59494060166E+02  0.10566835888E+03 -0.25541714191E+02  0.17601896008E+03  0.12499979951E+03 0.  0.
          2    1    1    2  501    0  0.33167012737E+02 -0.67757062883E+02 -0.71984271735E+03  0.72378491835E+03  0.00000000000E+00 0. -1.
          1    1    1    2  502    0  0.26327047428E+02 -0.37911296000E+02  0.80975681430E+02  0.93206441697E+02  0.00000000000E+00 0. -1.
         22    1    3    3    0    0 -0.30079141427E+02  0.25086182117E+02  0.48751880143E+02  0.62536526124E+02  0.00000000000E+00 0. -1.
         22    1    3    3    0    0 -0.29414918739E+02  0.80582176766E+02 -0.74293594334E+02  0.11348243395E+03  0.00000000000E+00 0. -1.
</event>
<event>
 7    1  0.6152634E-006  0.1137849E+03  0.7818608E-02  0.1371110E+00
          2   -1    0    0  502    0  0.00000000000E+00  0.00000000000E+00  0.18311989796E+03  0.18311989796E+03  0.00000000000E+00 0. -1.
          1   -1    0    0  501    0 -0.00000000000E+00 -0.00000000000E+00 -0.60280720160E+03  0.60280720160E+03  0.00000000000E+00 0. -1.
         25    2    1    2    0    0 -0.13127420094E+03 -0.63103583243E+02 -0.35777196852E+02  0.19524356445E+03  0.12500025437E+03 0.  0.
          2    1    1    2  501    0  0.91989545682E+02  0.62728518481E+02 -0.47690545023E+03  0.48973028496E+03  0.00000000000E+00 0. -1.
          1    1    1    2  502    0  0.39284655261E+02  0.37506476278E+00  0.92995343449E+02  0.10095325015E+03  0.00000000000E+00 0. -1.
         22    1    3    3    0    0 -0.73017837454E+02 -0.35762765058E+02  0.44237638374E+02  0.92561053365E+02  0.00000000000E+00 0. -1.
         22    1    3    3    0    0 -0.58256363488E+02 -0.27340818186E+02 -0.80014835226E+02  0.10268251108E+03  0.00000000000E+00 0. -1.
</event>
<event>
 7    1  0.6152634E-006  0.3379219E+02  0.7818608E-02  0.1618045E+00
          2   -1    0    0  502    0  0.00000000000E+00  0.00000000000E+00  0.58989416262E+03  0.58989416262E+03  0.00000000000E+00 0. -1.
          1   -1    0    0  501    0 -0.00000000000E+00 -0.00000000000E+00 -0.86974619128E+03  0.86974619128E+03  0.00000000000E+00 0. -1.
         25    2    1    2    0    0 -0.21670303911E+02  0.43354350284E+02 -0.54865217293E+03  0.56479489207E+03  0.12499944596E+03 0.  0.
          2    1    1    2  501    0 -0.53250167551E+01 -0.23041966740E+02 -0.31208448083E+03  0.31297925045E+03  0.00000000000E+00 0. -1.
          1    1    1    2  502    0  0.26995320666E+02 -0.20312383543E+02  0.58088462510E+03  0.58186621137E+03  0.00000000000E+00 0. -1.
         22    1    3    3    0    0 -0.56881109554E+01  0.35019351278E+00  0.59845814391E+01  0.82639250201E+01  0.00000000000E+00 0. -1.
         22    1    3    3    0    0 -0.15982192955E+02  0.43004156771E+02 -0.55463675437E+03  0.55653096705E+03  0.00000000000E+00 0. -1.
</event>
<event>
 7    1  0.6152634E-006  0.6396072E+02  0.7818608E-02  0.1419423E+00
          2   -1    0    0  502    0  0.00000000000E+00  0.00000000000E+00  0.16701690902E+04  0.16701690902E+04  0.00000000000E+00 0. -1.
          1   -1    0    0  501    0 -0.00000000000E+00 -0.00000000000E+00 -0.95803241072E+02  0.95803241072E+02  0.00000000000E+00 0. -1.
         25    2    1    2    0    0 -0.79859061931E+02  0.16649436101E+02  0.59154119364E+03  0.61008282860E+03  0.12500160190E+03 0.  0.
          2    1    1    2  501    0  0.36805618579E+02  0.30091839043E+02 -0.78980128304E+02  0.92184776416E+02  0.00000000000E+00 0. -1.
          1    1    1    2  502    0  0.43053443353E+02 -0.46741275144E+02  0.10618047838E+04  0.10637047262E+04  0.00000000000E+00 0. -1.
         22    1    3    3    0    0  0.50487068053E+01  0.18632166517E+02  0.88525973326E+01  0.21237126667E+02  0.00000000000E+00 0.  1.
         22    1    3    3    0    0 -0.84907768736E+02 -0.19827304163E+01  0.58268859631E+03  0.58884570193E+03  0.00000000000E+00 0.  1.
</event>
<event>
 7    1  0.6152634E-006  0.1040626E+03  0.7818608E-02  0.1273396E+00
          2   -1    0    0  502    0  0.00000000000E+00  0.00000000000E+00  0.25634320498E+03  0.25634320498E+03  0.00000000000E+00 0. -1.
          1   -1    0    0  501    0 -0.00000000000E+00 -0.00000000000E+00 -0.62136588277E+03  0.62136588277E+03  0.00000000000E+00 0. -1.
         25    2    1    2    0    0 -0.42060885603E+01 -0.36798383730E+02 -0.23796047157E+03  0.27133285837E+03  0.12499808708E+03 0.  0.
          2    1    1    2  501    0 -0.10184414904E+03  0.21372750778E+02 -0.34670428340E+03  0.36198464787E+03  0.00000000000E+00 0. -1.
          1    1    1    2  502    0  0.10605023760E+03  0.15425632951E+02  0.21964207717E+03  0.24439158151E+03  0.00000000000E+00 0. -1.
         22    1    3    3    0    0 -0.71918918202E+01 -0.17372893647E+02 -0.24837821146E+03  0.24908889311E+03  0.00000000000E+00 0.  1.
         22    1    3    3    0    0  0.29858032599E+01 -0.19425490083E+02  0.10417739888E+02  0.22243965259E+02  0.00000000000E+00 0.  1.
</event>
<event>
 7    1  0.6152634E-006  0.7795045E+02  0.7818608E-02  0.1364686E+00
          2   -1    0    0  502    0  0.00000000000E+00  0.00000000000E+00  0.50572576183E+03  0.50572576183E+03  0.00000000000E+00 0. -1.
          1   -1    0    0  501    0 -0.00000000000E+00 -0.00000000000E+00 -0.86544349240E+03  0.86544349240E+03  0.00000000000E+00 0. -1.
         25    2    1    2    0    0 -0.11346932246E+03  0.53275506282E+02 -0.80475408586E+02  0.19445965769E+03  0.12499880148E+03 0.  0.
          2    1    1    2  501    0  0.76352774405E+02 -0.55130349577E+01 -0.72391014208E+03  0.72794644962E+03  0.00000000000E+00 0. -1.
          1    1    1    2  502    0  0.37116548056E+02 -0.47762471324E+02  0.44466782009E+03  0.44876314692E+03  0.00000000000E+00 0. -1.
         22    1    3    3    0    0 -0.82252938350E+02 -0.12966313354E+02 -0.87629191261E+02  0.12088236559E+03  0.00000000000E+00 0. -1.
         22    1    3    3    0    0 -0.31216384112E+02  0.66241819636E+02  0.71537826749E+01  0.73577292097E+02  0.00000000000E+00 0. -1.
</event>
<event>
 7    1  0.6496160E-006  0.7169087E+02  0.7818608E-02  0.1403706E+00
          2   -1    0    0  502    0  0.00000000000E+00  0.00000000000E+00  0.20929124375E+04  0.20929124375E+04  0.00000000000E+00 0. -1.
          1   -1    0    0  501    0 -0.00000000000E+00 -0.00000000000E+00 -0.72093019607E+03  0.72093019607E+03  0.00000000000E+00 0. -1.
         25    2    1    2    0    0 -0.42597121964E+02 -0.22766705869E+02 -0.43528116168E+01  0.13408698542E+03  0.12501013957E+03 0.  0.
          2    1    1    2  501    0 -0.27506991817E+02  0.39258206094E+02 -0.65018833340E+03  0.65195299695E+03  0.00000000000E+00 0. -1.
          1    1    1    2  502    0  0.70104113781E+02 -0.16491500225E+02  0.20265233864E+04  0.20278026512E+04  0.00000000000E+00 0. -1.
         22    1    3    3    0    0 -0.17404974814E+02 -0.54332222642E+01  0.60069351561E+02  0.62775632609E+02  0.00000000000E+00 0. -1.
         22    1    3    3    0    0 -0.25192147150E+02 -0.17333483605E+02 -0.64422163178E+02  0.71311352816E+02  0.00000000000E+00 0. -1.
</event>
<event>
 7    1  0.6152634E-006  0.4228812E+02  0.7818608E-02  0.1575678E+00
          2   -1    0    0  502    0  0.00000000000E+00  0.00000000000E+00  0.22136274815E+03  0.22136274815E+03  0.00000000000E+00 0. -1.
          1   -1    0    0  501    0 -0.00000000000E+00 -0.00000000000E+00 -0.13906008609E+04  0.13906008609E+04  0.00000000000E+00 0. -1.
         25    2    1    2    0    0 -0.57061910738E+01 -0.23626108127E+02 -0.34144064941E+01  0.12738773248E+03  0.12500089045E+03 0.  0.
          2    1    1    2  501    0 -0.22722320073E+02 -0.89214945480E+01 -0.13221556198E+04  0.13223809511E+04  0.00000000000E+00 0. -1.
          1    1    1    2  502    0  0.28428511147E+02  0.32547602675E+02  0.15633191349E+03  0.16219492551E+03  0.00000000000E+00 0. -1.
         22    1    3    3    0    0  0.32819969872E+01 -0.27232690039E+02 -0.62110637389E+02  0.67897880584E+02  0.00000000000E+00 0.  1.
         22    1    3    3    0    0 -0.89881880610E+01  0.36065819114E+01  0.58696230895E+02  0.59489851899E+02  0.00000000000E+00 0.  1.
</event>
<event>
 7    1  0.6152634E-006  0.1034883E+03  0.7818608E-02  0.1311196E+00
          2   -1    0    0  502    0  0.00000000000E+00  0.00000000000E+00  0.32133425507E+03  0.32133425507E+03  0.00000000000E+00 0. -1.
          1   -1    0    0  501    0 -0.00000000000E+00 -0.00000000000E+00 -0.22418523148E+03  0.22418523148E+03  0.00000000000E+00 0. -1.
         25    2    1    2    0    0 -0.13170516408E+03  0.39325592347E+02  0.81802157985E+02  0.20300143148E+03  0.12500094269E+03 0.  0.
          2    1    1    2  501    0  0.68503856924E+02 -0.74921834190E+02 -0.13891315548E+03  0.17205500405E+03  0.00000000000E+00 0. -1.
          1    1    1    2  502    0  0.63201307153E+02  0.35596241843E+02  0.15426002108E+03  0.17046305102E+03  0.00000000000E+00 0. -1.
         22    1    3    3    0    0  0.12195016324E+02 -0.56534123049E+00 -0.19179608905E+02  0.22735334429E+02  0.00000000000E+00 0. -1.
         22    1    3    3    0    0 -0.14390018040E+03  0.39890933578E+02  0.10098176689E+03  0.18026609705E+03  0.00000000000E+00 0. -1.
</event>
<event>
 7    1  0.6152634E-006  0.4438019E+02  0.7818608E-02  0.1585677E+00
          2   -1    0    0  502    0  0.00000000000E+00  0.00000000000E+00  0.10440083424E+04  0.10440083424E+04  0.00000000000E+00 0. -1.
          1   -1    0    0  501    0 -0.00000000000E+00 -0.00000000000E+00 -0.99338071461E+02  0.99338071461E+02  0.00000000000E+00 0. -1.
         25    2    1    2    0    0 -0.45180827446E+01  0.56798661825E+02  0.76213956927E+02  0.15709860043E+03  0.12499960787E+03 0.  0.
          2    1    1    2  501    0 -0.14155500934E+02 -0.16669308874E+02 -0.56317991051E+02  0.60414900323E+02  0.00000000000E+00 0. -1.
          1    1    1    2  502    0  0.18673583679E+02 -0.40129352951E+02  0.92477430505E+03  0.92583291310E+03  0.00000000000E+00 0. -1.
         22    1    3    3    0    0 -0.38739812151E+02  0.65831682074E+02  0.37778507445E+01  0.76477810942E+02  0.00000000000E+00 0. -1.
         22    1    3    3    0    0  0.34221729406E+02 -0.90330202489E+01  0.72436106182E+02  0.80620789485E+02  0.00000000000E+00 0. -1.
</event>
<event>
 7    1  0.6152634E-006  0.1217034E+03  0.7818608E-02  0.1314499E+00
          2   -1    0    0  502    0  0.00000000000E+00  0.00000000000E+00  0.22212321806E+04  0.22212321806E+04  0.00000000000E+00 0. -1.
          1   -1    0    0  501    0 -0.00000000000E+00 -0.00000000000E+00 -0.40467721684E+03  0.40467721684E+03  0.00000000000E+00 0. -1.
         25    2    1    2    0    0 -0.34209215176E+02  0.13509509404E+03  0.26128848306E+03  0.32143266981E+03  0.12500533991E+03 0.  0.
          2    1    1    2  501    0 -0.43116158828E+02 -0.41533611383E+02 -0.37029005558E+03  0.37509834615E+03  0.00000000000E+00 0. -1.
          1    1    1    2  502    0  0.77325374003E+02 -0.93561482656E+02  0.19255565363E+04  0.19293783815E+04  0.00000000000E+00 0. -1.
         22    1    3    3    0    0  0.11135315859E+02  0.14664184530E+02  0.15051546028E+03  0.15163751960E+03  0.00000000000E+00 0.  1.
         22    1    3    3    0    0 -0.45344531034E+02  0.12043090951E+03  0.11077302278E+03  0.16979515021E+03  0.00000000000E+00 0.  1.
</event>
<event>
 7    1  0.6152634E-006  0.1355456E+03  0.7818608E-02  0.1238198E+00
          2   -1    0    0  502    0  0.00000000000E+00  0.00000000000E+00  0.24060101003E+04  0.24060101003E+04  0.00000000000E+00 0. -1.
          1   -1    0    0  501    0 -0.00000000000E+00 -0.00000000000E+00 -0.29239146619E+02  0.29239146619E+02  0.00000000000E+00 0. -1.
         25    2    1    2    0    0 -0.38562988371E+02  0.28671033668E+02  0.33944482989E+03  0.36490634495E+03  0.12499886320E+03 0.  0.
          2    1    1    2  501    0 -0.89874167039E+02  0.66244212115E+02  0.22685376272E+03  0.25284044613E+03  0.00000000000E+00 0. -1.
          1    1    1    2  502    0  0.12843715541E+03 -0.94915245783E+02  0.18104723610E+04  0.18175024558E+04  0.00000000000E+00 0. -1.
         22    1    3    3    0    0  0.70418095325E+01  0.50027940411E+02  0.49881607441E+02  0.70996877848E+02  0.00000000000E+00 0.  1.
         22    1    3    3    0    0 -0.45604797903E+02 -0.21356906743E+02  0.28956322245E+03  0.29390946710E+03  0.00000000000E+00 0.  1.
</event>
<event>
 7    1  0.6152634E-006  0.6997496E+02  0.7818608E-02  0.1489757E+00
          2   -1    0    0  502    0  0.00000000000E+00  0.00000000000E+00  0.53836740241E+02  0.53836740241E+02  0.00000000000E+00 0. -1.
          1   -1    0    0  501    0 -0.00000000000E+00 -0.00000000000E+00 -0.62352253513E+03  0.62352253513E+03  0.00000000000E+00 0. -1.
         25    2    1    2    0    0  0.10563958579E+02  0.46164252698E+02 -0.24761974393E+03  0.28139511834E+03  0.12499975836E+03 0.  0.
          2    1    1    2  501    0  0.95911816536E+01  0.24124728717E+02 -0.32179650844E+03  0.32284204520E+03  0.00000000000E+00 0. -1.
          1    1    1    2  502    0 -0.20155140233E+02 -0.70288981414E+02 -0.26954251207E+00  0.73122111835E+02  0.00000000000E+00 0. -1.
         22    1    3    3    0    0  0.25099132558E+01  0.87962523147E+02 -0.19326502119E+03  0.21235600665E+03  0.00000000000E+00 0. -1.
         22    1    3    3    0    0  0.80540453235E+01 -0.41798270449E+02 -0.54354722738E+02  0.69039111687E+02  0.00000000000E+00 0. -1.
</event>
<event>
 7    1  0.6152634E-006  0.2901721E+02  0.7818608E-02  0.1616149E+00
          2   -1    0    0  502    0  0.00000000000E+00  0.00000000000E+00  0.35624140941E+03  0.35624140941E+03  0.00000000000E+00 0. -1.
          1   -1    0    0  501    0 -0.00000000000E+00 -0.00000000000E+00 -0.44241214554E+03  0.44241214554E+03  0.00000000000E+00 0. -1.
         25    2    1    2    0    0  0.21210142770E+02  0.37342848027E+02 -0.53092171637E+02  0.14243853580E+03  0.12500239732E+03 0.  0.
          2    1    1    2  501    0  0.51958613569E+01 -0.28491498056E+02 -0.34341369292E+03  0.34463274209E+03  0.00000000000E+00 0. -1.
          1    1    1    2  502    0 -0.26406004127E+02 -0.88513499711E+01  0.31033512842E+03  0.31158227707E+03  0.00000000000E+00 0. -1.
         22    1    3    3    0    0 -0.41476480152E+02  0.20050158902E+02 -0.61530203819E+02  0.76865292947E+02  0.00000000000E+00 0. -1.
         22    1    3    3    0    0  0.62686622922E+02  0.17292689125E+02  0.84380321823E+01  0.65573242849E+02  0.00000000000E+00 0. -1.
</event>
<event>
 7    1  0.6152634E-006  0.7272197E+02  0.7818608E-02  0.1442532E+00
          2   -1    0    0  502    0  0.00000000000E+00  0.00000000000E+00  0.11511499487E+04  0.11511499487E+04  0.00000000000E+00 0. -1.
          1   -1    0    0  501    0 -0.00000000000E+00 -0.00000000000E+00 -0.12156835198E+03  0.12156835198E+03  0.00000000000E+00 0. -1.
         25    2    1    2    0    0  0.20470601671E+02  0.80624540735E+02  0.85739066365E+02  0.17290193062E+03  0.12499811203E+03 0.  0.
          2    1    1    2  501    0 -0.45551785971E+02 -0.56065626756E+02 -0.60886217387E+02  0.94474605987E+02  0.00000000000E+00 0. -1.
          1    1    1    2  502    0  0.25081184301E+02 -0.24558913979E+02  0.10047287478E+04  0.10053417641E+04  0.00000000000E+00 0. -1.
         22    1    3    3    0    0  0.80619810691E+01  0.62872902376E+01 -0.31729087126E+02  0.33335574499E+02  0.00000000000E+00 0. -1.
         22    1    3    3    0    0  0.12408620602E+02  0.74337250498E+02  0.11746815349E+03  0.13956635612E+03  0.00000000000E+00 0. -1.
</event>
<event>
 7    1  0.6152634E-006  0.2057034E+03  0.7818608E-02  0.1225457E+00
          2   -1    0    0  502    0  0.00000000000E+00  0.00000000000E+00  0.13757593886E+04  0.13757593886E+04  0.00000000000E+00 0. -1.
          1   -1    0    0  501    0 -0.00000000000E+00 -0.00000000000E+00 -0.75331056028E+03  0.75331056028E+03  0.00000000000E+00 0. -1.
         25    2    1    2    0    0  0.28636495941E+02 -0.26335110754E+03  0.18337980785E+02  0.29348815647E+03  0.12500064682E+03 0.  0.
          2    1    1    2  501    0 -0.66840681587E+02  0.18867603611E+03 -0.59796759220E+03  0.63058033956E+03  0.00000000000E+00 0. -1.
          1    1    1    2  502    0  0.38204185646E+02  0.74675071428E+02  0.12020784398E+04  0.12050014529E+04  0.00000000000E+00 0. -1.
         22    1    3    3    0    0 -0.17789526548E+02 -0.23898358382E+03  0.23541125852E+02  0.24079826659E+03  0.00000000000E+00 0. -1.
         22    1    3    3    0    0  0.46426022489E+02 -0.24367523725E+02 -0.52031450676E+01  0.52689889877E+02  0.00000000000E+00 0. -1.
</event>
<event>
 7    1  0.6152634E-006  0.1568628E+03  0.7818608E-02  0.1225638E+00
          2   -1    0    0  502    0  0.00000000000E+00  0.00000000000E+00  0.20157385467E+03  0.20157385467E+03  0.00000000000E+00 0. -1.
          1   -1    0    0  501    0 -0.00000000000E+00 -0.00000000000E+00 -0.14158794341E+04  0.14158794341E+04  0.00000000000E+00 0. -1.
         25    2    1    2    0    0  0.47162176673E+02  0.69246072431E+02 -0.44824924095E+03  0.47283516231E+03  0.12500567689E+03 0.  0.
          2    1    1    2  501    0 -0.56049242568E+02  0.94405513526E+02 -0.91595624202E+03  0.92251274022E+03  0.00000000000E+00 0. -1.
          1    1    1    2  502    0  0.88870658957E+01 -0.16365158596E+03  0.14989990351E+03  0.22210538625E+03  0.00000000000E+00 0. -1.
         22    1    3    3    0    0 -0.41869677355E+02  0.25336244860E+02 -0.11169921982E+03  0.12194962441E+03  0.00000000000E+00 0. -1.
         22    1    3    3    0    0  0.89031854028E+02  0.43909827570E+02 -0.33655002112E+03  0.35088553790E+03  0.00000000000E+00 0. -1.
</event>
<event>
 7    1  0.6152634E-006  0.1931154E+03  0.7818608E-02  0.1260462E+00
          2   -1    0    0  502    0  0.00000000000E+00  0.00000000000E+00  0.15077962406E+04  0.15077962406E+04  0.00000000000E+00 0. -1.
          1   -1    0    0  501    0 -0.00000000000E+00 -0.00000000000E+00 -0.39472757442E+03  0.39472757442E+03  0.00000000000E+00 0. -1.
         25    2    1    2    0    0 -0.11834236766E+03  0.86154712637E+02  0.17774129353E+03  0.26200106515E+03  0.12500016088E+03 0.  0.
          2    1    1    2  501    0  0.18101918620E+03 -0.83747883002E+02 -0.32354816394E+03  0.38008560623E+03  0.00000000000E+00 0. -1.
          1    1    1    2  502    0 -0.62676818535E+02 -0.24068296348E+01  0.12588755366E+04  0.12604371436E+04  0.00000000000E+00 0. -1.
         22    1    3    3    0    0 -0.97170324820E+02  0.35511439250E+01  0.13566325602E+03  0.16691075964E+03  0.00000000000E+00 0.  1.
         22    1    3    3    0    0 -0.21172042843E+02  0.82603568712E+02  0.42078037510E+02  0.95090305515E+02  0.00000000000E+00 0.  1.
</event>
<event>
 7    1  0.6152634E-006  0.4004872E+02  0.7818608E-02  0.1563640E+00
          2   -1    0    0  502    0  0.00000000000E+00  0.00000000000E+00  0.11616632314E+04  0.11616632314E+04  0.00000000000E+00 0. -1.
          1   -1    0    0  501    0 -0.00000000000E+00 -0.00000000000E+00 -0.12962036367E+04  0.12962036367E+04  0.00000000000E+00 0. -1.
         25    2    1    2    0    0 -0.49567378845E+02  0.34845749759E+02  0.49354591743E+03  0.51272105947E+03  0.12499664349E+03 0.  0.
          2    1    1    2  501    0  0.21803319391E+02 -0.33581435749E+02 -0.12860111162E+04  0.12866342482E+04  0.00000000000E+00 0. -1.
          1    1    1    2  502    0  0.27764059454E+02 -0.12643140104E+01  0.65792479345E+03  0.65851156051E+03  0.00000000000E+00 0. -1.
         22    1    3    3    0    0  0.52536724297E+01 -0.34760026963E+02  0.26964003822E+03  0.27192206744E+03  0.00000000000E+00 0.  1.
         22    1    3    3    0    0 -0.54821051274E+02  0.69605776722E+02  0.22390587921E+03  0.24079899203E+03  0.00000000000E+00 0.  1.
</event>
<event>
 7    1  0.6152634E-006  0.1174088E+03  0.7818608E-02  0.1283306E+00
          2   -1    0    0  502    0  0.00000000000E+00  0.00000000000E+00  0.18345908815E+03  0.18345908815E+03  0.00000000000E+00 0. -1.
          1   -1    0    0  501    0 -0.00000000000E+00 -0.00000000000E+00 -0.30546913820E+03  0.30546913820E+03  0.00000000000E+00 0. -1.
         25    2    1    2    0    0 -0.79655725745E+02 -0.66775543651E+02 -0.79599517269E+02  0.18101431444E+03  0.12500436396E+03 0.  0.
          2    1    1    2  501    0  0.13367999277E+03  0.40619690569E+01 -0.13062277660E+03  0.18694691713E+03  0.00000000000E+00 0. -1.
          1    1    1    2  502    0 -0.54024267024E+02  0.62713574594E+02  0.88212243821E+02  0.12096699478E+03  0.00000000000E+00 0. -1.
         22    1    3    3    0    0 -0.10051022084E+02 -0.87429934883E+02 -0.57484022044E+02  0.10511626586E+03  0.00000000000E+00 0. -1.
         22    1    3    3    0    0 -0.69604703660E+02  0.20654391232E+02 -0.22115495225E+02  0.75898048578E+02  0.00000000000E+00 0. -1.
</event>
<event>
 7    1  0.6152634E-006  0.5072397E+02  0.7818608E-02  0.1449334E+00
          2   -1    0    0  502    0  0.00000000000E+00  0.00000000000E+00  0.17623340708E+04  0.17623340708E+04  0.00000000000E+00 0. -1.
          1   -1    0    0  501    0 -0.00000000000E+00 -0.00000000000E+00 -0.69405143164E+03  0.69405143164E+03  0.00000000000E+00 0. -1.
         25    2    1    2    0    0 -0.33216186461E+02  0.47054091264E+02  0.31814453317E+03  0.34663859387E+03  0.12499987292E+03 0.  0.
          2    1    1    2  501    0  0.47810071108E+02  0.20108105087E+01 -0.67850334461E+03  0.68018867596E+03  0.00000000000E+00 0. -1.
          1    1    1    2  502    0 -0.14593884647E+02 -0.49064901772E+02  0.14286414506E+04  0.14295582327E+04  0.00000000000E+00 0. -1.
         22    1    3    3    0    0 -0.61727191172E+02  0.52704029593E+02  0.11124628530E+03  0.13770873922E+03  0.00000000000E+00 0. -1.
         22    1    3    3    0    0  0.28511004711E+02 -0.56499383292E+01  0.20689824787E+03  0.20892985465E+03  0.00000000000E+00 0. -1.
</event>
<event>
 7    1  0.6152634E-006  0.5367079E+02  0.7818608E-02  0.1513036E+00
          2   -1    0    0  502    0  0.00000000000E+00  0.00000000000E+00  0.65806703550E+03  0.65806703550E+03  0.00000000000E+00 0. -1.
          1   -1    0    0  501    0 -0.00000000000E+00 -0.00000000000E+00 -0.22775113852E+03  0.22775113852E+03  0.00000000000E+00 0. -1.
         25    2    1    2    0    0 -0.22182922531E+02  0.30043522149E+02  0.89528207370E+02  0.15822797517E+03  0.12500438766E+03 0.  0.
          2    1    1    2  501    0  0.60797809850E+01 -0.53984846387E+02 -0.18918605004E+03  0.19683162578E+03  0.00000000000E+00 0. -1.
          1    1    1    2  502    0  0.16103141546E+02  0.23941324238E+02  0.52997373966E+03  0.53075857308E+03  0.00000000000E+00 0. -1.
         22    1    3    3    0    0  0.27039784531E+02 -0.28016318790E+02 -0.22391710066E+01  0.39000999382E+02  0.00000000000E+00 0. -1.
         22    1    3    3    0    0 -0.49222707062E+02  0.58059840939E+02  0.91767378377E+02  0.11922697578E+03  0.00000000000E+00 0. -1.
</event>
<event>
 7    1  0.6152634E-006  0.4897230E+02  0.7818608E-02  0.1487570E+00
          2   -1    0    0  502    0  0.00000000000E+00  0.00000000000E+00  0.40632592795E+03  0.40632592795E+03  0.00000000000E+00 0. -1.
          1   -1    0    0  501    0 -0.00000000000E+00 -0.00000000000E+00 -0.74250222660E+03  0.74250222660E+03  0.00000000000E+00 0. -1.
         25    2    1    2    0    0 -0.82572879963E+02 -0.24209068695E+02 -0.51674064139E+02  0.16033697137E+03  0.12503349939E+03 0.  0.
          2    1    1    2  501    0  0.36294466994E+02  0.10071171678E+02 -0.63427229218E+03  0.63538968945E+03  0.00000000000E+00 0. -1.
          1    1    1    2  502    0  0.46278412969E+02  0.14137897017E+02  0.34977005767E+03  0.35310149374E+03  0.00000000000E+00 0. -1.
         22    1    3    3    0    0  0.31712185241E+02 -0.16687333113E+02 -0.32277408652E+01  0.35979828936E+02  0.00000000000E+00 0.  1.
         22    1    3    3    0    0 -0.11428506520E+03 -0.75217355813E+01 -0.48446323274E+02  0.12435714243E+03  0.00000000000E+00 0.  1.
</event>
<event>
 7    1  0.6152634E-006  0.6004143E+02  0.7818608E-02  0.1475054E+00
          2   -1    0    0  502    0  0.00000000000E+00  0.00000000000E+00  0.14229368269E+04  0.14229368269E+04  0.00000000000E+00 0. -1.
          1   -1    0    0  501    0 -0.00000000000E+00 -0.00000000000E+00 -0.12829668286E+03  0.12829668286E+03  0.00000000000E+00 0. -1.
         25    2    1    2    0    0  0.56497379437E+02 -0.30025153283E+02  0.49490566040E+03  0.51444169388E+03  0.12500071999E+03 0.  0.
          2    1    1    2  501    0 -0.30814862922E+02  0.51621877097E+02 -0.11057618133E+03  0.12586288512E+03  0.00000000000E+00 0. -1.
          1    1    1    2  502    0 -0.25682516515E+02 -0.21596723813E+02  0.91031066500E+03  0.91092893079E+03  0.00000000000E+00 0. -1.
         22    1    3    3    0    0  0.31076557025E+02 -0.24639130747E+02  0.32412789229E+02  0.51219411028E+02  0.00000000000E+00 0.  1.
         22    1    3    3    0    0  0.25420822413E+02 -0.53860225367E+01  0.46249287117E+03  0.46322228285E+03  0.00000000000E+00 0.  1.
</event>
<event>
 7    1  0.6152634E-006  0.6710871E+02  0.7818608E-02  0.1386606E+00
          2   -1    0    0  502    0  0.00000000000E+00  0.00000000000E+00  0.84398902286E+03  0.84398902286E+03  0.00000000000E+00 0. -1.
          1   -1    0    0  501    0 -0.00000000000E+00 -0.00000000000E+00 -0.14001327081E+04  0.14001327081E+04  0.00000000000E+00 0. -1.
         25    2    1    2    0    0  0.20739651742E+02  0.97638550579E+02  0.11156890188E+03  0.19502894316E+03  0.12500099635E+03 0.  0.
          2    1    1    2  501    0  0.25789884554E+02 -0.61866651421E+02 -0.13563268083E+04  0.13579819630E+04  0.00000000000E+00 0. -1.
          1    1    1    2  502    0 -0.46529536296E+02 -0.35771899157E+02  0.68861422123E+03  0.69111082483E+03  0.00000000000E+00 0. -1.
         22    1    3    3    0    0 -0.47521777044E+02  0.44292570988E+02  0.17782904955E+02  0.67352675127E+02  0.00000000000E+00 0. -1.
         22    1    3    3    0    0  0.68261428786E+02  0.53345979591E+02  0.93785996926E+02  0.12767626803E+03  0.00000000000E+00 0. -1.
</event>
<event>
 7    1  0.6152634E-006  0.9257053E+02  0.7818608E-02  0.1331143E+00
          2   -1    0    0  502    0  0.00000000000E+00  0.00000000000E+00  0.12426138276E+04  0.12426138276E+04  0.00000000000E+00 0. -1.
          1   -1    0    0  501    0 -0.00000000000E+00 -0.00000000000E+00 -0.30294927403E+03  0.30294927403E+03  0.00000000000E+00 0. -1.
         25    2    1    2    0    0 -0.47603333250E+02 -0.13384191711E+03  0.14718651466E+03  0.23972660389E+03  0.12500095361E+03 0.  0.
          2    1    1    2  501    0  0.61123159603E+02  0.67325518297E+02 -0.24748439984E+03  0.26366132484E+03  0.00000000000E+00 0. -1.
          1    1    1    2  502    0 -0.13519826352E+02  0.66516398812E+02  0.10399624387E+04  0.10421751729E+04  0.00000000000E+00 0. -1.
         22    1    3    3    0    0  0.17008192446E+02 -0.73395800360E+02  0.93255659374E+01  0.75915665714E+02  0.00000000000E+00 0.  1.
         22    1    3    3    0    0 -0.64611525697E+02 -0.60446116749E+02  0.13786094872E+03  0.16381093817E+03  0.00000000000E+00 0.  1.
</event>
<event>
 7    1  0.6152634E-006  0.1861469E+03  0.7818608E-02  0.1269530E+00
          2   -1    0    0  502    0  0.00000000000E+00  0.00000000000E+00  0.11507399221E+04  0.11507399221E+04  0.00000000000E+00 0. -1.
          1   -1    0    0  501    0 -0.00000000000E+00 -0.00000000000E+00 -0.70963600457E+03  0.70963600457E+03  0.00000000000E+00 0. -1.
         25    2    1    2    0    0 -0.11806113413E+03  0.20379803926E+03 -0.37559090504E+03  0.46061365053E+03  0.12499733959E+03 0.  0.
          2    1    1    2  501    0  0.17943379324E+01 -0.59539009613E+02 -0.28064189356E+03  0.28689368368E+03  0.00000000000E+00 0. -1.
          1    1    1    2  502    0  0.11626679620E+03 -0.14425902965E+03  0.10973367161E+04  0.11128685924E+04  0.00000000000E+00 0. -1.
         22    1    3    3    0    0 -0.31592888872E+01  0.68133630964E+02 -0.35582954207E+02  0.76930614223E+02  0.00000000000E+00 0. -1.
         22    1    3    3    0    0 -0.11490184524E+03  0.13566440830E+03 -0.34000795083E+03  0.38368303630E+03  0.00000000000E+00 0. -1.
</event>
<event>
 7    1  0.6152634E-006  0.6076394E+02  0.7818608E-02  0.1406091E+00
          2   -1    0    0  502    0  0.00000000000E+00  0.00000000000E+00  0.14647604844E+04  0.14647604844E+04  0.00000000000E+00 0. -1.
          1   -1    0    0  501    0 -0.00000000000E+00 -0.00000000000E+00 -0.22874674123E+02  0.22874674123E+02  0.00000000000E+00 0. -1.
         25    2    1    2    0    0  0.65595518015E+01  0.83545745199E+02  0.75964901466E+03  0.77441174990E+03  0.12499605456E+03 0.  0.
          2    1    1    2  501    0 -0.42358466997E+02 -0.35869697453E+02  0.40468923715E+02  0.68692129886E+02  0.00000000000E+00 0. -1.
          1    1    1    2  502    0  0.35798915195E+02 -0.47676047746E+02  0.64176787191E+03  0.64453127874E+03  0.00000000000E+00 0. -1.
         22    1    3    3    0    0 -0.54643397224E+02  0.54533153351E+02  0.50689346460E+03  0.51273848122E+03  0.00000000000E+00 0. -1.
         22    1    3    3    0    0  0.61202949026E+02  0.29012591848E+02  0.25275555006E+03  0.26167326868E+03  0.00000000000E+00 0. -1.
</event>
<event>
 7    1  0.6152634E-006  0.4682993E+02  0.7818608E-02  0.1491440E+00
          2   -1    0    0  502    0  0.00000000000E+00  0.00000000000E+00  0.11109980713E+03  0.11109980713E+03  0.00000000000E+00 0. -1.
          1   -1    0    0  501    0 -0.00000000000E+00 -0.00000000000E+00 -0.16501198475E+03  0.16501198475E+03  0.00000000000E+00 0. -1.
         25    2    1    2    0    0  0.18037594071E+02  0.46273928903E+02 -0.52799119506E+02  0.14450065298E+03  0.12500424151E+03 0.  0.
          2    1    1    2  501    0 -0.47082041553E+02 -0.21245469767E+02  0.47174200151E+02  0.69953511579E+02  0.00000000000E+00 0. -1.
          1    1    1    2  502    0  0.29044447481E+02 -0.25028459136E+02 -0.48287258265E+02  0.61657627322E+02  0.00000000000E+00 0. -1.
         22    1    3    3    0    0 -0.18046920688E+02  0.45280124140E+02  0.27851590301E+02  0.56139932942E+02  0.00000000000E+00 0.  1.
         22    1    3    3    0    0  0.36084514760E+02  0.99380476277E+00 -0.80650709807E+02  0.88360720038E+02  0.00000000000E+00 0.  1.
</event>
<event>
 7    1  0.6152634E-006  0.3336326E+02  0.7818608E-02  0.1625147E+00
          2   -1    0    0  502    0  0.00000000000E+00  0.00000000000E+00  0.12668942959E+03  0.12668942959E+03  0.00000000000E+00 0. -1.
          1   -1    0    0  501    0 -0.00000000000E+00 -0.00000000000E+00 -0.54287971312E+03  0.54287971312E+03  0.00000000000E+00 0. -1.
         25    2    1    2    0    0  0.12007106612E+02  0.52488852699E+02 -0.29253789599E+03  0.32264993229E+03  0.12500123178E+03 0.  0.
          2    1    1    2  501    0  0.28714368136E+01 -0.22797981825E+02 -0.23223623786E+03  0.23337022796E+03  0.00000000000E+00 0. -1.
          1    1    1    2  502    0 -0.14878543426E+02 -0.29690870874E+02  0.10858385032E+03  0.11354898246E+03  0.00000000000E+00 0. -1.
         22    1    3    3    0    0 -0.14416707519E+02  0.79800413616E+02 -0.11271032944E+03  0.13885087624E+03  0.00000000000E+00 0.  1.
         22    1    3    3    0    0  0.26423814131E+02 -0.27311560917E+02 -0.17982756655E+03  0.18379905605E+03  0.00000000000E+00 0.  1.
</event>
<event>
 7    1  0.6152634E-006  0.5094257E+02  0.7818608E-02  0.1549045E+00
          2   -1    0    0  502    0  0.00000000000E+00  0.00000000000E+00  0.89844819059E+02  0.89844819059E+02  0.00000000000E+00 0. -1.
          1   -1    0    0  501    0 -0.00000000000E+00 -0.00000000000E+00 -0.54331014820E+03  0.54331014820E+03  0.00000000000E+00 0. -1.
         25    2    1    2    0    0 -0.53263933239E+02  0.36207035014E+02  0.10257111894E+02  0.14099083886E+03  0.12500084932E+03 0.  0.
          2    1    1    2  501    0  0.49182061932E+02 -0.12579054568E+02 -0.46536899144E+03  0.46812968932E+03  0.00000000000E+00 0. -1.
          1    1    1    2  502    0  0.40818713064E+01 -0.23627980446E+02  0.16465504081E+01  0.24034439074E+02  0.00000000000E+00 0. -1.
         22    1    3    3    0    0 -0.71164462866E+02  0.70185583225E+02 -0.39808658812E+01  0.10003121593E+03  0.00000000000E+00 0.  1.
         22    1    3    3    0    0  0.17900529628E+02 -0.33978548210E+02  0.14237977775E+02  0.40959622930E+02  0.00000000000E+00 0.  1.
</event>
<event>
 7    1  0.6152634E-006  0.9680452E+02  0.7818608E-02  0.1326275E+00
          2   -1    0    0  502    0  0.00000000000E+00  0.00000000000E+00  0.24237708441E+03  0.24237708441E+03  0.00000000000E+00 0. -1.
          1   -1    0    0  501    0 -0.00000000000E+00 -0.00000000000E+00 -0.89075181762E+03  0.89075181762E+03  0.00000000000E+00 0. -1.
         25    2    1    2    0    0 -0.86246141047E+02 -0.62655442272E+02  0.19710987327E+02  0.16546096977E+03  0.12499883281E+03 0.  0.
          2    1    1    2  501    0  0.26003513163E+02  0.93660698069E+02 -0.80714723704E+03  0.81297919488E+03  0.00000000000E+00 0. -1.
          1    1    1    2  502    0  0.60242627884E+02 -0.31005255797E+02  0.13906151650E+03  0.15468873738E+03  0.00000000000E+00 0. -1.
         22    1    3    3    0    0 -0.15582902750E+02 -0.83037351434E+02  0.33042512621E+02  0.90718444826E+02  0.00000000000E+00 0.  1.
         22    1    3    3    0    0 -0.70663238297E+02  0.20381909163E+02 -0.13331525295E+02  0.74742524940E+02  0.00000000000E+00 0.  1.
</event>
<event>
 7    1  0.6152634E-006  0.1378556E+03  0.7818608E-02  0.1291037E+00
          2   -1    0    0  502    0  0.00000000000E+00  0.00000000000E+00  0.11936117343E+04  0.11936117343E+04  0.00000000000E+00 0. -1.
          1   -1    0    0  501    0 -0.00000000000E+00 -0.00000000000E+00 -0.24576447110E+03  0.24576447110E+03  0.00000000000E+00 0. -1.
         25    2    1    2    0    0  0.10323109795E+03 -0.36876636415E+02  0.30343169187E+03  0.34599370934E+03  0.12499723747E+03 0.  0.
          2    1    1    2  501    0 -0.96599664118E+02  0.10209265781E+03 -0.20108990880E+03  0.24533967740E+03  0.00000000000E+00 0. -1.
          1    1    1    2  502    0 -0.66314338361E+01 -0.65216021391E+02  0.84550548012E+03  0.84804281866E+03  0.00000000000E+00 0. -1.
         22    1    3    3    0    0  0.13163392623E+03 -0.39483875515E+02  0.24299969158E+03  0.27916897583E+03  0.00000000000E+00 0. -1.
         22    1    3    3    0    0 -0.28402828271E+02  0.26072390995E+01  0.60432000288E+02  0.66824733507E+02  0.00000000000E+00 0. -1.
</event>
<event>
 7    1  0.6152634E-006  0.9391803E+02  0.7818608E-02  0.1453064E+00
          2   -1    0    0  502    0  0.00000000000E+00  0.00000000000E+00  0.54067365432E+03  0.54067365432E+03  0.00000000000E+00 0. -1.
          1   -1    0    0  501    0 -0.00000000000E+00 -0.00000000000E+00 -0.37190476579E+04  0.37190476579E+04  0.00000000000E+00 0. -1.
         25    2    1    2    0    0  0.10836657599E+03 -0.16185477293E+02 -0.57690443653E+03  0.60037426871E+03  0.12500099669E+03 0.  0.
          2    1    1    2  501    0 -0.93026669317E+02 -0.37384988517E+01 -0.31294167679E+04  0.31308013742E+04  0.00000000000E+00 0. -1.
          1    1    1    2  502    0 -0.15339906672E+02  0.19923976145E+02  0.52794720089E+03  0.52854566925E+03  0.00000000000E+00 0. -1.
         22    1    3    3    0    0 -0.16833147714E+02 -0.12415591509E+02 -0.17966656763E+02  0.27573583911E+02  0.00000000000E+00 0.  1.
         22    1    3    3    0    0  0.12519972370E+03 -0.37698857847E+01 -0.55893777977E+03  0.57280068480E+03  0.00000000000E+00 0.  1.
</event>
<event>
 7    1  0.6152634E-006  0.5160560E+02  0.7818608E-02  0.1494998E+00
          2   -1    0    0  502    0  0.00000000000E+00  0.00000000000E+00  0.10276073841E+04  0.10276073841E+04  0.00000000000E+00 0. -1.
          1   -1    0    0  501    0 -0.00000000000E+00 -0.00000000000E+00 -0.31328259638E+03  0.31328259638E+03  0.00000000000E+00 0. -1.
         25    2    1    2    0    0  0.14930400366E+02  0.40059245073E+02  0.75298151541E+03  0.76448246453E+03  0.12499846420E+03 0.  0.
          2    1    1    2  501    0 -0.28734361781E+02  0.18071014269E+02 -0.30325438429E+03  0.30514823725E+03  0.00000000000E+00 0. -1.
          1    1    1    2  502    0  0.13803961415E+02 -0.58130259342E+02  0.26459765660E+03  0.27125927870E+03  0.00000000000E+00 0. -1.
         22    1    3    3    0    0 -0.12457043185E+02  0.60658435166E+02  0.17768884238E+03  0.18816999864E+03  0.00000000000E+00 0.  1.
         22    1    3    3    0    0  0.27387443551E+02 -0.20599190093E+02  0.57529267303E+03  0.57631246588E+03  0.00000000000E+00 0.  1.
</event>
<event>
 7    1  0.6152634E-006  0.6441482E+02  0.7818608E-02  0.1466638E+00
          2   -1    0    0  502    0  0.00000000000E+00  0.00000000000E+00  0.19020684314E+04  0.19020684314E+04  0.00000000000E+00 0. -1.
          1   -1    0    0  501    0 -0.00000000000E+00 -0.00000000000E+00 -0.46840820895E+02  0.46840820895E+02  0.00000000000E+00 0. -1.
         25    2    1    2    0    0  0.36215657461E+02  0.22067656869E+02  0.28475947677E+03  0.31386489874E+03  0.12499863888E+03 0.  0.
          2    1    1    2  501    0  0.29130454737E+02 -0.15966187248E+02 -0.22885795814E+02  0.40339337854E+02  0.00000000000E+00 0. -1.
          1    1    1    2  502    0 -0.65346112198E+02 -0.61014696213E+01  0.15933539295E+04  0.15947050157E+04  0.00000000000E+00 0. -1.
         22    1    3    3    0    0  0.60114542965E+02  0.58787693632E+02  0.14749431670E+03  0.16977727956E+03  0.00000000000E+00 0.  1.
         22    1    3    3    0    0 -0.23898885504E+02 -0.36720036764E+02  0.13726516007E+03  0.14408761917E+03  0.00000000000E+00 0.  1.
</event>
<event>
 7    1  0.6152634E-006  0.2383096E+03  0.7818608E-02  0.1199230E+00
          2   -1    0    0  502    0  0.00000000000E+00  0.00000000000E+00  0.35434752361E+04  0.35434752361E+04  0.00000000000E+00 0. -1.
          1   -1    0    0  501    0 -0.00000000000E+00 -0.00000000000E+00 -0.28371125793E+04  0.28371125793E+04  0.00000000000E+00 0. -1.
         25    2    1    2    0    0 -0.15036032497E+03  0.19939498476E+03 -0.66563628306E+03  0.72184867437E+03  0.12500904003E+03 0.  0.
          2    1    1    2  501    0  0.20603176144E+03 -0.12155640099E+03 -0.21360408771E+04  0.21493942575E+04  0.00000000000E+00 0. -1.
          1    1    1    2  502    0 -0.55671436463E+02 -0.77838583774E+02  0.35080398170E+04  0.35093448835E+04  0.00000000000E+00 0. -1.
         22    1    3    3    0    0 -0.67673874895E+02  0.89813598613E+02 -0.46728417117E+03  0.48062535562E+03  0.00000000000E+00 0. -1.
         22    1    3    3    0    0 -0.82686450079E+02  0.10958138615E+03 -0.19835211188E+03  0.24122331874E+03  0.00000000000E+00 0. -1.
</event>
<event>
 7    1  0.6152634E-006  0.1006099E+03  0.7818608E-02  0.1289349E+00
          2   -1    0    0  502    0  0.00000000000E+00  0.00000000000E+00  0.98804187479E+03  0.98804187479E+03  0.00000000000E+00 0. -1.
          1   -1    0    0  501    0 -0.00000000000E+00 -0.00000000000E+00 -0.22912783903E+04  0.22912783903E+04  0.00000000000E+00 0. -1.
         25    2    1    2    0    0 -0.20660005658E+01 -0.99354978227E+01  0.34884266410E+03  0.37070175813E+03  0.12500242682E+03 0.  0.
          2    1    1    2  501    0 -0.96672807321E+01  0.10042809298E+03 -0.22759120377E+04  0.22781472432E+04  0.00000000000E+00 0. -1.
          1    1    1    2  502    0  0.11733281298E+02 -0.90492595154E+02  0.62383285808E+03  0.63047126381E+03  0.00000000000E+00 0. -1.
         22    1    3    3    0    0  0.58816733503E+02 -0.10644526205E+02  0.22347999964E+03  0.23133530711E+03  0.00000000000E+00 0.  1.
         22    1    3    3    0    0 -0.60882734069E+02  0.70902838267E+00  0.12536266446E+03  0.13936645102E+03  0.00000000000E+00 0.  1.
</event>
<event>
 7    1  0.6152634E-006  0.3573676E+02  0.7818608E-02  0.1631380E+00
          2   -1    0    0  502    0  0.00000000000E+00  0.00000000000E+00  0.78502203435E+03  0.78502203435E+03  0.00000000000E+00 0. -1.
          1   -1    0    0  501    0 -0.00000000000E+00 -0.00000000000E+00 -0.88301028062E+03  0.88301028062E+03  0.00000000000E+00 0. -1.
         25    2    1    2    0    0 -0.42006726236E+02 -0.20366683202E+02  0.81635030054E+02  0.15642587077E+03  0.12500163231E+03 0.  0.
          2    1    1    2  501    0  0.35709598206E+02  0.65831856824E+00 -0.84507688258E+03  0.84583127529E+03  0.00000000000E+00 0. -1.
          1    1    1    2  502    0  0.62971280299E+01  0.19708364634E+02  0.66545360625E+03  0.66577516891E+03  0.00000000000E+00 0. -1.
         22    1    3    3    0    0 -0.19389759675E+02  0.51035213144E+02  0.16139756979E+02  0.56930198632E+02  0.00000000000E+00 0. -1.
         22    1    3    3    0    0 -0.22616966562E+02 -0.71401896347E+02  0.65495273075E+02  0.99495672134E+02  0.00000000000E+00 0. -1.
</event>
<event>
 7    1  0.6152634E-006  0.2272058E+03  0.7818608E-02  0.1294936E+00
          2   -1    0    0  502    0  0.00000000000E+00  0.00000000000E+00  0.13510640151E+04  0.13510640151E+04  0.00000000000E+00 0. -1.
          1   -1    0    0  501    0 -0.00000000000E+00 -0.00000000000E+00 -0.97858180827E+02  0.97858180827E+02  0.00000000000E+00 0. -1.
         25    2    1    2    0    0  0.49020671501E+02  0.19075786287E+03  0.87852569260E+03  0.90896856797E+03  0.12499950605E+03 0.  0.
          2    1    1    2  501    0 -0.71918340194E+02 -0.22152672993E+03  0.85291177163E+02  0.24803411989E+03  0.00000000000E+00 0. -1.
          1    1    1    2  502    0  0.22897668694E+02  0.30768867062E+02  0.28938896453E+03  0.29191950809E+03  0.00000000000E+00 0. -1.
         22    1    3    3    0    0  0.57731602489E+02  0.20550873988E+03  0.76763202212E+03  0.79675950040E+03  0.00000000000E+00 0.  1.
         22    1    3    3    0    0 -0.87109309883E+01 -0.14750877016E+02  0.11089367049E+03  0.11220906757E+03  0.00000000000E+00 0.  1.
</event>
<event>
 7    1  0.6152634E-006  0.5415568E+02  0.7818608E-02  0.1425182E+00
          2   -1    0    0  502    0  0.00000000000E+00  0.00000000000E+00  0.64852196052E+03  0.64852196052E+03  0.00000000000E+00 0. -1.
          1   -1    0    0  501    0 -0.00000000000E+00 -0.00000000000E+00 -0.60669683836E+03  0.60669683836E+03  0.00000000000E+00 0. -1.
         25    2    1    2    0    0  0.45412312705E+02 -0.23197276284E+02 -0.13630603932E+03  0.19184570841E+03  0.12500019083E+03 0.  0.
          2    1    1    2  501    0 -0.41979333104E+00  0.53722282770E+02 -0.43979267055E+03  0.44306190646E+03  0.00000000000E+00 0. -1.
          1    1    1    2  502    0 -0.44992519374E+02 -0.30525006486E+02  0.61792383203E+03  0.62031118401E+03  0.00000000000E+00 0. -1.
         22    1    3    3    0    0  0.87156385230E+02 -0.61284264657E+01 -0.10665126859E+03  0.13787054141E+03  0.00000000000E+00 0. -1.
         22    1    3    3    0    0 -0.41744072525E+02 -0.17068849818E+02 -0.29654770735E+02  0.53975166998E+02  0.00000000000E+00 0. -1.
</event>
<event>
 7    1  0.6152634E-006  0.2331092E+03  0.7818608E-02  0.1269729E+00
          2   -1    0    0  502    0  0.00000000000E+00  0.00000000000E+00  0.17838042092E+04  0.17838042092E+04  0.00000000000E+00 0. -1.
          1   -1    0    0  501    0 -0.00000000000E+00 -0.00000000000E+00 -0.51709532437E+03  0.51709532437E+03  0.00000000000E+00 0. -1.
         25    2    1    2    0    0  0.17144788725E+03  0.19688378141E+03  0.55614829668E+03  0.62696356056E+03  0.12499910774E+03 0.  0.
          2    1    1    2  501    0 -0.46505654524E+02 -0.95426060190E+01 -0.46984812122E+03  0.47224050466E+03  0.00000000000E+00 0. -1.
          1    1    1    2  502    0 -0.12494223273E+03 -0.18734117539E+03  0.11804087093E+04  0.12016954683E+04  0.00000000000E+00 0. -1.
         22    1    3    3    0    0  0.12633726076E+03  0.20558629580E+03  0.49283462264E+03  0.54873745430E+03  0.00000000000E+00 0. -1.
         22    1    3    3    0    0  0.45110626494E+02 -0.87025143885E+01  0.63313674041E+02  0.78226106255E+02  0.00000000000E+00 0. -1.
</event>
<event>
 7    1  0.6152634E-006  0.3737248E+02  0.7818608E-02  0.1583654E+00
          2   -1    0    0  502    0  0.00000000000E+00  0.00000000000E+00  0.14650797844E+04  0.14650797844E+04  0.00000000000E+00 0. -1.
          1   -1    0    0  501    0 -0.00000000000E+00 -0.00000000000E+00 -0.93988707381E+01  0.93988707381E+01  0.00000000000E+00 0. -1.
         25    2    1    2    0    0  0.24130920957E+02 -0.12602239266E+02  0.10382374714E+04  0.10460897100E+04  0.12500206701E+03 0.  0.
          2    1    1    2  501    0 -0.68497355764E+01 -0.25386035522E+02  0.35526179247E+02  0.44198179701E+02  0.00000000000E+00 0. -1.
          1    1    1    2  502    0 -0.17281185380E+02  0.37988274787E+02  0.38191726307E+03  0.38419076540E+03  0.00000000000E+00 0. -1.
         22    1    3    3    0    0  0.32231387957E+01  0.70324097061E+01  0.98956252233E+03  0.98959275917E+03  0.00000000000E+00 0. -1.
         22    1    3    3    0    0  0.20907782161E+02 -0.19634648972E+02  0.48674949025E+02  0.56496950871E+02  0.00000000000E+00 0. -1.
</event>
<event>
 7    1  0.6152634E-006  0.4137622E+02  0.7818608E-02  0.1505965E+00
          2   -1    0    0  502    0  0.00000000000E+00  0.00000000000E+00  0.14881585622E+04  0.14881585622E+04  0.00000000000E+00 0. -1.
          1   -1    0    0  501    0 -0.00000000000E+00 -0.00000000000E+00 -0.68469712168E+02  0.68469712168E+02  0.00000000000E+00 0. -1.
         25    2    1    2    0    0  0.49878428851E+01 -0.15575172773E+01  0.83151307050E+03  0.84087219364E+03  0.12499902075E+03 0.  0.
          2    1    1    2  501    0  0.19378092625E+02 -0.36557916467E+02 -0.56203225554E+02  0.69791076026E+02  0.00000000000E+00 0. -1.
          1    1    1    2  502    0 -0.24365935510E+02  0.38115433744E+02  0.64437900513E+03  0.64596500474E+03  0.00000000000E+00 0. -1.
         22    1    3    3    0    0  0.15627730755E+02 -0.75555961559E+01  0.82797367153E+03  0.82815560962E+03  0.00000000000E+00 0. -1.
         22    1    3    3    0    0 -0.10639887870E+02  0.59980788786E+01  0.35393989750E+01  0.12716584023E+02  0.00000000000E+00 0. -1.
</event>
<event>
 7    1  0.6152634E-006  0.2772784E+02  0.7818608E-02  0.1641466E+00
          2   -1    0    0  502    0  0.00000000000E+00  0.00000000000E+00  0.10869490806E+03  0.10869490806E+03  0.00000000000E+00 0. -1.
          1   -1    0    0  501    0 -0.00000000000E+00 -0.00000000000E+00 -0.27068353968E+03  0.27068353968E+03  0.00000000000E+00 0. -1.
         25    2    1    2    0    0  0.22362852537E+02 -0.47163748216E+02 -0.60339327415E+02  0.14828323682E+03  0.12499026990E+03 0.  0.
          2    1    1    2  501    0 -0.10070631228E+02  0.23062304246E+02 -0.16253364524E+03  0.16447028098E+03  0.00000000000E+00 0. -1.
          1    1    1    2  502    0 -0.12292221309E+02  0.24101443970E+02  0.60884341041E+02  0.66624929945E+02  0.00000000000E+00 0. -1.
         22    1    3    3    0    0  0.13769804615E+02  0.25458869034E+02  0.23318232898E+02  0.37168555489E+02  0.00000000000E+00 0.  1.
         22    1    3    3    0    0  0.85930479214E+01 -0.72622617250E+02 -0.83657560313E+02  0.11111468133E+03  0.00000000000E+00 0.  1.
</event>
<event>
 7    1  0.6152634E-006  0.6402049E+02  0.7818608E-02  0.1413258E+00
          2   -1    0    0  502    0  0.00000000000E+00  0.00000000000E+00  0.24970850599E+03  0.24970850599E+03  0.00000000000E+00 0. -1.
          1   -1    0    0  501    0 -0.00000000000E+00 -0.00000000000E+00 -0.10842120228E+04  0.10842120228E+04  0.00000000000E+00 0. -1.
         25    2    1    2    0    0  0.28581581166E+02  0.84792234995E+02  0.85317633853E+01  0.15397559011E+03  0.12501624480E+03 0.  0.
          2    1    1    2  501    0 -0.43829035157E+02 -0.23677074976E+02 -0.10049633633E+04  0.10061972718E+04  0.00000000000E+00 0. -1.
          1    1    1    2  502    0  0.15247453991E+02 -0.61115160019E+02  0.16192808313E+03  0.17374766687E+03  0.00000000000E+00 0. -1.
         22    1    3    3    0    0 -0.60992215774E+01  0.74855441598E+02 -0.46382170765E+02  0.88271418962E+02  0.00000000000E+00 0.  1.
         22    1    3    3    0    0  0.34680802743E+02  0.99367933967E+01  0.54913934150E+02  0.65704171144E+02  0.00000000000E+00 0.  1.
</event>
<event>
 7    1  0.6152634E-006  0.1955673E+03  0.7818608E-02  0.1289857E+00
          2   -1    0    0  502    0  0.00000000000E+00  0.00000000000E+00  0.51325987050E+04  0.51325987050E+04  0.00000000000E+00 0. -1.
          1   -1    0    0  501    0 -0.00000000000E+00 -0.00000000000E+00 -0.16119928316E+04  0.16119928316E+04  0.00000000000E+00 0. -1.
         25    2    1    2    0    0  0.21044936998E+02  0.20231107861E+03  0.56181296202E+03  0.61043526215E+03  0.12499897233E+03 0.  0.
          2    1    1    2  501    0 -0.45926131500E+02 -0.85814987672E+01 -0.15852395596E+04  0.15859279028E+04  0.00000000000E+00 0. -1.
          1    1    1    2  502    0  0.24881194502E+02 -0.19372957984E+03  0.45440324709E+04  0.45482283716E+04  0.00000000000E+00 0. -1.
         22    1    3    3    0    0  0.60454042416E+02  0.57576535739E+02  0.14321227096E+03  0.16576942802E+03  0.00000000000E+00 0.  1.
         22    1    3    3    0    0 -0.39409105417E+02  0.14473454287E+03  0.41860069106E+03  0.44466583413E+03  0.00000000000E+00 0.  1.
</event>
<event>
 7    1  0.6152634E-006  0.1254910E+03  0.7818608E-02  0.1311060E+00
          2   -1    0    0  502    0  0.00000000000E+00  0.00000000000E+00  0.88882267889E+03  0.88882267889E+03  0.00000000000E+00 0. -1.
          1   -1    0    0  501    0 -0.00000000000E+00 -0.00000000000E+00 -0.19355265527E+03  0.19355265527E+03  0.00000000000E+00 0. -1.
         25    2    1    2    0    0  0.11234625374E+03 -0.60821059481E+02  0.19224560967E+03  0.26252039469E+03  0.12505079443E+03 0.  0.
          2    1    1    2  501    0  0.14836498737E+02  0.58025193545E+02 -0.14635331478E+03  0.15813392276E+03  0.00000000000E+00 0. -1.
          1    1    1    2  502    0 -0.12718275247E+03  0.27958659364E+01  0.64937772873E+03  0.66172101671E+03  0.00000000000E+00 0. -1.
         22    1    3    3    0    0 -0.24585955027E+02 -0.24078522007E+02  0.21459099653E+02  0.40555361723E+02  0.00000000000E+00 0. -1.
         22    1    3    3    0    0  0.13693220876E+03 -0.36742537474E+02  0.17078651001E+03  0.22196503297E+03  0.00000000000E+00 0. -1.
</event>
<event>
 7    1  0.6152634E-006  0.2387247E+03  0.7818608E-02  0.1260301E+00
          2   -1    0    0  502    0  0.00000000000E+00  0.00000000000E+00  0.27567209375E+03  0.27567209375E+03  0.00000000000E+00 0. -1.
          1   -1    0    0  501    0 -0.00000000000E+00 -0.00000000000E+00 -0.60063088608E+03  0.60063088608E+03  0.00000000000E+00 0. -1.
         25    2    1    2    0    0  0.15291340436E+03 -0.13219678071E+03 -0.13583095987E+03  0.27374075568E+03  0.12500181438E+03 0.  0.
          2    1    1    2  501    0  0.34274834270E+02 -0.37522457742E+02 -0.31583567985E+03  0.31989822720E+03  0.00000000000E+00 0. -1.
          1    1    1    2  502    0 -0.18718823863E+03  0.16971923845E+03  0.12670784739E+03  0.28266399695E+03  0.00000000000E+00 0. -1.
         22    1    3    3    0    0  0.14082378358E+03 -0.45122217886E+02 -0.68301424238E+02  0.16288780532E+03  0.00000000000E+00 0.  1.
         22    1    3    3    0    0  0.12089620784E+02 -0.87074562820E+02 -0.67529535633E+02  0.11085295036E+03  0.00000000000E+00 0.  1.
</event>
<event>
 7    1  0.6152634E-006  0.9496765E+02  0.7818608E-02  0.1449763E+00
          2   -1    0    0  502    0  0.00000000000E+00  0.00000000000E+00  0.10708839065E+04  0.10708839065E+04  0.00000000000E+00 0. -1.
          1   -1    0    0  501    0 -0.00000000000E+00 -0.00000000000E+00 -0.29105196159E+03  0.29105196159E+03  0.00000000000E+00 0. -1.
         25    2    1    2    0    0 -0.73382226640E+02 -0.41745371038E+02 -0.39127150026E+02  0.15582873757E+03  0.12499613751E+03 0.  0.
          2    1    1    2  501    0  0.93916914532E+02  0.26663428657E+02 -0.18109177637E+03  0.20573175917E+03  0.00000000000E+00 0. -1.
          1    1    1    2  502    0 -0.20534687891E+02  0.15081942381E+02  0.10000508713E+04  0.10003753714E+04  0.00000000000E+00 0. -1.
         22    1    3    3    0    0 -0.91326060441E+02  0.86469502284E+01 -0.39749563375E+01  0.91820582343E+02  0.00000000000E+00 0.  1.
         22    1    3    3    0    0  0.17943833801E+02 -0.50392321266E+02 -0.35152193689E+02  0.64008155224E+02  0.00000000000E+00 0.  1.
</event>
<event>
 7    1  0.6152634E-006  0.5988580E+02  0.7818608E-02  0.1510639E+00
          2   -1    0    0  502    0  0.00000000000E+00  0.00000000000E+00  0.95792790082E+03  0.95792790082E+03  0.00000000000E+00 0. -1.
          1   -1    0    0  501    0 -0.00000000000E+00 -0.00000000000E+00 -0.24804686160E+02  0.24804686160E+02  0.00000000000E+00 0. -1.
         25    2    1    2    0    0  0.15226850466E+02  0.36176778614E+02  0.69504312373E+03  0.70728392851E+03  0.12499998159E+03 0.  0.
          2    1    1    2  501    0 -0.70588887787E+01 -0.61156425767E+02  0.35284582240E+02  0.70957297491E+02  0.00000000000E+00 0. -1.
          1    1    1    2  502    0 -0.81679616878E+01  0.24979647154E+02  0.20279550869E+03  0.20449136098E+03  0.00000000000E+00 0. -1.
         22    1    3    3    0    0  0.37825386163E+02 -0.37600909408E+02  0.25356968707E+03  0.25911807044E+03  0.00000000000E+00 0.  1.
         22    1    3    3    0    0 -0.22598535696E+02  0.73777688022E+02  0.44147343665E+03  0.44816585807E+03  0.00000000000E+00 0.  1.
</event>
<event>
 7    1  0.6152634E-006  0.6647879E+02  0.7818608E-02  0.1480617E+00
          2   -1    0    0  502    0  0.00000000000E+00  0.00000000000E+00  0.16001583463E+04  0.16001583463E+04  0.00000000000E+00 0. -1.
          1   -1    0    0  501    0 -0.00000000000E+00 -0.00000000000E+00 -0.20309069084E+02  0.20309069084E+02  0.00000000000E+00 0. -1.
         25    2    1    2    0    0  0.54286159343E+02  0.45494383483E+02  0.99072303837E+03  0.10010861491E+04  0.12499845216E+03 0.  0.
          2    1    1    2  501    0 -0.25318056992E+02  0.14418078558E+02  0.27770300145E+01  0.29267676623E+02  0.00000000000E+00 0. -1.
          1    1    1    2  502    0 -0.28968102351E+02 -0.59912462042E+02  0.58634920882E+03  0.59011358970E+03  0.00000000000E+00 0. -1.
         22    1    3    3    0    0  0.55273227357E+02  0.41526446550E+02  0.99365346923E+03  0.99605561709E+03  0.00000000000E+00 0.  1.
         22    1    3    3    0    0 -0.98706801394E+00  0.39679369335E+01 -0.29304308612E+01  0.50305319604E+01  0.00000000000E+00 0.  1.
</event>
<event>
 7    1  0.6152634E-006  0.4787487E+02  0.7818608E-02  0.1482673E+00
          2   -1    0    0  502    0  0.00000000000E+00  0.00000000000E+00  0.31312096996E+02  0.31312096996E+02  0.00000000000E+00 0. -1.
          1   -1    0    0  501    0 -0.00000000000E+00 -0.00000000000E+00 -0.69780096444E+03  0.69780096444E+03  0.00000000000E+00 0. -1.
         25    2    1    2    0    0  0.25722323925E+02  0.56127229961E+01 -0.33029923146E+03  0.35414208497E+03  0.12500357368E+03 0.  0.
          2    1    1    2  501    0  0.14485059562E+02 -0.37151492632E+02 -0.31836172057E+03  0.32084924105E+03  0.00000000000E+00 0. -1.
          1    1    1    2  502    0 -0.40207383487E+02  0.31538769636E+02 -0.17827915410E+02  0.54121735421E+02  0.00000000000E+00 0. -1.
         22    1    3    3    0    0 -0.26999743139E+01 -0.47983220996E+02 -0.58770141271E+02  0.75918435597E+02  0.00000000000E+00 0. -1.
         22    1    3    3    0    0  0.28422298239E+02  0.53595943992E+02 -0.27152909019E+03  0.27822364937E+03  0.00000000000E+00 0. -1.
</event>
<event>
 7    1  0.6152634E-006  0.1662515E+03  0.7818608E-02  0.1257916E+00
          2   -1    0    0  502    0  0.00000000000E+00  0.00000000000E+00  0.18382526112E+04  0.18382526112E+04  0.00000000000E+00 0. -1.
          1   -1    0    0  501    0 -0.00000000000E+00 -0.00000000000E+00 -0.31111322634E+03  0.31111322634E+03  0.00000000000E+00 0. -1.
         25    2    1    2    0    0 -0.19841447302E+03 -0.10457997622E+03  0.12613403057E+03  0.28607757233E+03  0.12500123676E+03 0.  0.
          2    1    1    2  501    0  0.40262202325E+02  0.62928685595E+02 -0.22088331058E+03  0.23317482990E+03  0.00000000000E+00 0. -1.
          1    1    1    2  502    0  0.15815227069E+03  0.41651290629E+02  0.16218886649E+04  0.16301134353E+04  0.00000000000E+00 0. -1.
         22    1    3    3    0    0 -0.16565747893E+03 -0.11250455185E+03  0.55472485583E+02  0.20779045014E+03  0.00000000000E+00 0. -1.
         22    1    3    3    0    0 -0.32756994083E+02  0.79245756275E+01  0.70661544987E+02  0.78287122187E+02  0.00000000000E+00 0. -1.
</event>
<event>
 7    1  0.1154971E-005  0.9825097E+02  0.7818608E-02  0.1367211E+00
          2   -1    0    0  502    0  0.00000000000E+00  0.00000000000E+00  0.31056442912E+04  0.31056442912E+04  0.00000000000E+00 0. -1.
          1   -1    0    0  501    0 -0.00000000000E+00 -0.00000000000E+00 -0.65603910625E+03  0.65603910625E+03  0.00000000000E+00 0. -1.
         25    2    1    2    0    0  0.33106825034E+02 -0.13636174065E+03 -0.23290537582E+03  0.29926656028E+03  0.12499989536E+03 0.  0.
          2    1    1    2  501    0  0.64384791708E+01  0.46548948207E+02 -0.38775061704E+03  0.39058776172E+03  0.00000000000E+00 0. -1.
          1    1    1    2  502    0 -0.39545304205E+02  0.89812792443E+02  0.30702611778E+04  0.30718290755E+04  0.00000000000E+00 0. -1.
         22    1    3    3    0    0  0.69972246141E+02 -0.88625785615E+02 -0.20218345537E+03  0.23157891685E+03  0.00000000000E+00 0. -1.
         22    1    3    3    0    0 -0.36865421107E+02 -0.47735955036E+02 -0.30721920449E+02  0.67687643426E+02  0.00000000000E+00 0. -1.
</event>
<event>
 7    1  0.6152634E-006  0.4761661E+02  0.7818608E-02  0.1522522E+00
          2   -1    0    0  502    0  0.00000000000E+00  0.00000000000E+00  0.96769554509E+02  0.96769554509E+02  0.00000000000E+00 0. -1.
          1   -1    0    0  501    0 -0.00000000000E+00 -0.00000000000E+00 -0.11436619408E+04  0.11436619408E+04  0.00000000000E+00 0. -1.
         25    2    1    2    0    0 -0.48701332544E+02  0.51693829769E+02 -0.15942849471E+03  0.21467728006E+03  0.12499927128E+03 0.  0.
          2    1    1    2  501    0  0.74872724773E+01 -0.29584355646E+02 -0.94842663821E+03  0.94891747872E+03  0.00000000000E+00 0. -1.
          1    1    1    2  502    0  0.41214060066E+02 -0.22109474123E+02  0.60962746671E+02  0.76836736493E+02  0.00000000000E+00 0. -1.
         22    1    3    3    0    0 -0.71600563226E+02  0.79901963079E+02 -0.11482872764E+03  0.15715152258E+03  0.00000000000E+00 0.  1.
         22    1    3    3    0    0  0.22899230682E+02 -0.28208133311E+02 -0.44599767077E+02  0.57525757483E+02  0.00000000000E+00 0.  1.
</event>
<event>
 7    1  0.6152634E-006  0.8814015E+02  0.7818608E-02  0.1357215E+00
          2   -1    0    0  502    0  0.00000000000E+00  0.00000000000E+00  0.76321039321E+03  0.76321039321E+03  0.00000000000E+00 0. -1.
          1   -1    0    0  501    0 -0.00000000000E+00 -0.00000000000E+00 -0.58582244490E+03  0.58582244490E+03  0.00000000000E+00 0. -1.
         25    2    1    2    0    0  0.12085184808E+03  0.64746505175E+02 -0.34583260950E+02  0.18872737653E+03  0.12499896638E+03 0.  0.
          2    1    1    2  501    0 -0.36375199064E+02 -0.43828600248E+02 -0.46968013269E+03  0.47312105041E+03  0.00000000000E+00 0. -1.
          1    1    1    2  502    0 -0.84476649019E+02 -0.20917904926E+02  0.68165134194E+03  0.68718441117E+03  0.00000000000E+00 0. -1.
         22    1    3    3    0    0  0.12982369876E+03  0.90334349913E+02 -0.33002019383E+02  0.16156614998E+03  0.00000000000E+00 0.  1.
         22    1    3    3    0    0 -0.89718506801E+01 -0.25587844738E+02 -0.15812415668E+01  0.27161226553E+02  0.00000000000E+00 0.  1.
</event>
<event>
 7    1  0.6152634E-006  0.7139555E+02  0.7818608E-02  0.1358163E+00
          2   -1    0    0  502    0  0.00000000000E+00  0.00000000000E+00  0.46881535869E+03  0.46881535869E+03  0.00000000000E+00 0. -1.
          1   -1    0    0  501    0 -0.00000000000E+00 -0.00000000000E+00 -0.42654311560E+03  0.42654311560E+03  0.00000000000E+00 0. -1.
         25    2    1    2    0    0 -0.18483218790E+02 -0.68112424091E+02  0.42855579895E+02  0.14980981420E+03  0.12500179202E+03 0.  0.
          2    1    1    2  501    0 -0.51907468084E+02  0.46598782553E+02 -0.36610427676E+03  0.37269045231E+03  0.00000000000E+00 0. -1.
          1    1    1    2  502    0  0.70390686875E+02  0.21513641537E+02  0.36552093996E+03  0.37285820779E+03  0.00000000000E+00 0. -1.
         22    1    3    3    0    0 -0.37085585010E+02 -0.98198697595E+01 -0.34213718988E+02  0.51403784147E+02  0.00000000000E+00 0. -1.
         22    1    3    3    0    0  0.18602366220E+02 -0.58292554331E+02  0.77069298883E+02  0.98406030048E+02  0.00000000000E+00 0. -1.
</event>
<event>
 7    1  0.6152634E-006  0.4611525E+02  0.7818608E-02  0.1488389E+00
          2   -1    0    0  502    0  0.00000000000E+00  0.00000000000E+00  0.57235512223E+03  0.57235512223E+03  0.00000000000E+00 0. -1.
          1   -1    0    0  501    0 -0.00000000000E+00 -0.00000000000E+00 -0.78611099896E+02  0.78611099896E+02  0.00000000000E+00 0. -1.
         25    2    1    2    0    0  0.67644544231E+02  0.91088638483E+01  0.29084969401E+03  0.32384966306E+03  0.12500521587E+03 0.  0.
          2    1    1    2  501    0 -0.34143122102E+02 -0.30542696729E+02 -0.51906371362E+02  0.69230632659E+02  0.00000000000E+00 0. -1.
          1    1    1    2  502    0 -0.33501422129E+02  0.21433832881E+02  0.25480069969E+03  0.25788592640E+03  0.00000000000E+00 0. -1.
         22    1    3    3    0    0 -0.22260853868E+02 -0.35570535621E+02  0.90361358558E+02  0.99629231352E+02  0.00000000000E+00 0. -1.
         22    1    3    3    0    0  0.89905398099E+02  0.44679399470E+02  0.20048833545E+03  0.22422043171E+03  0.00000000000E+00 0. -1.
</event>
<event>
 7    1  0.6152634E-006  0.3961174E+02  0.7818608E-02  0.1542259E+00
          2   -1    0    0  502    0  0.00000000000E+00  0.00000000000E+00  0.12220298487E+03  0.12220298487E+03  0.00000000000E+00 0. -1.
          1   -1    0    0  501    0 -0.00000000000E+00 -0.00000000000E+00 -0.17836627181E+04  0.17836627181E+04  0.00000000000E+00 0. -1.
         25    2    1    2    0    0  0.25456046254E+02 -0.22100417931E+02 -0.17075458964E+03  0.21428414070E+03  0.12499649718E+03 0.  0.
          2    1    1    2  501    0 -0.26811794231E+02 -0.17865468103E+02 -0.15869930222E+04  0.15873200370E+04  0.00000000000E+00 0. -1.
          1    1    1    2  502    0  0.13557479769E+01  0.39965886034E+02  0.96287878587E+02  0.10426152532E+03  0.00000000000E+00 0. -1.
         22    1    3    3    0    0 -0.43162876657E+02  0.20146519604E+02 -0.49505619423E+02  0.68700236738E+02  0.00000000000E+00 0. -1.
         22    1    3    3    0    0  0.68618922912E+02 -0.42246937535E+02 -0.12124897022E+03  0.14558390396E+03  0.00000000000E+00 0. -1.
</event>
<event>
 7    1  0.6152634E-006  0.1103902E+03  0.7818608E-02  0.1443645E+00
          2   -1    0    0  502    0  0.00000000000E+00  0.00000000000E+00  0.46187876421E+03  0.46187876421E+03  0.00000000000E+00 0. -1.
          1   -1    0    0  501    0 -0.00000000000E+00 -0.00000000000E+00 -0.16389326333E+03  0.16389326333E+03  0.00000000000E+00 0. -1.
         25    2    1    2    0    0  0.14386147944E+02  0.11908950489E+03 -0.38014629736E+02  0.17735896639E+03  0.12498727718E+03 0.  0.
          2    1    1    2  501    0 -0.20895924255E+02 -0.94514894144E+01 -0.45750585009E+02  0.51177009793E+02  0.00000000000E+00 0. -1.
          1    1    1    2  502    0  0.65097763111E+01 -0.10963801548E+03  0.38175071562E+03  0.39723605137E+03  0.00000000000E+00 0. -1.
         22    1    3    3    0    0  0.27360269004E+02  0.13933369830E+03 -0.49938208031E+02  0.15052005987E+03  0.00000000000E+00 0. -1.
         22    1    3    3    0    0 -0.12974121060E+02 -0.20244193406E+02  0.11923578295E+02  0.26838906522E+02  0.00000000000E+00 0. -1.
</event>
<event>
 7    1  0.6152634E-006  0.1658241E+03  0.7818608E-02  0.1287766E+00
          2   -1    0    0  502    0  0.00000000000E+00  0.00000000000E+00  0.98639458875E+02  0.98639458875E+02  0.00000000000E+00 0. -1.
          1   -1    0    0  501    0 -0.00000000000E+00 -0.00000000000E+00 -0.15033966111E+04  0.15033966111E+04  0.00000000000E+00 0. -1.
         25    2    1    2    0    0 -0.12577470120E+03 -0.37956745846E+02 -0.10074832938E+04  0.10236738881E+04  0.12500260769E+03 0.  0.
          2    1    1    2  501    0 -0.43155785832E+02  0.35989002962E+02 -0.40535086734E+03  0.40922726673E+03  0.00000000000E+00 0. -1.
          1    1    1    2  502    0  0.16893048703E+03  0.19677428836E+01  0.80770088537E+01  0.16913491518E+03  0.00000000000E+00 0. -1.
         22    1    3    3    0    0 -0.62974778548E+01  0.91262985930E+01 -0.36704403056E+01  0.11679883791E+02  0.00000000000E+00 0.  1.
         22    1    3    3    0    0 -0.11947722334E+03 -0.47083044439E+02 -0.10038128535E+04  0.10119940043E+04  0.00000000000E+00 0.  1.
</event>
<event>
 7    1  0.6152634E-006  0.3348439E+02  0.7818608E-02  0.1566186E+00
          2   -1    0    0  502    0  0.00000000000E+00  0.00000000000E+00  0.10662360790E+03  0.10662360790E+03  0.00000000000E+00 0. -1.
          1   -1    0    0  501    0 -0.00000000000E+00 -0.00000000000E+00 -0.18516286158E+04  0.18516286158E+04  0.00000000000E+00 0. -1.
         25    2    1    2    0    0 -0.14535306034E+02  0.96240859966E+01 -0.80644315675E+03  0.81625937829E+03  0.12499963769E+03 0.  0.
          2    1    1    2  501    0 -0.94917653449E+01 -0.32945835860E+02 -0.10372306624E+04  0.10377971713E+04  0.00000000000E+00 0. -1.
          1    1    1    2  502    0  0.24027071379E+02  0.23321749864E+02  0.98668811287E+02  0.10419567408E+03  0.00000000000E+00 0. -1.
         22    1    3    3    0    0  0.31057191921E+02  0.94371499925E+01 -0.69625408841E+03  0.69701030451E+03  0.00000000000E+00 0. -1.
         22    1    3    3    0    0 -0.45592497955E+02  0.18693600418E+00 -0.11018906835E+03  0.11924907379E+03  0.00000000000E+00 0. -1.
</event>
<event>
 7    1  0.6152634E-006  0.7122555E+02  0.7818608E-02  0.1435094E+00
          2   -1    0    0  502    0  0.00000000000E+00  0.00000000000E+00  0.94019949678E+02  0.94019949678E+02  0.00000000000E+00 0. -1.
          1   -1    0    0  501    0 -0.00000000000E+00 -0.00000000000E+00 -0.37653113960E+03  0.37653113960E+03  0.00000000000E+00 0. -1.
         25    2    1    2    0    0 -0.23021432506E+02 -0.10077058058E+03 -0.12620969702E+03  0.20551991481E+03  0.12499940598E+03 0.  0.
          2    1    1    2  501    0  0.16963780848E+02  0.33883016081E+02 -0.18727621844E+03  0.19107121874E+03  0.00000000000E+00 0. -1.
          1    1    1    2  502    0  0.60576516582E+01  0.66887564502E+02  0.30974725537E+02  0.73959955724E+02  0.00000000000E+00 0. -1.
         22    1    3    3    0    0 -0.43698813681E+02 -0.73426286328E+01  0.33689718812E+01  0.44439289868E+02  0.00000000000E+00 0.  1.
         22    1    3    3    0    0  0.20677381175E+02 -0.93427951950E+02 -0.12957866890E+03  0.16108062495E+03  0.00000000000E+00 0.  1.
</event>
<event>
 7    1  0.6152634E-006  0.1298166E+03  0.7818608E-02  0.1272472E+00
          2   -1    0    0  502    0  0.00000000000E+00  0.00000000000E+00  0.11815600758E+04  0.11815600758E+04  0.00000000000E+00 0. -1.
          1   -1    0    0  501    0 -0.00000000000E+00 -0.00000000000E+00 -0.24934247776E+03  0.24934247776E+03  0.00000000000E+00 0. -1.
         25    2    1    2    0    0  0.55469560944E+02  0.17521167329E+03  0.20915274327E+03  0.30520047598E+03  0.12500583135E+03 0.  0.
          2    1    1    2  501    0  0.11458750531E+02 -0.12608794900E+03 -0.17931728122E+03  0.21950890914E+03  0.00000000000E+00 0. -1.
          1    1    1    2  502    0 -0.66928311475E+02 -0.49123724294E+02  0.90238213599E+03  0.90619316844E+03  0.00000000000E+00 0. -1.
         22    1    3    3    0    0  0.74443479965E+02  0.83421138741E+02  0.17032888955E+03  0.20374702137E+03  0.00000000000E+00 0. -1.
         22    1    3    3    0    0 -0.18973919021E+02  0.91790534551E+02  0.38823853715E+02  0.10145345462E+03  0.00000000000E+00 0. -1.
</event>
<event>
 7    1  0.6152634E-006  0.6441608E+02  0.7818608E-02  0.1440006E+00
          2   -1    0    0  502    0  0.00000000000E+00  0.00000000000E+00  0.38365000405E+03  0.38365000405E+03  0.00000000000E+00 0. -1.
          1   -1    0    0  501    0 -0.00000000000E+00 -0.00000000000E+00 -0.15706430276E+04  0.15706430276E+04  0.00000000000E+00 0. -1.
         25    2    1    2    0    0 -0.61170736339E+02  0.11545843906E+02 -0.15104296420E+03  0.20570539260E+03  0.12500226403E+03 0.  0.
          2    1    1    2  501    0  0.32374383603E+01 -0.40252637024E+02 -0.13890399791E+04  0.13896268634E+04  0.00000000000E+00 0. -1.
          1    1    1    2  502    0  0.57933297979E+02  0.28706793118E+02  0.35308991981E+03  0.35896077565E+03  0.00000000000E+00 0. -1.
         22    1    3    3    0    0 -0.38511638826E+02  0.65246284466E+01  0.12121927074E+02  0.40898144425E+02  0.00000000000E+00 0.  1.
         22    1    3    3    0    0 -0.22659097513E+02  0.50212154591E+01 -0.16316489128E+03  0.16480724817E+03  0.00000000000E+00 0.  1.
</event>
<event>
 7    1  0.6152634E-006  0.5404396E+02  0.7818608E-02  0.1494981E+00
          2   -1    0    0  502    0  0.00000000000E+00  0.00000000000E+00  0.13984243469E+04  0.13984243469E+04  0.00000000000E+00 0. -1.
          1   -1    0    0  501    0 -0.00000000000E+00 -0.00000000000E+00 -0.13398535327E+03  0.13398535327E+03  0.00000000000E+00 0. -1.
         25    2    1    2    0    0  0.42273646841E+02 -0.10299035830E+02  0.44994470896E+02  0.13979897712E+03  0.12500448087E+03 0.  0.
          2    1    1    2  501    0 -0.76575205776E+01 -0.31499354663E+02 -0.82963823818E+02  0.89072122620E+02  0.00000000000E+00 0. -1.
          1    1    1    2  502    0 -0.34616126263E+02  0.41798390493E+02  0.13024083465E+04  0.13035386004E+04  0.00000000000E+00 0. -1.
         22    1    3    3    0    0  0.73344135978E+02 -0.21288794565E+02  0.65813950931E+02  0.10081691918E+03  0.00000000000E+00 0.  1.
         22    1    3    3    0    0 -0.31070489137E+02  0.10989758736E+02 -0.20819480035E+02  0.38982057940E+02  0.00000000000E+00 0.  1.
</event>
<event>
 7    1  0.6364086E-006  0.6341478E+02  0.7818608E-02  0.1429317E+00
          2   -1    0    0  502    0  0.00000000000E+00  0.00000000000E+00  0.11293570910E+04  0.11293570910E+04  0.00000000000E+00 0. -1.
          1   -1    0    0  501    0 -0.00000000000E+00 -0.00000000000E+00 -0.30803760947E+04  0.30803760947E+04  0.00000000000E+00 0. -1.
         25    2    1    2    0    0 -0.15348061926E+02  0.12795769011E+02 -0.19001425832E+03  0.22831853481E+03  0.12499856104E+03 0.  0.
          2    1    1    2  501    0  0.44047549051E+02 -0.46750359274E+02 -0.28704051687E+04  0.28711237548E+04  0.00000000000E+00 0. -1.
          1    1    1    2  502    0 -0.28699487124E+02  0.33954590263E+02  0.11094004233E+04  0.11102908961E+04  0.00000000000E+00 0. -1.
         22    1    3    3    0    0  0.17680720659E+02 -0.25632433853E+02  0.53850289172E+00  0.31143531168E+02  0.00000000000E+00 0.  1.
         22    1    3    3    0    0 -0.33028782586E+02  0.38428202864E+02 -0.19055276121E+03  0.19717500364E+03  0.00000000000E+00 0.  1.
</event>
<event>
 7    1  0.6152634E-006  0.4804578E+02  0.7818608E-02  0.1531133E+00
          2   -1    0    0  502    0  0.00000000000E+00  0.00000000000E+00  0.65759946848E+02  0.65759946848E+02  0.00000000000E+00 0. -1.
          1   -1    0    0  501    0 -0.00000000000E+00 -0.00000000000E+00 -0.64995649778E+03  0.64995649778E+03  0.00000000000E+00 0. -1.
         25    2    1    2    0    0  0.35199375077E+02 -0.58670685557E+02 -0.26395063583E+03  0.29994939264E+03  0.12497381581E+03 0.  0.
          2    1    1    2  501    0  0.13163449392E+01  0.28536947122E+02 -0.35555846513E+03  0.35670423636E+03  0.00000000000E+00 0. -1.
          1    1    1    2  502    0 -0.36515720017E+02  0.30133738435E+02  0.35312550027E+02  0.59062815627E+02  0.00000000000E+00 0. -1.
         22    1    3    3    0    0  0.71803125111E+02  0.66827514448E+00 -0.15118531039E+03  0.16737124438E+03  0.00000000000E+00 0. -1.
         22    1    3    3    0    0 -0.36603750034E+02 -0.59338960702E+02 -0.11276532544E+03  0.13257814826E+03  0.00000000000E+00 0. -1.
</event>
<event>
 7    1  0.6152634E-006  0.1266842E+03  0.7818608E-02  0.1321062E+00
          2   -1    0    0  502    0  0.00000000000E+00  0.00000000000E+00  0.12310302857E+04  0.12310302857E+04  0.00000000000E+00 0. -1.
          1   -1    0    0  501    0 -0.00000000000E+00 -0.00000000000E+00 -0.37096515439E+03  0.37096515439E+03  0.00000000000E+00 0. -1.
         25    2    1    2    0    0  0.88748405841E+02  0.13732363489E+03  0.36263955294E+03  0.41697195096E+03  0.12499640913E+03 0.  0.
          2    1    1    2  501    0 -0.37330072045E+02 -0.12009892540E+03 -0.33138136241E+03  0.35444448580E+03  0.00000000000E+00 0. -1.
          1    1    1    2  502    0 -0.51418333796E+02 -0.17224709488E+02  0.82880694082E+03  0.83057900336E+03  0.00000000000E+00 0. -1.
         22    1    3    3    0    0 -0.11370709936E+02  0.80019796205E+02  0.90187577870E+02  0.12110433531E+03  0.00000000000E+00 0.  1.
         22    1    3    3    0    0  0.10011911578E+03  0.57303838685E+02  0.27245197507E+03  0.29586761565E+03  0.00000000000E+00 0.  1.
</event>
<event>
 7    1  0.6152634E-006  0.9735255E+02  0.7818608E-02  0.1421802E+00
          2   -1    0    0  502    0  0.00000000000E+00  0.00000000000E+00  0.32438445284E+03  0.32438445284E+03  0.00000000000E+00 0. -1.
          1   -1    0    0  501    0 -0.00000000000E+00 -0.00000000000E+00 -0.19356006450E+03  0.19356006450E+03  0.00000000000E+00 0. -1.
         25    2    1    2    0    0 -0.66436489364E+02  0.27626191944E+02 -0.20112659212E+02  0.14562687043E+03  0.12500261090E+03 0.  0.
          2    1    1    2  501    0 -0.30610753720E+02 -0.18879337665E+01 -0.98642328642E+02  0.10330000744E+03  0.00000000000E+00 0. -1.
          1    1    1    2  502    0  0.97047243084E+02 -0.25738258177E+02  0.24957937619E+03  0.26901763946E+03  0.00000000000E+00 0. -1.
         22    1    3    3    0    0 -0.94497371815E+01  0.67714206788E+02 -0.31064788227E+02  0.75096820181E+02  0.00000000000E+00 0. -1.
         22    1    3    3    0    0 -0.56986752182E+02 -0.40088014845E+02  0.10952129015E+02  0.70530050251E+02  0.00000000000E+00 0. -1.
</event>
<event>
 7    1  0.6152634E-006  0.5549498E+02  0.7818608E-02  0.1454099E+00
          2   -1    0    0  502    0  0.00000000000E+00  0.00000000000E+00  0.12212158995E+04  0.12212158995E+04  0.00000000000E+00 0. -1.
          1   -1    0    0  501    0 -0.00000000000E+00 -0.00000000000E+00 -0.70695981957E+03  0.70695981957E+03  0.00000000000E+00 0. -1.
         25    2    1    2    0    0  0.86203294806E+02 -0.27292504481E+02 -0.19277647085E+03  0.24690826429E+03  0.12500013770E+03 0.  0.
          2    1    1    2  501    0 -0.53783895606E+02  0.22505820200E+00 -0.48525779864E+03  0.48822934080E+03  0.00000000000E+00 0. -1.
          1    1    1    2  502    0 -0.32419399200E+02  0.27067446279E+02  0.11922903494E+04  0.11930381140E+04  0.00000000000E+00 0. -1.
         22    1    3    3    0    0  0.20619320815E+02  0.33202818700E+01  0.15763135770E+02  0.26165953296E+02  0.00000000000E+00 0.  1.
         22    1    3    3    0    0  0.65583973990E+02 -0.30612786351E+02 -0.20853960662E+03  0.22074231099E+03  0.00000000000E+00 0.  1.
</event>
<event>
 7    1  0.6152634E-006  0.6239353E+02  0.7818608E-02  0.1401899E+00
          2   -1    0    0  502    0  0.00000000000E+00  0.00000000000E+00  0.10518213523E+03  0.10518213523E+03  0.00000000000E+00 0. -1.
          1   -1    0    0  501    0 -0.00000000000E+00 -0.00000000000E+00 -0.39787689060E+03  0.39787689060E+03  0.00000000000E+00 0. -1.
         25    2    1    2    0    0  0.99430351881E+02 -0.47417368431E+02 -0.92151264679E+02  0.19039925419E+03  0.12500087483E+03 0.  0.
          2    1    1    2  501    0 -0.44140960911E+02  0.39388291646E+02 -0.23810070119E+03  0.24534018394E+03  0.00000000000E+00 0. -1.
          1    1    1    2  502    0 -0.55289390970E+02  0.80290767855E+01  0.37557210502E+02  0.67319587704E+02  0.00000000000E+00 0. -1.
         22    1    3    3    0    0  0.93261660941E+01  0.35734506949E+02 -0.46924528457E+02  0.59714686065E+02  0.00000000000E+00 0.  1.
         22    1    3    3    0    0  0.90104185787E+02 -0.83151875381E+02 -0.45226736222E+02  0.13068456812E+03  0.00000000000E+00 0.  1.
</event>
<event>
 7    1  0.6152634E-006  0.1208182E+03  0.7818608E-02  0.1272008E+00
          2   -1    0    0  502    0  0.00000000000E+00  0.00000000000E+00  0.19148975203E+04  0.19148975203E+04  0.00000000000E+00 0. -1.
          1   -1    0    0  501    0 -0.00000000000E+00 -0.00000000000E+00 -0.11125450338E+03  0.11125450338E+03  0.00000000000E+00 0. -1.
         25    2    1    2    0    0  0.35365900248E+02 -0.72720269342E+02  0.36700627741E+03  0.39605754599E+03  0.12501594941E+03 0.  0.
          2    1    1    2  501    0  0.39922925888E+02  0.12130501626E+03 -0.52636563985E+02  0.13812803788E+03  0.00000000000E+00 0. -1.
          1    1    1    2  502    0 -0.75288826136E+02 -0.48584746916E+02  0.14892733035E+04  0.14919664398E+04  0.00000000000E+00 0. -1.
         22    1    3    3    0    0  0.24183276628E+02  0.73679984791E+01  0.58366140704E+01  0.25945796073E+02  0.00000000000E+00 0.  1.
         22    1    3    3    0    0  0.11182623620E+02 -0.80088267821E+02  0.36116966333E+03  0.37011174992E+03  0.00000000000E+00 0.  1.
</event>
<event>
 7    1  0.6152634E-006  0.5426687E+02  0.7818608E-02  0.1483386E+00
          2   -1    0    0  502    0  0.00000000000E+00  0.00000000000E+00  0.17603183646E+04  0.17603183646E+04  0.00000000000E+00 0. -1.
          1   -1    0    0  501    0 -0.00000000000E+00 -0.00000000000E+00 -0.28357034642E+03  0.28357034642E+03  0.00000000000E+00 0. -1.
         25    2    1    2    0    0 -0.12576030867E+02 -0.27193053806E+02  0.71427532365E+03  0.72574814198E+03  0.12499403537E+03 0.  0.
          2    1    1    2  501    0  0.47568469580E+02  0.26348119734E+02 -0.27487517631E+03  0.28020232916E+03  0.00000000000E+00 0. -1.
          1    1    1    2  502    0 -0.34992438714E+02  0.84493407201E+00  0.10373478709E+04  0.10379382399E+04  0.00000000000E+00 0. -1.
         22    1    3    3    0    0 -0.24389668332E+01 -0.55115683265E+02  0.67096550624E+03  0.67322982529E+03  0.00000000000E+00 0.  1.
         22    1    3    3    0    0 -0.10137064033E+02  0.27922629459E+02  0.43309817414E+02  0.52518316686E+02  0.00000000000E+00 0.  1.
</event>
<event>
 7    1  0.6152634E-006  0.7819100E+02  0.7818608E-02  0.1364506E+00
          2   -1    0    0  502    0  0.00000000000E+00  0.00000000000E+00  0.38042293291E+04  0.38042293291E+04  0.00000000000E+00 0. -1.
          1   -1    0    0  501    0 -0.00000000000E+00 -0.00000000000E+00 -0.79709438936E+01  0.79709438936E+01  0.00000000000E+00 0. -1.
         25    2    1    2    0    0  0.24108704038E+02 -0.25211560093E+02  0.24221293662E+04  0.24256034191E+04  0.12499771020E+03 0.  0.
          2    1    1    2  501    0 -0.83699391324E+02  0.15395679055E+02  0.33249677723E+03  0.34321527051E+03  0.00000000000E+00 0. -1.
          1    1    1    2  502    0  0.59590687286E+02  0.98158810381E+01  0.10416322418E+04  0.10433815834E+04  0.00000000000E+00 0. -1.
         22    1    3    3    0    0 -0.29008639752E+02 -0.35458129638E+02  0.37911452213E+03  0.38187249316E+03  0.00000000000E+00 0.  1.
         22    1    3    3    0    0  0.53117343790E+02  0.10246569545E+02  0.20430148441E+04  0.20437309259E+04  0.00000000000E+00 0.  1.
</event>
<event>
 7    1  0.6152634E-006  0.1621342E+03  0.7818608E-02  0.1318079E+00
          2   -1    0    0  502    0  0.00000000000E+00  0.00000000000E+00  0.10223767889E+04  0.10223767889E+04  0.00000000000E+00 0. -1.
          1   -1    0    0  501    0 -0.00000000000E+00 -0.00000000000E+00 -0.48630444741E+03  0.48630444741E+03  0.00000000000E+00 0. -1.
         25    2    1    2    0    0  0.52492942896E+02  0.17770856527E+03  0.45207917491E+03  0.50431850745E+03  0.12500293336E+03 0.  0.
          2    1    1    2  501    0 -0.35372972076E+02 -0.25344347505E+02 -0.44831060156E+03  0.45041756024E+03  0.00000000000E+00 0. -1.
          1    1    1    2  502    0 -0.17119970821E+02 -0.15236421777E+03  0.53230376818E+03  0.55394516866E+03  0.00000000000E+00 0. -1.
         22    1    3    3    0    0  0.78426049524E+02  0.10898992577E+03  0.37280310616E+03  0.39624689920E+03  0.00000000000E+00 0. -1.
         22    1    3    3    0    0 -0.25933106628E+02  0.68718639499E+02  0.79276068750E+02  0.10807160825E+03  0.00000000000E+00 0. -1.
</event>
<event>
 7    1  0.6152634E-006  0.5485440E+02  0.7818608E-02  0.1445183E+00
          2   -1    0    0  502    0  0.00000000000E+00  0.00000000000E+00  0.22380347878E+03  0.22380347878E+03  0.00000000000E+00 0. -1.
          1   -1    0    0  501    0 -0.00000000000E+00 -0.00000000000E+00 -0.12307041757E+04  0.12307041757E+04  0.00000000000E+00 0. -1.
         25    2    1    2    0    0  0.66107611393E+02 -0.45829258233E+02 -0.51932848008E+03  0.54018043554E+03  0.12498918164E+03 0.  0.
          2    1    1    2  501    0 -0.11362318383E+02  0.44191475503E+02 -0.69667648660E+03  0.69816911688E+03  0.00000000000E+00 0. -1.
          1    1    1    2  502    0 -0.54745293010E+02  0.16377827304E+01  0.20910426978E+03  0.21615810204E+03  0.00000000000E+00 0. -1.
         22    1    3    3    0    0  0.28284499628E+02 -0.76109970037E+02 -0.18070997285E+03  0.19811318670E+03  0.00000000000E+00 0.  1.
         22    1    3    3    0    0  0.37823111765E+02  0.30280711803E+02 -0.33861850723E+03  0.34206724884E+03  0.00000000000E+00 0.  1.
</event>
<event>
 7    1  0.6152634E-006  0.9263282E+02  0.7818608E-02  0.1425773E+00
          2   -1    0    0  502    0  0.00000000000E+00  0.00000000000E+00  0.43738720592E+03  0.43738720592E+03  0.00000000000E+00 0. -1.
          1   -1    0    0  501    0 -0.00000000000E+00 -0.00000000000E+00 -0.78978798440E+03  0.78978798440E+03  0.00000000000E+00 0. -1.
         25    2    1    2    0    0 -0.71958532997E+02  0.97797472236E+02 -0.14205420126E+03  0.22485375414E+03  0.12504974453E+03 0.  0.
          2    1    1    2  501    0  0.51398908046E+02 -0.74240386380E+02 -0.60234625329E+03  0.60907675343E+03  0.00000000000E+00 0. -1.
          1    1    1    2  502    0  0.20559624951E+02 -0.23557085856E+02  0.39199967607E+03  0.39324468275E+03  0.00000000000E+00 0. -1.
         22    1    3    3    0    0 -0.79719650912E+02  0.35397509696E+02 -0.22988203480E+02  0.90203458544E+02  0.00000000000E+00 0. -1.
         22    1    3    3    0    0  0.77611179150E+01  0.62399962540E+02 -0.11906599778E+03  0.13465029559E+03  0.00000000000E+00 0. -1.
</event>
<event>
 7    1  0.8470827E-006  0.6031769E+02  0.7818608E-02  0.1437734E+00
          2   -1    0    0  502    0  0.00000000000E+00  0.00000000000E+00  0.12171888222E+04  0.12171888222E+04  0.00000000000E+00 0. -1.
          1   -1    0    0  501    0 -0.00000000000E+00 -0.00000000000E+00 -0.18691808158E+04  0.18691808158E+04  0.00000000000E+00 0. -1.
         25    2    1    2    0    0  0.78496655302E+02  0.48829330922E+02 -0.15477578893E+03  0.21937885787E+03  0.12500203994E+03 0.  0.
          2    1    1    2  501    0 -0.34630320813E+02 -0.48879188823E+02 -0.16811638552E+04  0.16822307636E+04  0.00000000000E+00 0. -1.
          1    1    1    2  502    0 -0.43866334490E+02  0.49857901324E-01  0.11839476505E+04  0.11847600166E+04  0.00000000000E+00 0. -1.
         22    1    3    3    0    0  0.53052572094E+02  0.17733631107E+02 -0.16800927215E+03  0.17707674214E+03  0.00000000000E+00 0.  1.
         22    1    3    3    0    0  0.25444083209E+02  0.31095699815E+02  0.13233483220E+02  0.42302115733E+02  0.00000000000E+00 0.  1.
</event>
<event>
 7    1  0.6152634E-006  0.6029752E+02  0.7818608E-02  0.1403311E+00
          2   -1    0    0  502    0  0.00000000000E+00  0.00000000000E+00  0.10281508717E+04  0.10281508717E+04  0.00000000000E+00 0. -1.
          1   -1    0    0  501    0 -0.00000000000E+00 -0.00000000000E+00 -0.12529308569E+03  0.12529308569E+03  0.00000000000E+00 0. -1.
         25    2    1    2    0    0 -0.15560509792E+02 -0.37647655539E+01  0.54823168993E+03  0.56252855824E+03  0.12499636024E+03 0.  0.
          2    1    1    2  501    0 -0.46303894344E+02 -0.38623054791E+02 -0.10722458053E+03  0.12301585939E+03  0.00000000000E+00 0. -1.
          1    1    1    2  502    0  0.61864404135E+02  0.42387820345E+02  0.46185067662E+03  0.46789953976E+03  0.00000000000E+00 0. -1.
         22    1    3    3    0    0 -0.39370508513E+02 -0.32035820192E+02  0.94283155219E+02  0.10707774780E+03  0.00000000000E+00 0.  1.
         22    1    3    3    0    0  0.23809998722E+02  0.28271054638E+02  0.45394853471E+03  0.45545081044E+03  0.00000000000E+00 0.  1.
</event>
<event>
 7    1  0.6152634E-006  0.1565252E+03  0.7818608E-02  0.1360639E+00
          2   -1    0    0  502    0  0.00000000000E+00  0.00000000000E+00  0.23432673034E+04  0.23432673034E+04  0.00000000000E+00 0. -1.
          1   -1    0    0  501    0 -0.00000000000E+00 -0.00000000000E+00 -0.13374333450E+03  0.13374333450E+03  0.00000000000E+00 0. -1.
         25    2    1    2    0    0  0.68899372261E+02 -0.15918596343E+03  0.78155939165E+03  0.81027554056E+03  0.12499629796E+03 0.  0.
          2    1    1    2  501    0  0.10792755697E+02  0.29232947780E+02 -0.11352601978E+03  0.11772512892E+03  0.00000000000E+00 0. -1.
          1    1    1    2  502    0 -0.79692127959E+02  0.12995301565E+03  0.15414905971E+04  0.15490099684E+04  0.00000000000E+00 0. -1.
         22    1    3    3    0    0  0.20065721816E+02 -0.20281365069E+02  0.40424315111E+03  0.40524867943E+03  0.00000000000E+00 0. -1.
         22    1    3    3    0    0  0.48833650445E+02 -0.13890459836E+03  0.37731624055E+03  0.40502686114E+03  0.00000000000E+00 0. -1.
</event>
<event>
 7    1  0.6152634E-006  0.4889705E+02  0.7818608E-02  0.1462935E+00
          2   -1    0    0  502    0  0.00000000000E+00  0.00000000000E+00  0.40536698608E+02  0.40536698608E+02  0.00000000000E+00 0. -1.
          1   -1    0    0  501    0 -0.00000000000E+00 -0.00000000000E+00 -0.68464165167E+03  0.68464165167E+03  0.00000000000E+00 0. -1.
         25    2    1    2    0    0  0.99012534153E+01 -0.12015327597E+01 -0.21825578114E+03  0.25171603550E+03  0.12500359205E+03 0.  0.
          2    1    1    2  501    0  0.39724761033E+02 -0.21026268268E+02 -0.41572945297E+03  0.41815205208E+03  0.00000000000E+00 0. -1.
          1    1    1    2  502    0 -0.49626014448E+02  0.22227801028E+02 -0.10119718959E+02  0.55310262704E+02  0.00000000000E+00 0. -1.
         22    1    3    3    0    0 -0.19777007193E+02 -0.43613477669E+02 -0.30082962620E+02  0.56553073196E+02  0.00000000000E+00 0. -1.
         22    1    3    3    0    0  0.29678260608E+02  0.42411944909E+02 -0.18817281852E+03  0.19516296230E+03  0.00000000000E+00 0. -1.
</event>
<event>
 7    1  0.6152634E-006  0.2713344E+03  0.7818608E-02  0.1234103E+00
          2   -1    0    0  502    0  0.00000000000E+00  0.00000000000E+00  0.18834753925E+04  0.18834753925E+04  0.00000000000E+00 0. -1.
          1   -1    0    0  501    0 -0.00000000000E+00 -0.00000000000E+00 -0.10957183885E+04  0.10957183885E+04  0.00000000000E+00 0. -1.
         25    2    1    2    0    0  0.17969655556E+03 -0.24387813484E+03  0.46106729345E+03  0.56567237989E+03  0.12503917604E+03 0.  0.
          2    1    1    2  501    0 -0.19465828001E+03  0.18767698187E+03 -0.10252620992E+04  0.10603192291E+04  0.00000000000E+00 0. -1.
          1    1    1    2  502    0  0.14961724449E+02  0.56201152975E+02  0.13519518097E+04  0.13532021721E+04  0.00000000000E+00 0. -1.
         22    1    3    3    0    0  0.61978927810E+02 -0.18694269659E+03  0.27491061205E+03  0.33817865680E+03  0.00000000000E+00 0. -1.
         22    1    3    3    0    0  0.11771762775E+03 -0.56935438251E+02  0.18615668140E+03  0.22749372308E+03  0.00000000000E+00 0. -1.
</event>
<event>
 7    1  0.6152634E-006  0.9416380E+02  0.7818608E-02  0.1371297E+00
          2   -1    0    0  502    0  0.00000000000E+00  0.00000000000E+00  0.10879862818E+04  0.10879862818E+04  0.00000000000E+00 0. -1.
          1   -1    0    0  501    0 -0.00000000000E+00 -0.00000000000E+00 -0.51118795228E+03  0.51118795228E+03  0.00000000000E+00 0. -1.
         25    2    1    2    0    0  0.85514912508E+02  0.97108591538E+01  0.35701045780E+03  0.38793355568E+03  0.12501550141E+03 0.  0.
          2    1    1    2  501    0 -0.86554851972E+02  0.37676855391E+02 -0.49043521870E+03  0.49943767537E+03  0.00000000000E+00 0. -1.
          1    1    1    2  502    0  0.10399394638E+01 -0.47387714544E+02  0.71022309038E+03  0.71180300299E+03  0.00000000000E+00 0. -1.
         22    1    3    3    0    0  0.80886848186E+02  0.43652267187E+02  0.33460932570E+03  0.34700375140E+03  0.00000000000E+00 0.  1.
         22    1    3    3    0    0  0.46280643227E+01 -0.33941408033E+02  0.22401132103E+02  0.40929804277E+02  0.00000000000E+00 0.  1.
</event>
<event>
 7    1  0.7270013E-006  0.8610007E+02  0.7818608E-02  0.1325885E+00
          2   -1    0    0  502    0  0.00000000000E+00  0.00000000000E+00  0.75150250310E+03  0.75150250310E+03  0.00000000000E+00 0. -1.
          1   -1    0    0  501    0 -0.00000000000E+00 -0.00000000000E+00 -0.11371118231E+04  0.11371118231E+04  0.00000000000E+00 0. -1.
         25    2    1    2    0    0 -0.10292153888E+02  0.13641979997E+01 -0.48654607749E+03  0.50245400758E+03  0.12500061899E+03 0.  0.
          2    1    1    2  501    0 -0.75700368891E+02 -0.10607340429E+02 -0.63780689187E+03  0.64237114883E+03  0.00000000000E+00 0. -1.
          1    1    1    2  502    0  0.85992522779E+02  0.92431424296E+01  0.73874364936E+03  0.74378916981E+03  0.00000000000E+00 0. -1.
         22    1    3    3    0    0 -0.54852059276E+02 -0.23926693515E+02 -0.37446826787E+03  0.37921988175E+03  0.00000000000E+00 0. -1.
         22    1    3    3    0    0  0.44559905387E+02  0.25290891515E+02 -0.11207780961E+03  0.12323412583E+03  0.00000000000E+00 0. -1.
</event>
<event>
 7    1  0.6152634E-006  0.6221283E+02  0.7818608E-02  0.1487906E+00
          2   -1    0    0  502    0  0.00000000000E+00  0.00000000000E+00  0.70068932239E+03  0.70068932239E+03  0.00000000000E+00 0. -1.
          1   -1    0    0  501    0 -0.00000000000E+00 -0.00000000000E+00 -0.56062570133E+03  0.56062570133E+03  0.00000000000E+00 0. -1.
         25    2    1    2    0    0 -0.34572850340E+02  0.13021219914E+02 -0.18824625026E+03  0.22896874466E+03  0.12500080457E+03 0.  0.
          2    1    1    2  501    0 -0.27762480186E+02 -0.10208820259E+02 -0.34996217156E+03  0.35121004661E+03  0.00000000000E+00 0. -1.
          1    1    1    2  502    0  0.62335330526E+02 -0.28123996545E+01  0.67827204288E+03  0.68113623246E+03  0.00000000000E+00 0. -1.
         22    1    3    3    0    0 -0.64637469159E+02 -0.10663624353E+02 -0.17751768504E+03  0.18922009355E+03  0.00000000000E+00 0. -1.
         22    1    3    3    0    0  0.30064618818E+02  0.23684844267E+02 -0.10728565224E+02  0.39748651102E+02  0.00000000000E+00 0. -1.
</event>
<event>
 7    1  0.6152634E-006  0.8397029E+02  0.7818608E-02  0.1411002E+00
          2   -1    0    0  502    0  0.00000000000E+00  0.00000000000E+00  0.46017778257E+03  0.46017778257E+03  0.00000000000E+00 0. -1.
          1   -1    0    0  501    0 -0.00000000000E+00 -0.00000000000E+00 -0.12800403823E+04  0.12800403823E+04  0.00000000000E+00 0. -1.
         25    2    1    2    0    0 -0.90990224200E+02  0.74977679946E+02 -0.27803267910E+03  0.32684349645E+03  0.12499450841E+03 0.  0.
          2    1    1    2  501    0  0.18098819679E+02 -0.34153410589E+02 -0.97321087379E+03  0.97397814534E+03  0.00000000000E+00 0. -1.
          1    1    1    2  502    0  0.72891404521E+02 -0.40824269357E+02  0.43138095312E+03  0.43939652313E+03  0.00000000000E+00 0. -1.
         22    1    3    3    0    0 -0.43022333876E+02  0.37764369898E+02 -0.18284580118E+02  0.60094880947E+02  0.00000000000E+00 0.  1.
         22    1    3    3    0    0 -0.47967890324E+02  0.37213310048E+02 -0.25974809899E+03  0.26674861550E+03  0.00000000000E+00 0.  1.
</event>
<event>
 7    1  0.6152634E-006  0.5037067E+02  0.7818608E-02  0.1500315E+00
          2   -1    0    0  502    0  0.00000000000E+00  0.00000000000E+00  0.22295930429E+04  0.22295930429E+04  0.00000000000E+00 0. -1.
          1   -1    0    0  501    0 -0.00000000000E+00 -0.00000000000E+00 -0.16621448774E+03  0.16621448774E+03  0.00000000000E+00 0. -1.
         25    2    1    2    0    0  0.19041936701E+02 -0.15096969267E+02  0.11218725309E+03  0.16974396477E+03  0.12504607145E+03 0.  0.
          2    1    1    2  501    0  0.31519187057E+02  0.11422196981E+02 -0.13507917812E+03  0.13917726142E+03  0.00000000000E+00 0. -1.
          1    1    1    2  502    0 -0.50561123758E+02  0.36747722858E+01  0.20862704802E+04  0.20868863045E+04  0.00000000000E+00 0. -1.
         22    1    3    3    0    0  0.14816531877E+02  0.35246989954E+02 -0.82721653295E+01  0.39119159461E+02  0.00000000000E+00 0. -1.
         22    1    3    3    0    0  0.42254048244E+01 -0.50343959221E+02  0.12045941842E+03  0.13062480530E+03  0.00000000000E+00 0. -1.
</event>
<event>
 7    1  0.6152634E-006  0.1079947E+03  0.7818608E-02  0.1322759E+00
          2   -1    0    0  502    0  0.00000000000E+00  0.00000000000E+00  0.10478046363E+04  0.10478046363E+04  0.00000000000E+00 0. -1.
          1   -1    0    0  501    0 -0.00000000000E+00 -0.00000000000E+00 -0.17664132842E+03  0.17664132842E+03  0.00000000000E+00 0. -1.
         25    2    1    2    0    0 -0.50256917042E+02 -0.94093512217E+01  0.23866155101E+03  0.27422654636E+03  0.12500627662E+03 0.  0.
          2    1    1    2  501    0  0.11248168114E+03  0.20632541133E+01 -0.13750781331E+03  0.17766480893E+03  0.00000000000E+00 0. -1.
          1    1    1    2  502    0 -0.62224764097E+02  0.73460971084E+01  0.77000957014E+03  0.77255460941E+03  0.00000000000E+00 0. -1.
         22    1    3    3    0    0 -0.63354808276E+02  0.32753079013E+02  0.20952013921E+03  0.22132619513E+03  0.00000000000E+00 0.  1.
         22    1    3    3    0    0  0.13097891234E+02 -0.42162430235E+02  0.29141411809E+02  0.52900351231E+02  0.00000000000E+00 0.  1.
</event>
<event>
 7    1  0.6152634E-006  0.9347541E+02  0.7818608E-02  0.1356836E+00
          2   -1    0    0  502    0  0.00000000000E+00  0.00000000000E+00  0.71278741884E+03  0.71278741884E+03  0.00000000000E+00 0. -1.
          1   -1    0    0  501    0 -0.00000000000E+00 -0.00000000000E+00 -0.68108083204E+02  0.68108083204E+02  0.00000000000E+00 0. -1.
         25    2    1    2    0    0 -0.60280363561E+02  0.39433581898E+02  0.43606573733E+03  0.45931023684E+03  0.12499534701E+03 0.  0.
          2    1    1    2  501    0 -0.53560724610E+02  0.58410908656E+01 -0.23766666422E+02  0.58887384015E+02  0.00000000000E+00 0. -1.
          1    1    1    2  502    0  0.11384108817E+03 -0.45274672764E+02  0.23238026473E+03  0.26269788119E+03  0.00000000000E+00 0. -1.
         22    1    3    3    0    0 -0.96915220456E+02  0.32311655030E+02  0.26037559890E+03  0.27969993835E+03  0.00000000000E+00 0.  1.
         22    1    3    3    0    0  0.36634856895E+02  0.71219268684E+01  0.17569013843E+03  0.17961029849E+03  0.00000000000E+00 0.  1.
</event>
<event>
 7    1  0.6152634E-006  0.7528087E+02  0.7818608E-02  0.1418213E+00
          2   -1    0    0  502    0  0.00000000000E+00  0.00000000000E+00  0.17575044179E+04  0.17575044179E+04  0.00000000000E+00 0. -1.
          1   -1    0    0  501    0 -0.00000000000E+00 -0.00000000000E+00 -0.14936176095E+03  0.14936176095E+03  0.00000000000E+00 0. -1.
         25    2    1    2    0    0 -0.29590985139E+02 -0.81464862693E+02  0.51303034772E+03  0.53510557044E+03  0.12500273428E+03 0.  0.
          2    1    1    2  501    0  0.55931589069E+02  0.50345455879E+02 -0.12772417933E+03  0.14824464094E+03  0.00000000000E+00 0. -1.
          1    1    1    2  502    0 -0.26340603930E+02  0.31119406814E+02  0.12228364886E+04  0.12235159675E+04  0.00000000000E+00 0. -1.
         22    1    3    3    0    0 -0.11537040741E+02  0.24840701802E+02  0.23994397606E+03  0.24150212302E+03  0.00000000000E+00 0.  1.
         22    1    3    3    0    0 -0.18053944399E+02 -0.10630556450E+03  0.27308637167E+03  0.29360344743E+03  0.00000000000E+00 0.  1.
</event>
<event>
 7    1  0.6152634E-006  0.9934451E+02  0.7818608E-02  0.1308340E+00
          2   -1    0    0  502    0  0.00000000000E+00  0.00000000000E+00  0.23878767041E+03  0.23878767041E+03  0.00000000000E+00 0. -1.
          1   -1    0    0  501    0 -0.00000000000E+00 -0.00000000000E+00 -0.75863249539E+03  0.75863249539E+03  0.00000000000E+00 0. -1.
         25    2    1    2    0    0 -0.71246224723E+02  0.11490858625E+03 -0.17292752155E+03  0.25260179894E+03  0.12499493345E+03 0.  0.
          2    1    1    2  501    0 -0.43340878320E+01 -0.97555387666E+02 -0.53370918896E+03  0.54256919961E+03  0.00000000000E+00 0. -1.
          1    1    1    2  502    0  0.75580312555E+02 -0.17353198582E+02  0.18679188554E+03  0.20224916724E+03  0.00000000000E+00 0. -1.
         22    1    3    3    0    0 -0.90363023738E+02  0.85026895296E+02 -0.67250878916E+02  0.14113018705E+03  0.00000000000E+00 0.  1.
         22    1    3    3    0    0  0.19116799014E+02  0.29881690951E+02 -0.10567664264E+03  0.11147161189E+03  0.00000000000E+00 0.  1.
</event>
<event>
 7    1  0.6152634E-006  0.1810683E+03  0.7818608E-02  0.1300435E+00
          2   -1    0    0  502    0  0.00000000000E+00  0.00000000000E+00  0.61644085302E+03  0.61644085302E+03  0.00000000000E+00 0. -1.
          1   -1    0    0  501    0 -0.00000000000E+00 -0.00000000000E+00 -0.14400676035E+04  0.14400676035E+04  0.00000000000E+00 0. -1.
         25    2    1    2    0    0  0.76255381442E+02  0.19017777316E+03 -0.91133191796E+02  0.25673513119E+03  0.12500080133E+03 0.  0.
          2    1    1    2  501    0  0.21940013103E+02 -0.40134073753E+02 -0.12506393559E+04  0.12514754918E+04  0.00000000000E+00 0. -1.
          1    1    1    2  502    0 -0.98195394546E+02 -0.15004369941E+03  0.51814579715E+03  0.54829783361E+03  0.00000000000E+00 0. -1.
         22    1    3    3    0    0  0.50642632620E+02  0.11700523644E+03  0.11612674861E+02  0.12802248166E+03  0.00000000000E+00 0. -1.
         22    1    3    3    0    0  0.25612748823E+02  0.73172536727E+02 -0.10274586666E+03  0.12871264953E+03  0.00000000000E+00 0. -1.
</event>
<event>
 7    1  0.6152634E-006  0.1641485E+03  0.7818608E-02  0.1322952E+00
          2   -1    0    0  502    0  0.00000000000E+00  0.00000000000E+00  0.16726906223E+04  0.16726906223E+04  0.00000000000E+00 0. -1.
          1   -1    0    0  501    0 -0.00000000000E+00 -0.00000000000E+00 -0.28110933403E+03  0.28110933403E+03  0.00000000000E+00 0. -1.
         25    2    1    2    0    0  0.14899254356E+03  0.10988717106E+03  0.28125730887E+03  0.35917144945E+03  0.12499795162E+03 0.  0.
          2    1    1    2  501    0 -0.24149519366E+01 -0.41080810010E+02 -0.23551522270E+03  0.23908342700E+03  0.00000000000E+00 0. -1.
          1    1    1    2  502    0 -0.14657759163E+03 -0.68806361049E+02  0.13458392021E+04  0.13555450799E+04  0.00000000000E+00 0. -1.
         22    1    3    3    0    0  0.80533640693E+02  0.58965267289E+02  0.24846855756E+03  0.26776705198E+03  0.00000000000E+00 0.  1.
         22    1    3    3    0    0  0.68458902869E+02  0.50921903770E+02  0.32788751311E+02  0.91404397477E+02  0.00000000000E+00 0.  1.
</event>
<event>
 7    1  0.6152634E-006  0.1707403E+03  0.7818608E-02  0.1208204E+00
          2   -1    0    0  502    0  0.00000000000E+00  0.00000000000E+00  0.16888829417E+04  0.16888829417E+04  0.00000000000E+00 0. -1.
          1   -1    0    0  501    0 -0.00000000000E+00 -0.00000000000E+00 -0.71765769742E+03  0.71765769742E+03  0.00000000000E+00 0. -1.
         25    2    1    2    0    0 -0.10106870626E+03 -0.14423169312E+03 -0.62092068976E+01  0.21605857905E+03  0.12500036258E+03 0.  0.
          2    1    1    2  501    0 -0.16492557648E+02  0.17388035802E+03 -0.59156213158E+03  0.61680802433E+03  0.00000000000E+00 0. -1.
          1    1    1    2  502    0  0.11756126391E+03 -0.29648664903E+02  0.15689965828E+04  0.15736740358E+04  0.00000000000E+00 0. -1.
         22    1    3    3    0    0  0.77242257129E+01 -0.89876029126E+02 -0.23503847388E+02  0.93219070561E+02  0.00000000000E+00 0.  1.
         22    1    3    3    0    0 -0.10879293197E+03 -0.54355663992E+02  0.17294640490E+02  0.12283950849E+03  0.00000000000E+00 0.  1.
</event>
<event>
 7    1  0.6152634E-006  0.6344458E+02  0.7818608E-02  0.1521423E+00
          2   -1    0    0  502    0  0.00000000000E+00  0.00000000000E+00  0.51200845647E+03  0.51200845647E+03  0.00000000000E+00 0. -1.
          1   -1    0    0  501    0 -0.00000000000E+00 -0.00000000000E+00 -0.33254497045E+04  0.33254497045E+04  0.00000000000E+00 0. -1.
         25    2    1    2    0    0 -0.35909442242E+02 -0.36430680804E+02 -0.33390731948E+02  0.13912694696E+03  0.12499873537E+03 0.  0.
          2    1    1    2  501    0  0.26774451445E+02  0.57617391545E+02 -0.32385892452E+04  0.32392123941E+04  0.00000000000E+00 0. -1.
          1    1    1    2  502    0  0.91349907965E+01 -0.21186710740E+02  0.45853872907E+03  0.45911881994E+03  0.00000000000E+00 0. -1.
         22    1    3    3    0    0  0.95411468639E+01  0.41372362809E+02  0.15427006498E+01  0.42486301477E+02  0.00000000000E+00 0.  1.
         22    1    3    3    0    0 -0.45450589106E+02 -0.77803043613E+02 -0.34933432598E+02  0.96640645479E+02  0.00000000000E+00 0.  1.
</event>
<event>
 7    1  0.6152634E-006  0.1494244E+03  0.7818608E-02  0.1305948E+00
          2   -1    0    0  502    0  0.00000000000E+00  0.00000000000E+00  0.18309110911E+04  0.18309110911E+04  0.00000000000E+00 0. -1.
          1   -1    0    0  501    0 -0.00000000000E+00 -0.00000000000E+00 -0.33715403581E+02  0.33715403581E+02  0.00000000000E+00 0. -1.
         25    2    1    2    0    0  0.11817623971E+03 -0.29143376166E+02  0.82280374356E+03  0.84108972053E+03  0.12494381761E+03 0.  0.
          2    1    1    2  501    0 -0.13948869276E+03  0.77334115363E+02  0.24560374822E+03  0.29284614040E+03  0.00000000000E+00 0. -1.
          1    1    1    2  502    0  0.21312453055E+02 -0.48190739197E+02  0.72878819572E+03  0.73069063373E+03  0.00000000000E+00 0. -1.
         22    1    3    3    0    0  0.10292950473E+03 -0.63800146916E+02  0.74246527990E+03  0.75227630133E+03  0.00000000000E+00 0.  1.
         22    1    3    3    0    0  0.15246734977E+02  0.34656770750E+02  0.80338463665E+02  0.88813419201E+02  0.00000000000E+00 0.  1.
</event>
<event>
 7    1  0.1313948E-005  0.1125166E+03  0.7818608E-02  0.1301335E+00
          2   -1    0    0  502    0  0.00000000000E+00  0.00000000000E+00  0.18339406436E+04  0.18339406436E+04  0.00000000000E+00 0. -1.
          1   -1    0    0  501    0 -0.00000000000E+00 -0.00000000000E+00 -0.12485586279E+04  0.12485586279E+04  0.00000000000E+00 0. -1.
         25    2    1    2    0    0 -0.48567044532E+02 -0.12168218975E+02 -0.43319163820E+03  0.45363835517E+03  0.12500375398E+03 0.  0.
          2    1    1    2  501    0 -0.34123932708E+02 -0.64532876896E+02 -0.80173998730E+03  0.80505648387E+03  0.00000000000E+00 0. -1.
          1    1    1    2  502    0  0.82690977239E+02  0.76701095872E+02  0.18203136411E+04  0.18238044325E+04  0.00000000000E+00 0. -1.
         22    1    3    3    0    0  0.13289903708E+02 -0.56023083090E+02 -0.15691469444E+03  0.16714493325E+03  0.00000000000E+00 0. -1.
         22    1    3    3    0    0 -0.61856948239E+02  0.43854864115E+02 -0.27627694375E+03  0.28649342192E+03  0.00000000000E+00 0. -1.
</event>
<event>
 7    1  0.6152634E-006  0.5687270E+02  0.7818608E-02  0.1454408E+00
          2   -1    0    0  502    0  0.00000000000E+00  0.00000000000E+00  0.32924574742E+04  0.32924574742E+04  0.00000000000E+00 0. -1.
          1   -1    0    0  501    0 -0.00000000000E+00 -0.00000000000E+00 -0.96690407693E+03  0.96690407693E+03  0.00000000000E+00 0. -1.
         25    2    1    2    0    0  0.76566040171E-01  0.93481688461E+02  0.19093347471E+02  0.15725511720E+03  0.12500313608E+03 0.  0.
          2    1    1    2  501    0  0.14249086837E+02 -0.38569179328E+02 -0.89710099492E+03  0.89804276800E+03  0.00000000000E+00 0. -1.
          1    1    1    2  502    0 -0.14325652877E+02 -0.54912509133E+02  0.32035610448E+04  0.32040636660E+04  0.00000000000E+00 0. -1.
         22    1    3    3    0    0  0.55417766686E+02  0.62998786781E+02 -0.15347399741E+02  0.85296651042E+02  0.00000000000E+00 0.  1.
         22    1    3    3    0    0 -0.55341200645E+02  0.30482901681E+02  0.34440747211E+02  0.71958466161E+02  0.00000000000E+00 0.  1.
</event>
<event>
 7    1  0.6152634E-006  0.4471479E+02  0.7818608E-02  0.1534770E+00
          2   -1    0    0  502    0  0.00000000000E+00  0.00000000000E+00  0.42557002948E+03  0.42557002948E+03  0.00000000000E+00 0. -1.
          1   -1    0    0  501    0 -0.00000000000E+00 -0.00000000000E+00 -0.41371089532E+03  0.41371089532E+03  0.00000000000E+00 0. -1.
         25    2    1    2    0    0  0.39796305612E+02  0.14073002546E+02 -0.25336044750E+01  0.13195805628E+03  0.12499885650E+03 0.  0.
          2    1    1    2  501    0 -0.22821719022E+02 -0.38773234465E+02 -0.34437699373E+03  0.34730348167E+03  0.00000000000E+00 0. -1.
          1    1    1    2  502    0 -0.16974586590E+02  0.24700231919E+02  0.35876973236E+03  0.36001938685E+03  0.00000000000E+00 0. -1.
         22    1    3    3    0    0 -0.41934327662E+02  0.24902884746E+02 -0.75887818885E+01  0.49358191982E+02  0.00000000000E+00 0.  1.
         22    1    3    3    0    0  0.81730633274E+02 -0.10829882200E+02  0.50551774135E+01  0.82599864301E+02  0.00000000000E+00 0.  1.
</event>
<event>
 7    1  0.6152634E-006  0.1643764E+03  0.7818608E-02  0.1200200E+00
          2   -1    0    0  502    0  0.00000000000E+00  0.00000000000E+00  0.25287112076E+04  0.25287112076E+04  0.00000000000E+00 0. -1.
          1   -1    0    0  501    0 -0.00000000000E+00 -0.00000000000E+00 -0.10851174692E+04  0.10851174692E+04  0.00000000000E+00 0. -1.
         25    2    1    2    0    0  0.43965762913E+02 -0.28046602849E+03  0.35580871940E+03  0.47203629541E+03  0.12499695173E+03 0.  0.
          2    1    1    2  501    0  0.23640501538E+02  0.16097938785E+03 -0.10183104332E+04  0.10312271210E+04  0.00000000000E+00 0. -1.
          1    1    1    2  502    0 -0.67606264451E+02  0.11948664064E+03  0.21060954522E+04  0.21105652604E+04  0.00000000000E+00 0. -1.
         22    1    3    3    0    0  0.49090505113E+02 -0.24957685279E+03  0.23180174154E+03  0.34413737159E+03  0.00000000000E+00 0. -1.
         22    1    3    3    0    0 -0.51247421994E+01 -0.30889175698E+02  0.12400697786E+03  0.12789892383E+03  0.00000000000E+00 0. -1.
</event>
<event>
 7    1  0.6152634E-006  0.6739929E+02  0.7818608E-02  0.1448284E+00
          2   -1    0    0  502    0  0.00000000000E+00  0.00000000000E+00  0.27529865022E+03  0.27529865022E+03  0.00000000000E+00 0. -1.
          1   -1    0    0  501    0 -0.00000000000E+00 -0.00000000000E+00 -0.10102267975E+04  0.10102267975E+04  0.00000000000E+00 0. -1.
         25    2    1    2    0    0  0.68645753310E+02  0.10290578084E+02  0.22789648804E+03  0.26903250579E+03  0.12499417771E+03 0.  0.
          2    1    1    2  501    0 -0.62440983450E+02  0.25468398911E+02 -0.97566685940E+03  0.97799454818E+03  0.00000000000E+00 0. -1.
          1    1    1    2  502    0 -0.62047698603E+01 -0.35758976995E+02  0.12842224051E+02  0.38498393776E+02  0.00000000000E+00 0. -1.
         22    1    3    3    0    0  0.92082294118E+02  0.32309808450E+02  0.11101851812E+03  0.14781131207E+03  0.00000000000E+00 0.  1.
         22    1    3    3    0    0 -0.23436540807E+02 -0.22019230366E+02  0.11687796993E+03  0.12122119371E+03  0.00000000000E+00 0.  1.
</event>
<event>
 7    1  0.6152634E-006  0.4466396E+02  0.7818608E-02  0.1498091E+00
          2   -1    0    0  502    0  0.00000000000E+00  0.00000000000E+00  0.10223102050E+04  0.10223102050E+04  0.00000000000E+00 0. -1.
          1   -1    0    0  501    0 -0.00000000000E+00 -0.00000000000E+00 -0.27677839304E+02  0.27677839304E+02  0.00000000000E+00 0. -1.
         25    2    1    2    0    0 -0.17777686583E+02 -0.29315334917E+02  0.50398486757E+03  0.52038581345E+03  0.12500085239E+03 0.  0.
          2    1    1    2  501    0  0.35200583945E+02 -0.15323408816E+02  0.18228189192E+01  0.38434498002E+02  0.00000000000E+00 0. -1.
          1    1    1    2  502    0 -0.17422897363E+02  0.44638743733E+02  0.48882467924E+03  0.49116773289E+03  0.00000000000E+00 0. -1.
         22    1    3    3    0    0  0.45631252898E+02 -0.30428695060E+01  0.92188509217E+02  0.10290865623E+03  0.00000000000E+00 0. -1.
         22    1    3    3    0    0 -0.63408939481E+02 -0.26272465411E+02  0.41179635835E+03  0.41747715722E+03  0.00000000000E+00 0. -1.
</event>
<event>
 7    1  0.6152634E-006  0.3076781E+02  0.7818608E-02  0.1612664E+00
          2   -1    0    0  502    0  0.00000000000E+00  0.00000000000E+00  0.13365655442E+03  0.13365655442E+03  0.00000000000E+00 0. -1.
          1   -1    0    0  501    0 -0.00000000000E+00 -0.00000000000E+00 -0.80740933132E+03  0.80740933132E+03  0.00000000000E+00 0. -1.
         25    2    1    2    0    0 -0.74674675732E+01 -0.32038105545E+01 -0.26033762001E+03  0.28890771296E+03  0.12500385089E+03 0.  0.
          2    1    1    2  501    0 -0.19505840878E+02  0.18395371372E+02 -0.53043530210E+03  0.53111249018E+03  0.00000000000E+00 0. -1.
          1    1    1    2  502    0  0.26973308452E+02 -0.15191560818E+02  0.11702014521E+03  0.12104568259E+03  0.00000000000E+00 0. -1.
         22    1    3    3    0    0  0.29259157502E+02 -0.42627756963E+02 -0.20598477522E+03  0.21237455493E+03  0.00000000000E+00 0. -1.
         22    1    3    3    0    0 -0.36726625076E+02  0.39423946409E+02 -0.54352844796E+02  0.76533158025E+02  0.00000000000E+00 0. -1.
</event>
<event>
 7    1  0.6152634E-006  0.1032142E+03  0.7818608E-02  0.1389966E+00
          2   -1    0    0  502    0  0.00000000000E+00  0.00000000000E+00  0.33290783598E+04  0.33290783598E+04  0.00000000000E+00 0. -1.
          1   -1    0    0  501    0 -0.00000000000E+00 -0.00000000000E+00 -0.12348893961E+03  0.12348893961E+03  0.00000000000E+00 0. -1.
         25    2    1    2    0    0  0.69920980308E+02 -0.14885148192E+02  0.11837928965E+03  0.18640834520E+03  0.12499561519E+03 0.  0.
          2    1    1    2  501    0  0.25197032741E+02 -0.27286966856E+02 -0.84729916244E+02  0.92512851679E+02  0.00000000000E+00 0. -1.
          1    1    1    2  502    0 -0.95118013050E+02  0.42172115048E+02  0.31719400468E+04  0.31736461025E+04  0.00000000000E+00 0. -1.
         22    1    3    3    0    0 -0.15775534137E+01 -0.46944678186E+02  0.31704532225E+01  0.47078054956E+02  0.00000000000E+00 0. -1.
         22    1    3    3    0    0  0.71498533722E+02  0.32059529994E+02  0.11520883643E+03  0.13933029025E+03  0.00000000000E+00 0. -1.
</event>
<event>
 7    1  0.6152634E-006  0.4187329E+03  0.7818608E-02  0.1132961E+00
          2   -1    0    0  502    0  0.00000000000E+00  0.00000000000E+00  0.25705012396E+04  0.25705012396E+04  0.00000000000E+00 0. -1.
          1   -1    0    0  501    0 -0.00000000000E+00 -0.00000000000E+00 -0.20845242483E+04  0.20845242483E+04  0.00000000000E+00 0. -1.
         25    2    1    2    0    0  0.17911122354E+03 -0.30822885931E+03  0.73035678132E+03  0.82227278046E+03  0.12500254936E+03 0.  0.
          2    1    1    2  501    0 -0.30924106684E+01 -0.11685393187E+03 -0.20073429237E+04  0.20107436480E+04  0.00000000000E+00 0. -1.
          1    1    1    2  502    0 -0.17601881287E+03  0.42508279118E+03  0.17629631337E+04  0.18220090594E+04  0.00000000000E+00 0. -1.
         22    1    3    3    0    0  0.83552351440E+02 -0.18869198252E+03  0.28883649759E+03  0.35498194607E+03  0.00000000000E+00 0. -1.
         22    1    3    3    0    0  0.95558872103E+02 -0.11953687679E+03  0.44152028374E+03  0.46729083439E+03  0.00000000000E+00 0. -1.
</event>
<event>
 7    1  0.6152634E-006  0.3638548E+02  0.7818608E-02  0.1605104E+00
          2   -1    0    0  502    0  0.00000000000E+00  0.00000000000E+00  0.27805597779E+03  0.27805597779E+03  0.00000000000E+00 0. -1.
          1   -1    0    0  501    0 -0.00000000000E+00 -0.00000000000E+00 -0.14463776128E+04  0.14463776128E+04  0.00000000000E+00 0. -1.
         25    2    1    2    0    0 -0.27899439494E+02 -0.25823015280E+02 -0.51927351382E+02  0.14059447811E+03  0.12500060245E+03 0.  0.
          2    1    1    2  501    0  0.64088247342E+01  0.35850493738E+02 -0.13492687948E+04  0.13497602052E+04  0.00000000000E+00 0. -1.
          1    1    1    2  502    0  0.21490614760E+02 -0.10027478458E+02  0.23287451120E+03  0.23407890724E+03  0.00000000000E+00 0. -1.
         22    1    3    3    0    0 -0.63411941304E+02  0.20276650601E+02 -0.67344164305E+01  0.66914641329E+02  0.00000000000E+00 0.  1.
         22    1    3    3    0    0  0.35512501810E+02 -0.46099665881E+02 -0.45192934951E+02  0.73679836785E+02  0.00000000000E+00 0.  1.
</event>
<event>
 7    1  0.6152634E-006  0.4910521E+02  0.7818608E-02  0.1551588E+00
          2   -1    0    0  502    0  0.00000000000E+00  0.00000000000E+00  0.17222052987E+04  0.17222052987E+04  0.00000000000E+00 0. -1.
          1   -1    0    0  501    0 -0.00000000000E+00 -0.00000000000E+00 -0.45507229923E+02  0.45507229923E+02  0.00000000000E+00 0. -1.
         25    2    1    2    0    0 -0.32101452777E+02 -0.32140115630E+02  0.48749551619E+03  0.50531190124E+03  0.12499899570E+03 0.  0.
          2    1    1    2  501    0  0.47621964204E+02  0.13218920789E+02 -0.19733750188E+02  0.53216653765E+02  0.00000000000E+00 0. -1.
          1    1    1    2  502    0 -0.15520511427E+02  0.18921194841E+02  0.12089363027E+04  0.12091839736E+04  0.00000000000E+00 0. -1.
         22    1    3    3    0    0  0.40499775369E+02  0.18406670473E+02  0.15686765286E+03  0.16305366551E+03  0.00000000000E+00 0.  1.
         22    1    3    3    0    0 -0.72601228146E+02 -0.50546786104E+02  0.33062786333E+03  0.34225823573E+03  0.00000000000E+00 0.  1.
</event>
<event>
 7    1  0.6152634E-006  0.5919935E+02  0.7818608E-02  0.1434794E+00
          2   -1    0    0  502    0  0.00000000000E+00  0.00000000000E+00  0.91351982531E+03  0.91351982531E+03  0.00000000000E+00 0. -1.
          1   -1    0    0  501    0 -0.00000000000E+00 -0.00000000000E+00 -0.22170597089E+02  0.22170597089E+02  0.00000000000E+00 0. -1.
         25    2    1    2    0    0  0.83908470974E+02  0.24851887200E+02  0.57766723413E+03  0.59748020739E+03  0.12499966814E+03 0.  0.
          2    1    1    2  501    0 -0.31257182300E+02 -0.33329195791E+02  0.44448077945E+02  0.63745418427E+02  0.00000000000E+00 0. -1.
          1    1    1    2  502    0 -0.52651288673E+02  0.84773085906E+01  0.26923391615E+03  0.27446479658E+03  0.00000000000E+00 0. -1.
         22    1    3    3    0    0  0.87686000332E+02  0.26793959216E+02  0.20251599739E+03  0.22230492595E+03  0.00000000000E+00 0. -1.
         22    1    3    3    0    0 -0.37775293586E+01 -0.19420720163E+01  0.37515123674E+03  0.37517528143E+03  0.00000000000E+00 0. -1.
</event>
<event>
 7    1  0.6152634E-006  0.3424085E+02  0.7818608E-02  0.1631493E+00
          2   -1    0    0  502    0  0.00000000000E+00  0.00000000000E+00  0.23921325043E+03  0.23921325043E+03  0.00000000000E+00 0. -1.
          1   -1    0    0  501    0 -0.00000000000E+00 -0.00000000000E+00 -0.14884186658E+04  0.14884186658E+04  0.00000000000E+00 0. -1.
         25    2    1    2    0    0 -0.14532836179E+02  0.58201806287E+01  0.43251116316E+02  0.13319379185E+03  0.12499939718E+03 0.  0.
          2    1    1    2  501    0 -0.10476656215E+02  0.18866025965E+02 -0.14413208302E+04  0.14414823699E+04  0.00000000000E+00 0. -1.
          1    1    1    2  502    0  0.25009492394E+02 -0.24686206593E+02  0.14886429842E+03  0.15295575455E+03  0.00000000000E+00 0. -1.
         22    1    3    3    0    0 -0.31349110757E+02  0.16820735813E+01 -0.38472102635E+02  0.49655803266E+02  0.00000000000E+00 0. -1.
         22    1    3    3    0    0  0.16816274578E+02  0.41381070474E+01  0.81723218952E+02  0.83537988583E+02  0.00000000000E+00 0. -1.
</event>
<event>
 7    1  0.6152634E-006  0.2106544E+03  0.7818608E-02  0.1180464E+00
          2   -1    0    0  502    0  0.00000000000E+00  0.00000000000E+00  0.16877235732E+04  0.16877235732E+04  0.00000000000E+00 0. -1.
          1   -1    0    0  501    0 -0.00000000000E+00 -0.00000000000E+00 -0.92080997936E+03  0.92080997936E+03  0.00000000000E+00 0. -1.
         25    2    1    2    0    0  0.23989814423E+03 -0.20059680066E+03 -0.83735524006E+02  0.34702281418E+03  0.12499199790E+03 0.  0.
          2    1    1    2  501    0 -0.18432087066E+03  0.79533362232E+02 -0.68821289273E+03  0.71689380300E+03  0.00000000000E+00 0. -1.
          1    1    1    2  502    0 -0.55577273574E+02  0.12106343843E+03  0.15388620105E+04  0.15446169353E+04  0.00000000000E+00 0. -1.
         22    1    3    3    0    0  0.25098927762E+03 -0.18077901909E+03 -0.61761994236E+02  0.31542228069E+03  0.00000000000E+00 0.  1.
         22    1    3    3    0    0 -0.11091133388E+02 -0.19817781568E+02 -0.21973529771E+02  0.31600533487E+02  0.00000000000E+00 0.  1.
</event>
<event>
 7    1  0.6152634E-006  0.1051386E+03  0.7818608E-02  0.1312118E+00
          2   -1    0    0  502    0  0.00000000000E+00  0.00000000000E+00  0.17445976139E+03  0.17445976139E+03  0.00000000000E+00 0. -1.
          1   -1    0    0  501    0 -0.00000000000E+00 -0.00000000000E+00 -0.10066301474E+04  0.10066301474E+04  0.00000000000E+00 0. -1.
         25    2    1    2    0    0  0.13436581698E+03  0.10920447155E+03 -0.78648962097E+03  0.81496095426E+03  0.12496256918E+03 0.  0.
          2    1    1    2  501    0 -0.60987261185E+02 -0.35969336772E+02 -0.18175642437E+03  0.19506059832E+03  0.00000000000E+00 0. -1.
          1    1    1    2  502    0 -0.73378555796E+02 -0.73235134779E+02  0.13607565936E+03  0.17106835618E+03  0.00000000000E+00 0. -1.
         22    1    3    3    0    0 -0.15710533090E+02  0.20002067514E+02 -0.23802431169E+03  0.23937935690E+03  0.00000000000E+00 0. -1.
         22    1    3    3    0    0  0.15007635007E+03  0.89202404037E+02 -0.54846530928E+03  0.57558159736E+03  0.00000000000E+00 0. -1.
</event>
<event>
 7    1  0.6152634E-006  0.6791689E+02  0.7818608E-02  0.1371782E+00
          2   -1    0    0  502    0  0.00000000000E+00  0.00000000000E+00  0.46780255070E+03  0.46780255070E+03  0.00000000000E+00 0. -1.
          1   -1    0    0  501    0 -0.00000000000E+00 -0.00000000000E+00 -0.80165592965E+03  0.80165592965E+03  0.00000000000E+00 0. -1.
         25    2    1    2    0    0  0.10069678897E+03 -0.28373356455E+02  0.27742366925E+03  0.32176645648E+03  0.12499947836E+03 0.  0.
          2    1    1    2  501    0 -0.40613762474E+02  0.54341025864E+02 -0.77157174394E+03  0.77454850129E+03  0.00000000000E+00 0. -1.
          1    1    1    2  502    0 -0.60083026497E+02 -0.25967669409E+02  0.16029469575E+03  0.17314352258E+03  0.00000000000E+00 0. -1.
         22    1    3    3    0    0  0.93937287552E+02 -0.40501076723E+01  0.28095954474E+03  0.29627501270E+03  0.00000000000E+00 0. -1.
         22    1    3    3    0    0  0.67595014181E+01 -0.24323248782E+02 -0.35358754938E+01  0.25491443785E+02  0.00000000000E+00 0. -1.
</event>
<event>
 7    1  0.6152634E-006  0.1104577E+03  0.7818608E-02  0.1404243E+00
          2   -1    0    0  502    0  0.00000000000E+00  0.00000000000E+00  0.11334913698E+04  0.11334913698E+04  0.00000000000E+00 0. -1.
          1   -1    0    0  501    0 -0.00000000000E+00 -0.00000000000E+00 -0.33314001852E+03  0.33314001852E+03  0.00000000000E+00 0. -1.
         25    2    1    2    0    0 -0.76591247375E+02  0.39786599440E+02 -0.43830311079E+02  0.15810373812E+03  0.12500601253E+03 0.  0.
          2    1    1    2  501    0  0.10660547846E+03 -0.47465583253E+02 -0.21726936817E+03  0.24662458916E+03  0.00000000000E+00 0. -1.
          1    1    1    2  502    0 -0.30014231085E+02  0.76789838134E+01  0.10614510305E+04  0.10619030610E+04  0.00000000000E+00 0. -1.
         22    1    3    3    0    0  0.27512538647E+02  0.35268679132E+02 -0.27828142366E+02  0.52680404498E+02  0.00000000000E+00 0. -1.
         22    1    3    3    0    0 -0.10410378602E+03  0.45179203073E+01 -0.16002168713E+02  0.10542333362E+03  0.00000000000E+00 0. -1.
</event>
<event>
 7    1  0.6152634E-006  0.8596771E+02  0.7818608E-02  0.1382859E+00
          2   -1    0    0  502    0  0.00000000000E+00  0.00000000000E+00  0.33217828018E+03  0.33217828018E+03  0.00000000000E+00 0. -1.
          1   -1    0    0  501    0 -0.00000000000E+00 -0.00000000000E+00 -0.28956337961E+04  0.28956337961E+04  0.00000000000E+00 0. -1.
         25    2    1    2    0    0  0.80515024939E+02 -0.92162483862E+01 -0.12685610410E+03  0.19566648157E+03  0.12500116955E+03 0.  0.
          2    1    1    2  501    0 -0.13209928602E+02 -0.45341914482E+02 -0.27278615252E+04  0.27282703114E+04  0.00000000000E+00 0. -1.
          1    1    1    2  502    0 -0.67305096336E+02  0.54558162868E+02  0.29126211336E+03  0.30387528331E+03  0.00000000000E+00 0. -1.
         22    1    3    3    0    0  0.22186767012E+02 -0.64422396855E+01  0.24356312098E+02  0.33570597576E+02  0.00000000000E+00 0. -1.
         22    1    3    3    0    0  0.58328257927E+02 -0.27740087007E+01 -0.15121241619E+03  0.16209588400E+03  0.00000000000E+00 0. -1.
</event>
<event>
 7    1  0.6152634E-006  0.7611001E+02  0.7818608E-02  0.1452584E+00
          2   -1    0    0  502    0  0.00000000000E+00  0.00000000000E+00  0.99431639758E+03  0.99431639758E+03  0.00000000000E+00 0. -1.
          1   -1    0    0  501    0 -0.00000000000E+00 -0.00000000000E+00 -0.99867697500E+02  0.99867697500E+02  0.00000000000E+00 0. -1.
         25    2    1    2    0    0  0.29717510952E+02 -0.97511304907E+02  0.47188997754E+03  0.49869493304E+03  0.12499960116E+03 0.  0.
          2    1    1    2  501    0 -0.45254630093E+01  0.30807381415E+02 -0.81066795368E+02  0.86841233734E+02  0.00000000000E+00 0. -1.
          1    1    1    2  502    0 -0.25192047943E+02  0.66703923491E+02  0.50362551791E+03  0.50864792831E+03  0.00000000000E+00 0. -1.
         22    1    3    3    0    0  0.41613418851E+02 -0.39566219973E+02  0.40643351355E+03  0.41046968624E+03  0.00000000000E+00 0. -1.
         22    1    3    3    0    0 -0.11895907899E+02 -0.57945084934E+02  0.65456463994E+02  0.88225246791E+02  0.00000000000E+00 0. -1.
</event>
<event>
 7    1  0.6152634E-006  0.1975169E+03  0.7818608E-02  0.1229042E+00
          2   -1    0    0  502    0  0.00000000000E+00  0.00000000000E+00  0.22813407822E+04  0.22813407822E+04  0.00000000000E+00 0. -1.
          1   -1    0    0  501    0 -0.00000000000E+00 -0.00000000000E+00 -0.29753223361E+04  0.29753223361E+04  0.00000000000E+00 0. -1.
         25    2    1    2    0    0  0.13580674900E+03  0.51664557378E+01 -0.11136430158E+04  0.11288471361E+04  0.12499969906E+03 0.  0.
          2    1    1    2  501    0  0.47291197518E+02  0.69626633433E+02 -0.18488168292E+04  0.18507317454E+04  0.00000000000E+00 0. -1.
          1    1    1    2  502    0 -0.18309794652E+03 -0.74793089171E+02  0.22684782911E+04  0.22770842368E+04  0.00000000000E+00 0. -1.
         22    1    3    3    0    0  0.12915970929E+03  0.32378395537E+02 -0.10599989896E+04  0.10683297473E+04  0.00000000000E+00 0. -1.
         22    1    3    3    0    0  0.66470397091E+01 -0.27211939800E+02 -0.53644026226E+02  0.60517388858E+02  0.00000000000E+00 0. -1.
</event>
<event>
 7    1  0.6152634E-006  0.1122800E+03  0.7818608E-02  0.1331817E+00
          2   -1    0    0  502    0  0.00000000000E+00  0.00000000000E+00  0.45191637700E+03  0.45191637700E+03  0.00000000000E+00 0. -1.
          1   -1    0    0  501    0 -0.00000000000E+00 -0.00000000000E+00 -0.16550071435E+04  0.16550071435E+04  0.00000000000E+00 0. -1.
         25    2    1    2    0    0  0.80390726868E+02  0.32522158215E+02 -0.46634531208E+03  0.49053297128E+03  0.12499714423E+03 0.  0.
          2    1    1    2  501    0  0.31659276305E+02 -0.45744291421E+02 -0.11686595343E+04  0.11699828875E+04  0.00000000000E+00 0. -1.
          1    1    1    2  502    0 -0.11205000317E+03  0.13222133206E+02  0.43191407989E+03  0.44640766170E+03  0.00000000000E+00 0. -1.
         22    1    3    3    0    0  0.10227311636E+03  0.58421096958E+02 -0.37699420147E+03  0.39496511598E+03  0.00000000000E+00 0. -1.
         22    1    3    3    0    0 -0.21882389490E+02 -0.25898938743E+02 -0.89351110612E+02  0.95567855294E+02  0.00000000000E+00 0. -1.
</event>
<event>
 7    1  0.6152634E-006  0.6451819E+02  0.7818608E-02  0.1396226E+00
          2   -1    0    0  502    0  0.00000000000E+00  0.00000000000E+00  0.10342771504E+04  0.10342771504E+04  0.00000000000E+00 0. -1.
          1   -1    0    0  501    0 -0.00000000000E+00 -0.00000000000E+00 -0.13861624955E+03  0.13861624955E+03  0.00000000000E+00 0. -1.
         25    2    1    2    0    0  0.28536601407E+02 -0.66834112472E+02  0.26405534435E+02  0.14697663965E+03  0.12499497648E+03 0.  0.
          2    1    1    2  501    0 -0.62845860377E+02  0.21924578021E+02 -0.63179279509E+02  0.91770968433E+02  0.00000000000E+00 0. -1.
          1    1    1    2  502    0  0.34309258970E+02  0.44909534451E+02  0.93243464589E+03  0.93414579183E+03  0.00000000000E+00 0. -1.
         22    1    3    3    0    0  0.78014866187E+02 -0.41621675600E+02  0.22867450883E+02  0.91332379449E+02  0.00000000000E+00 0.  1.
         22    1    3    3    0    0 -0.49478264779E+02 -0.25212436872E+02  0.35380835522E+01  0.55644260205E+02  0.00000000000E+00 0.  1.
</event>
<event>
 7    1  0.6152634E-006  0.6168190E+02  0.7818608E-02  0.1494750E+00
          2   -1    0    0  502    0  0.00000000000E+00  0.00000000000E+00  0.61443610996E+03  0.61443610996E+03  0.00000000000E+00 0. -1.
          1   -1    0    0  501    0 -0.00000000000E+00 -0.00000000000E+00 -0.16274645455E+04  0.16274645455E+04  0.00000000000E+00 0. -1.
         25    2    1    2    0    0 -0.38714223755E+02 -0.10553572556E+02 -0.13659468588E+03  0.18945494096E+03  0.12499958972E+03 0.  0.
          2    1    1    2  501    0 -0.11141530420E+02 -0.26175536336E+02 -0.14626706866E+04  0.14629473093E+04  0.00000000000E+00 0. -1.
          1    1    1    2  502    0  0.49855754175E+02  0.36729108892E+02  0.58623693686E+03  0.58949840526E+03  0.00000000000E+00 0. -1.
         22    1    3    3    0    0 -0.27812955433E+02 -0.10319954595E+02  0.17852517039E+02  0.34623320427E+02  0.00000000000E+00 0. -1.
         22    1    3    3    0    0 -0.10901268322E+02 -0.23361796141E+00 -0.15444720292E+03  0.15483162053E+03  0.00000000000E+00 0. -1.
</event>
<event>
 7    1  0.6152634E-006  0.7643826E+02  0.7818608E-02  0.1407240E+00
          2   -1    0    0  502    0  0.00000000000E+00  0.00000000000E+00  0.70137770629E+02  0.70137770629E+02  0.00000000000E+00 0. -1.
          1   -1    0    0  501    0 -0.00000000000E+00 -0.00000000000E+00 -0.10532141999E+04  0.10532141999E+04  0.00000000000E+00 0. -1.
         25    2    1    2    0    0 -0.11426073256E+01 -0.62090516430E+02 -0.24085544422E+03  0.27837505401E+03  0.12499915161E+03 0.  0.
          2    1    1    2  501    0 -0.42346097655E+02  0.66659573707E+02 -0.78193101529E+03  0.78590890275E+03  0.00000000000E+00 0. -1.
          1    1    1    2  502    0  0.43488704980E+02 -0.45690572770E+01  0.39710030257E+02  0.59068013749E+02  0.00000000000E+00 0. -1.
         22    1    3    3    0    0  0.29341477484E+02  0.18883527696E+02 -0.14546209706E+03  0.14958854101E+03  0.00000000000E+00 0. -1.
         22    1    3    3    0    0 -0.30484084810E+02 -0.80974044126E+02 -0.95393347155E+02  0.12878651300E+03  0.00000000000E+00 0. -1.
</event>
<event>
 7    1  0.6152634E-006  0.2599898E+02  0.7818608E-02  0.1661221E+00
          2   -1    0    0  502    0  0.00000000000E+00  0.00000000000E+00  0.83911131274E+03  0.83911131274E+03  0.00000000000E+00 0. -1.
          1   -1    0    0  501    0 -0.00000000000E+00 -0.00000000000E+00 -0.51888120727E+02  0.51888120727E+02  0.00000000000E+00 0. -1.
         25    2    1    2    0    0  0.73142912579E+01 -0.15573126008E+02  0.46096652410E+03  0.47792660505E+03  0.12501072900E+03 0.  0.
          2    1    1    2  501    0  0.16173780145E+02  0.20552714324E+02 -0.39038488286E+02  0.46989454114E+02  0.00000000000E+00 0. -1.
          1    1    1    2  502    0 -0.23488071403E+02 -0.49795883162E+01  0.36529515621E+03  0.36608337431E+03  0.00000000000E+00 0. -1.
         22    1    3    3    0    0  0.12284268137E+02 -0.61794068322E+02  0.37443366573E+03  0.37969722169E+03  0.00000000000E+00 0.  1.
         22    1    3    3    0    0 -0.49699768796E+01  0.46220942314E+02  0.86532858361E+02  0.98229383357E+02  0.00000000000E+00 0.  1.
</event>
<event>
 7    1  0.6152634E-006  0.5543543E+02  0.7818608E-02  0.1450837E+00
          2   -1    0    0  502    0  0.00000000000E+00  0.00000000000E+00  0.50473718991E+03  0.50473718991E+03  0.00000000000E+00 0. -1.
          1   -1    0    0  501    0 -0.00000000000E+00 -0.00000000000E+00 -0.95148708500E+03  0.95148708500E+03  0.00000000000E+00 0. -1.
         25    2    1    2    0    0 -0.76315383576E+02 -0.54038008539E+01 -0.23973923025E+03  0.28098567463E+03  0.12499924798E+03 0.  0.
          2    1    1    2  501    0  0.32558881024E+02 -0.28550178816E+02 -0.68885845031E+03  0.69021819594E+03  0.00000000000E+00 0. -1.
          1    1    1    2  502    0  0.43756502552E+02  0.33953979670E+02  0.48184778547E+03  0.48502040433E+03  0.00000000000E+00 0. -1.
         22    1    3    3    0    0 -0.59984287905E+02 -0.32805814177E+02 -0.23951874796E+03  0.24908546096E+03  0.00000000000E+00 0.  1.
         22    1    3    3    0    0 -0.16331095672E+02  0.27402013323E+02 -0.22048229286E+00  0.31900213673E+02  0.00000000000E+00 0.  1.
</event>
<event>
 7    1  0.6152634E-006  0.1293956E+03  0.7818608E-02  0.1430021E+00
          2   -1    0    0  502    0  0.00000000000E+00  0.00000000000E+00  0.94653494525E+03  0.94653494525E+03  0.00000000000E+00 0. -1.
          1   -1    0    0  501    0 -0.00000000000E+00 -0.00000000000E+00 -0.14283824632E+04  0.14283824632E+04  0.00000000000E+00 0. -1.
         25    2    1    2    0    0 -0.41518380769E+02 -0.11557275319E+03  0.93836786817E+01  0.17547967259E+03  0.12499689935E+03 0.  0.
          2    1    1    2  501    0  0.63071333016E+02  0.11329950569E+03 -0.13420715132E+04  0.13483214444E+04  0.00000000000E+00 0. -1.
          1    1    1    2  502    0 -0.21552952247E+02  0.22732474967E+01  0.85084031651E+03  0.85111629147E+03  0.00000000000E+00 0. -1.
         22    1    3    3    0    0 -0.51674298640E+02 -0.11896985936E+03  0.45773080691E+02  0.13754721187E+03  0.00000000000E+00 0.  1.
         22    1    3    3    0    0  0.10155917871E+02  0.33971061714E+01 -0.36389402009E+02  0.37932460726E+02  0.00000000000E+00 0.  1.
</event>
<event>
 7    1  0.6152634E-006  0.1167299E+03  0.7818608E-02  0.1336157E+00
          2   -1    0    0  502    0  0.00000000000E+00  0.00000000000E+00  0.61248541543E+03  0.61248541543E+03  0.00000000000E+00 0. -1.
          1   -1    0    0  501    0 -0.00000000000E+00 -0.00000000000E+00 -0.47592395545E+03  0.47592395545E+03  0.00000000000E+00 0. -1.
         25    2    1    2    0    0 -0.11594716587E+03  0.21693375124E+02  0.94466761067E+02  0.19611593704E+03  0.12499257584E+03 0.  0.
          2    1    1    2  501    0  0.94988505059E+02 -0.68755558891E+02 -0.41554000683E+03  0.43176803986E+03  0.00000000000E+00 0. -1.
          1    1    1    2  502    0  0.20958660811E+02  0.47062183767E+02  0.45763470574E+03  0.46052539398E+03  0.00000000000E+00 0. -1.
         22    1    3    3    0    0  0.22647716740E+02  0.16006172431E+02 -0.96041245074E+00  0.27749576961E+02  0.00000000000E+00 0.  1.
         22    1    3    3    0    0 -0.13859488261E+03  0.56872026925E+01  0.95427173518E+02  0.16836636008E+03  0.00000000000E+00 0.  1.
</event>
<event>
 7    1  0.6152634E-006  0.8360876E+02  0.7818608E-02  0.1381580E+00
          2   -1    0    0  502    0  0.00000000000E+00  0.00000000000E+00  0.51922788877E+03  0.51922788877E+03  0.00000000000E+00 0. -1.
          1   -1    0    0  501    0 -0.00000000000E+00 -0.00000000000E+00 -0.12907975959E+03  0.12907975959E+03  0.00000000000E+00 0. -1.
         25    2    1    2    0    0  0.40499677908E+02 -0.60376633925E+02  0.27738503064E+02  0.14723905210E+03  0.12499740828E+03 0.  0.
          2    1    1    2  501    0 -0.42280149168E+02 -0.24898763084E+02 -0.55768188638E+02  0.74280887721E+02  0.00000000000E+00 0. -1.
          1    1    1    2  502    0  0.17804712595E+01  0.85275397008E+02  0.41817781475E+03  0.42678770854E+03  0.00000000000E+00 0. -1.
         22    1    3    3    0    0  0.14322304339E+02 -0.70295162477E+02 -0.34046342932E+02  0.79408385806E+02  0.00000000000E+00 0. -1.
         22    1    3    3    0    0  0.26177373569E+02  0.99185285526E+01  0.61784845996E+02  0.67830666297E+02  0.00000000000E+00 0. -1.
</event>
<event>
 7    1  0.6152634E-006  0.9625831E+02  0.7818608E-02  0.1414204E+00
          2   -1    0    0  502    0  0.00000000000E+00  0.00000000000E+00  0.11294723182E+04  0.11294723182E+04  0.00000000000E+00 0. -1.
          1   -1    0    0  501    0 -0.00000000000E+00 -0.00000000000E+00 -0.91804650930E+03  0.91804650930E+03  0.00000000000E+00 0. -1.
         25    2    1    2    0    0  0.35253507132E+02  0.82304444830E+02  0.95157614251E+03  0.96391916049E+03  0.12500464613E+03 0.  0.
          2    1    1    2  501    0  0.25393250741E+02  0.20902074910E+02 -0.89067322102E+03  0.89128025927E+03  0.00000000000E+00 0. -1.
          1    1    1    2  502    0 -0.60646757873E+02 -0.10320651974E+03  0.15052288737E+03  0.19231940770E+03  0.00000000000E+00 0. -1.
         22    1    3    3    0    0 -0.34927665991E+01  0.58627509038E+02  0.85696972810E+03  0.85897991776E+03  0.00000000000E+00 0.  1.
         22    1    3    3    0    0  0.38746273732E+02  0.23676935792E+02  0.94606414411E+02  0.10493924273E+03  0.00000000000E+00 0.  1.
</event>
<event>
 7    1  0.6152634E-006  0.8168595E+02  0.7818608E-02  0.1428526E+00
          2   -1    0    0  502    0  0.00000000000E+00  0.00000000000E+00  0.71626165508E+03  0.71626165508E+03  0.00000000000E+00 0. -1.
          1   -1    0    0  501    0 -0.00000000000E+00 -0.00000000000E+00 -0.33986409136E+03  0.33986409136E+03  0.00000000000E+00 0. -1.
         25    2    1    2    0    0  0.71005501009E+02  0.89603723621E+02 -0.43465303962E+02  0.17488577010E+03  0.12500076589E+03 0.  0.
          2    1    1    2  501    0 -0.27272280635E+02 -0.21490749527E+02 -0.22684457510E+03  0.22948658100E+03  0.00000000000E+00 0. -1.
          1    1    1    2  502    0 -0.43733220374E+02 -0.68112974094E+02  0.64670744278E+03  0.65175339535E+03  0.00000000000E+00 0. -1.
         22    1    3    3    0    0  0.10817171870E+01 -0.30447832121E+02 -0.80114885656E+01  0.31502770385E+02  0.00000000000E+00 0. -1.
         22    1    3    3    0    0  0.69923783822E+02  0.12005155574E+03 -0.35453815397E+02  0.14338299971E+03  0.00000000000E+00 0. -1.
</event>
<event>
 7    1  0.6152634E-006  0.1085139E+03  0.7818608E-02  0.1339493E+00
          2   -1    0    0  502    0  0.00000000000E+00  0.00000000000E+00  0.83367663661E+03  0.83367663661E+03  0.00000000000E+00 0. -1.
          1   -1    0    0  501    0 -0.00000000000E+00 -0.00000000000E+00 -0.65224710757E+03  0.65224710757E+03  0.00000000000E+00 0. -1.
         25    2    1    2    0    0 -0.48060596842E+02 -0.68520796745E+02 -0.33563357622E+03  0.36780333596E+03  0.12499790357E+03 0.  0.
          2    1    1    2  501    0  0.97918945133E+02  0.88828068488E+02 -0.28504272544E+03  0.31420996307E+03  0.00000000000E+00 0. -1.
          1    1    1    2  502    0 -0.49858348291E+02 -0.20307271742E+02  0.80210583071E+03  0.80391044516E+03  0.00000000000E+00 0. -1.
         22    1    3    3    0    0 -0.48258471842E+02 -0.76575447607E+02 -0.34428314020E+03  0.35598252753E+03  0.00000000000E+00 0. -1.
         22    1    3    3    0    0  0.19787499997E+00  0.80546508613E+01  0.86495639740E+01  0.11820808431E+02  0.00000000000E+00 0. -1.
</event>
<event>
 7    1  0.6152634E-006  0.9500129E+02  0.7818608E-02  0.1396588E+00
          2   -1    0    0  502    0  0.00000000000E+00  0.00000000000E+00  0.10920444775E+04  0.10920444775E+04  0.00000000000E+00 0. -1.
          1   -1    0    0  501    0 -0.00000000000E+00 -0.00000000000E+00 -0.19200126298E+04  0.19200126298E+04  0.00000000000E+00 0. -1.
         25    2    1    2    0    0  0.47674574173E+02 -0.81615244064E+02  0.39517695520E+03  0.42511389014E+03  0.12499232209E+03 0.  0.
          2    1    1    2  501    0 -0.35557886096E+02 -0.14152774744E+02 -0.19014343284E+04  0.19018194366E+04  0.00000000000E+00 0. -1.
          1    1    1    2  502    0 -0.12116688077E+02  0.95768018809E+02  0.67828922089E+03  0.68512378059E+03  0.00000000000E+00 0. -1.
         22    1    3    3    0    0  0.10892854914E+02 -0.35854345451E+02  0.34741285796E+03  0.34942793570E+03  0.00000000000E+00 0.  1.
         22    1    3    3    0    0  0.36781719259E+02 -0.45760898614E+02  0.47764097246E+02  0.75685954439E+02  0.00000000000E+00 0.  1.
</event>
<event>
 7    1  0.6152634E-006  0.9074808E+02  0.7818608E-02  0.1405790E+00
          2   -1    0    0  502    0  0.00000000000E+00  0.00000000000E+00  0.17290986061E+03  0.17290986061E+03  0.00000000000E+00 0. -1.
          1   -1    0    0  501    0 -0.00000000000E+00 -0.00000000000E+00 -0.78653934693E+03  0.78653934693E+03  0.00000000000E+00 0. -1.
         25    2    1    2    0    0  0.12153923371E+03  0.27870981585E+01 -0.17568624661E+03  0.24752078682E+03  0.12498531679E+03 0.  0.
          2    1    1    2  501    0 -0.86569803855E+02 -0.15631836477E+02 -0.56895875889E+03  0.57571933663E+03  0.00000000000E+00 0. -1.
          1    1    1    2  502    0 -0.34969429852E+02  0.12844738319E+02  0.13101551917E+03  0.13620908410E+03  0.00000000000E+00 0. -1.
         22    1    3    3    0    0  0.12024337129E+03 -0.29023103475E+02 -0.81581936332E+02  0.14817699285E+03  0.00000000000E+00 0. -1.
         22    1    3    3    0    0  0.12958624187E+01  0.31810201634E+02 -0.94104310275E+02  0.99343793966E+02  0.00000000000E+00 0. -1.
</event>
<event>
 7    1  0.6152634E-006  0.7362058E+02  0.7818608E-02  0.1489696E+00
          2   -1    0    0  502    0  0.00000000000E+00  0.00000000000E+00  0.15094906858E+03  0.15094906858E+03  0.00000000000E+00 0. -1.
          1   -1    0    0  501    0 -0.00000000000E+00 -0.00000000000E+00 -0.63574535081E+03  0.63574535081E+03  0.00000000000E+00 0. -1.
         25    2    1    2    0    0  0.95047939323E+02  0.54662711976E+01 -0.14886556154E+03  0.21646564361E+03  0.12502971072E+03 0.  0.
          2    1    1    2  501    0 -0.71777001788E+02  0.27720801281E+01 -0.44889138989E+03  0.45460213631E+03  0.00000000000E+00 0. -1.
          1    1    1    2  502    0 -0.23270937534E+02 -0.82383513257E+01  0.11296066921E+03  0.11562663946E+03  0.00000000000E+00 0. -1.
         22    1    3    3    0    0  0.84069769513E+02 -0.16488705132E+02 -0.16581255792E+03  0.18663710217E+03  0.00000000000E+00 0. -1.
         22    1    3    3    0    0  0.10978169810E+02  0.21954976330E+02  0.16946996386E+02  0.29828541441E+02  0.00000000000E+00 0. -1.
</event>
<event>
 7    1  0.6152634E-006  0.5713869E+02  0.7818608E-02  0.1427859E+00
          2   -1    0    0  502    0  0.00000000000E+00  0.00000000000E+00  0.65335677595E+02  0.65335677595E+02  0.00000000000E+00 0. -1.
          1   -1    0    0  501    0 -0.00000000000E+00 -0.00000000000E+00 -0.18503294202E+04  0.18503294202E+04  0.00000000000E+00 0. -1.
         25    2    1    2    0    0 -0.61611587587E+02 -0.31445945163E+02 -0.35000689880E+03  0.37804060887E+03  0.12500015022E+03 0.  0.
          2    1    1    2  501    0  0.70122242922E+01  0.49395953497E+02 -0.14696565140E+04  0.14705031115E+04  0.00000000000E+00 0. -1.
          1    1    1    2  502    0  0.54599363295E+02 -0.17950008333E+02  0.34669670280E+02  0.67121377434E+02  0.00000000000E+00 0. -1.
         22    1    3    3    0    0 -0.78039980559E+02 -0.45978379019E+02 -0.13906731251E+03  0.16596375301E+03  0.00000000000E+00 0.  1.
         22    1    3    3    0    0  0.16428392972E+02  0.14532433856E+02 -0.21093958629E+03  0.21207685586E+03  0.00000000000E+00 0.  1.
</event>
<event>
 7    1  0.6152634E-006  0.3987686E+02  0.7818608E-02  0.1572980E+00
          2   -1    0    0  502    0  0.00000000000E+00  0.00000000000E+00  0.66926238704E+03  0.66926238704E+03  0.00000000000E+00 0. -1.
          1   -1    0    0  501    0 -0.00000000000E+00 -0.00000000000E+00 -0.37635040743E+02  0.37635040743E+02  0.00000000000E+00 0. -1.
         25    2    1    2    0    0  0.40932065604E+02 -0.24862983600E+02  0.20867998238E+03  0.24792247601E+03  0.12499846845E+03 0.  0.
          2    1    1    2  501    0 -0.23850509251E+02 -0.11143050399E+02 -0.69557576520E+01  0.27228604964E+02  0.00000000000E+00 0. -1.
          1    1    1    2  502    0 -0.17081556353E+02  0.36006033999E+02  0.42990312157E+03  0.43174634681E+03  0.00000000000E+00 0. -1.
         22    1    3    3    0    0  0.45874760159E+02 -0.13919041487E+02  0.10115825280E+02  0.48995543232E+02  0.00000000000E+00 0. -1.
         22    1    3    3    0    0 -0.49426945546E+01 -0.10943942113E+02  0.19856415710E+03  0.19892693277E+03  0.00000000000E+00 0. -1.
</event>
<event>
 7    1  0.6152634E-006  0.1305132E+03  0.7818608E-02  0.1250314E+00
          2   -1    0    0  502    0  0.00000000000E+00  0.00000000000E+00  0.15395455358E+04  0.15395455358E+04  0.00000000000E+00 0. -1.
          1   -1    0    0  501    0 -0.00000000000E+00 -0.00000000000E+00 -0.11837390424E+04  0.11837390424E+04  0.00000000000E+00 0. -1.
         25    2    1    2    0    0  0.12574041726E+03  0.84083186161E+02  0.33423847186E+01  0.19625655660E+03  0.12499931898E+03 0.  0.
          2    1    1    2  501    0 -0.12985811234E+03  0.18454075560E+02 -0.10814859710E+04  0.10894106607E+04  0.00000000000E+00 0. -1.
          1    1    1    2  502    0  0.41176950793E+01 -0.10253726172E+03  0.14339500796E+04  0.14376173609E+04  0.00000000000E+00 0. -1.
         22    1    3    3    0    0  0.14457715913E+03  0.64834041632E+02 -0.21148467750E+02  0.15985388823E+03  0.00000000000E+00 0.  1.
         22    1    3    3    0    0 -0.18836741868E+02  0.19249144528E+02  0.24490852468E+02  0.36402668363E+02  0.00000000000E+00 0.  1.
</event>
<event>
 7    1  0.9967078E-006  0.6029876E+02  0.7818608E-02  0.1486985E+00
          2   -1    0    0  502    0  0.00000000000E+00  0.00000000000E+00  0.19780822906E+04  0.19780822906E+04  0.00000000000E+00 0. -1.
          1   -1    0    0  501    0 -0.00000000000E+00 -0.00000000000E+00 -0.25585934654E+04  0.25585934654E+04  0.00000000000E+00 0. -1.
         25    2    1    2    0    0  0.11517702877E+02  0.86341160170E+02 -0.43472337298E+03  0.46064784011E+03  0.12499827264E+03 0.  0.
          2    1    1    2  501    0 -0.15977582880E+02 -0.26233398367E+02 -0.21103339058E+04  0.21105574307E+04  0.00000000000E+00 0. -1.
          1    1    1    2  502    0  0.44598800034E+01 -0.60107761804E+02  0.19645461040E+04  0.19654704852E+04  0.00000000000E+00 0. -1.
         22    1    3    3    0    0  0.51212965955E+02  0.41093195840E+02 -0.94082776078E+02  0.11473006311E+03  0.00000000000E+00 0. -1.
         22    1    3    3    0    0 -0.39695263079E+02  0.45247964331E+02 -0.34064059690E+03  0.34591777700E+03  0.00000000000E+00 0. -1.
</event>
<event>
 7    1  0.6152634E-006  0.1280227E+03  0.7818608E-02  0.1277162E+00
          2   -1    0    0  502    0  0.00000000000E+00  0.00000000000E+00  0.10355897727E+03  0.10355897727E+03  0.00000000000E+00 0. -1.
          1   -1    0    0  501    0 -0.00000000000E+00 -0.00000000000E+00 -0.26468649684E+04  0.26468649684E+04  0.00000000000E+00 0. -1.
         25    2    1    2    0    0  0.14313583438E+03  0.67309092062E+01 -0.52120936338E+03  0.55481336703E+03  0.12500199815E+03 0.  0.
          2    1    1    2  501    0 -0.33086312974E+02 -0.73365077003E+02 -0.20599382965E+04  0.20615098651E+04  0.00000000000E+00 0. -1.
          1    1    1    2  502    0 -0.11004952141E+03  0.66634167797E+02  0.37841668721E+02  0.13410071354E+03  0.00000000000E+00 0. -1.
         22    1    3    3    0    0  0.11131928866E+03  0.57175733895E+02 -0.28638880296E+03  0.31253734982E+03  0.00000000000E+00 0. -1.
         22    1    3    3    0    0  0.31816545720E+02 -0.50444824688E+02 -0.23482056042E+03  0.24227601721E+03  0.00000000000E+00 0. -1.
</event>
<event>
 7    1  0.6152634E-006  0.4267463E+02  0.7818608E-02  0.1526319E+00
          2   -1    0    0  502    0  0.00000000000E+00  0.00000000000E+00  0.65950148443E+03  0.65950148443E+03  0.00000000000E+00 0. -1.
          1   -1    0    0  501    0 -0.00000000000E+00 -0.00000000000E+00 -0.84218072896E+03  0.84218072896E+03  0.00000000000E+00 0. -1.
         25    2    1    2    0    0  0.24572497256E+02 -0.52364641745E+01  0.84298568929E+02  0.15286779789E+03  0.12502434455E+03 0.  0.
          2    1    1    2  501    0 -0.33396495771E+02 -0.26771978176E+02 -0.80681879136E+03  0.80795335685E+03  0.00000000000E+00 0. -1.
          1    1    1    2  502    0  0.88239985146E+01  0.32008442351E+02  0.53984097791E+03  0.54086105865E+03  0.00000000000E+00 0. -1.
         22    1    3    3    0    0  0.73987720639E+02 -0.11433175995E+02  0.66018826371E+02  0.99816760888E+02  0.00000000000E+00 0.  1.
         22    1    3    3    0    0 -0.49415223383E+02  0.61967118208E+01  0.18279742559E+02  0.53051037006E+02  0.00000000000E+00 0.  1.
</event>
<event>
 7    1  0.6152634E-006  0.5754116E+02  0.7818608E-02  0.1537593E+00
          2   -1    0    0  502    0  0.00000000000E+00  0.00000000000E+00  0.11396724906E+04  0.11396724906E+04  0.00000000000E+00 0. -1.
          1   -1    0    0  501    0 -0.00000000000E+00 -0.00000000000E+00 -0.58965708675E+02  0.58965708675E+02  0.00000000000E+00 0. -1.
         25    2    1    2    0    0 -0.52120583610E+02  0.49832348928E+02  0.62378518060E+02  0.15721565606E+03  0.12500345900E+03 0.  0.
          2    1    1    2  501    0  0.40124695882E+02 -0.30368299646E+02  0.44054878902E+02  0.66880918042E+02  0.00000000000E+00 0. -1.
          1    1    1    2  502    0  0.11995887728E+02 -0.19464049283E+02  0.97427338499E+03  0.97454162519E+03  0.00000000000E+00 0. -1.
         22    1    3    3    0    0  0.36526638103E+02 -0.48686901919E+01  0.21982283944E+01  0.36915195291E+02  0.00000000000E+00 0.  1.
         22    1    3    3    0    0 -0.88647221713E+02  0.54701039120E+02  0.60180289666E+02  0.12030046077E+03  0.00000000000E+00 0.  1.
</event>
<event>
 7    1  0.6152634E-006  0.1645582E+03  0.7818608E-02  0.1404357E+00
          2   -1    0    0  502    0  0.00000000000E+00  0.00000000000E+00  0.22586930109E+04  0.22586930109E+04  0.00000000000E+00 0. -1.
          1   -1    0    0  501    0 -0.00000000000E+00 -0.00000000000E+00 -0.29436977536E+02  0.29436977536E+02  0.00000000000E+00 0. -1.
         25    2    1    2    0    0 -0.16021811158E+03  0.17462731250E+02  0.59131049600E+03  0.62549825443E+03  0.12500069343E+03 0.  0.
          2    1    1    2  501    0  0.16833852463E+03  0.16616352094E+01  0.56649743905E+03  0.59098220646E+03  0.00000000000E+00 0. -1.
          1    1    1    2  502    0 -0.81204130483E+01 -0.19124366459E+02  0.10714480983E+04  0.10716495276E+04  0.00000000000E+00 0. -1.
         22    1    3    3    0    0 -0.87815247739E+02  0.47041332801E+02  0.47501744028E+03  0.48535139157E+03  0.00000000000E+00 0.  1.
         22    1    3    3    0    0 -0.72402863839E+02 -0.29578601551E+02  0.11629305572E+03  0.14014686286E+03  0.00000000000E+00 0.  1.
</event>
<event>
 7    1  0.6152634E-006  0.1720876E+03  0.7818608E-02  0.1283783E+00
          2   -1    0    0  502    0  0.00000000000E+00  0.00000000000E+00  0.15170702728E+04  0.15170702728E+04  0.00000000000E+00 0. -1.
          1   -1    0    0  501    0 -0.00000000000E+00 -0.00000000000E+00 -0.18347592106E+03  0.18347592106E+03  0.00000000000E+00 0. -1.
         25    2    1    2    0    0  0.18801267226E+03 -0.51574923415E+02  0.40888378295E+03  0.46991554505E+03  0.12500373538E+03 0.  0.
          2    1    1    2  501    0 -0.17032241106E+03 -0.17888244474E+01 -0.10453476403E+03  0.19985104576E+03  0.00000000000E+00 0. -1.
          1    1    1    2  502    0 -0.17690261206E+02  0.53363747862E+02  0.10292453328E+04  0.10307796031E+04  0.00000000000E+00 0. -1.
         22    1    3    3    0    0  0.17568423152E+03 -0.48636308561E+02  0.41683597724E+03  0.45495348294E+03  0.00000000000E+00 0.  1.
         22    1    3    3    0    0  0.12328440748E+02 -0.29386148539E+01 -0.79521942897E+01  0.14962062109E+02  0.00000000000E+00 0.  1.
</event>
<event>
 7    1  0.6152634E-006  0.3150409E+02  0.7818608E-02  0.1590237E+00
          2   -1    0    0  502    0  0.00000000000E+00  0.00000000000E+00  0.29809480359E+03  0.29809480359E+03  0.00000000000E+00 0. -1.
          1   -1    0    0  501    0 -0.00000000000E+00 -0.00000000000E+00 -0.46231009319E+03  0.46231009319E+03  0.00000000000E+00 0. -1.
         25    2    1    2    0    0  0.21071526670E+02 -0.31396081748E+02 -0.37341576883E+01  0.13064402054E+03  0.12499677189E+03 0.  0.
          2    1    1    2  501    0 -0.31405196905E+02  0.32742933954E+01 -0.39352968061E+03  0.39479439827E+03  0.00000000000E+00 0. -1.
          1    1    1    2  502    0  0.10333670235E+02  0.28121788353E+02  0.23304854870E+03  0.23496647797E+03  0.00000000000E+00 0. -1.
         22    1    3    3    0    0 -0.39963457577E+02 -0.51495352721E+02 -0.10523095412E+02  0.66027152221E+02  0.00000000000E+00 0.  1.
         22    1    3    3    0    0  0.61034984247E+02  0.20099270973E+02  0.67889377236E+01  0.64616868317E+02  0.00000000000E+00 0.  1.
</event>
<event>
 7    1  0.6152634E-006  0.1446536E+03  0.7818608E-02  0.1379230E+00
          2   -1    0    0  502    0  0.00000000000E+00  0.00000000000E+00  0.45910496906E+03  0.45910496906E+03  0.00000000000E+00 0. -1.
          1   -1    0    0  501    0 -0.00000000000E+00 -0.00000000000E+00 -0.10360477703E+04  0.10360477703E+04  0.00000000000E+00 0. -1.
         25    2    1    2    0    0 -0.46108828610E+02  0.16600196743E+03  0.15852440250E+03  0.26539755456E+03  0.12499279384E+03 0.  0.
          2    1    1    2  501    0  0.43622845959E+02 -0.13720028409E+03 -0.97646931558E+03  0.98702542769E+03  0.00000000000E+00 0. -1.
          1    1    1    2  502    0  0.24859826517E+01 -0.28801683340E+02  0.24100211184E+03  0.24272975711E+03  0.00000000000E+00 0. -1.
         22    1    3    3    0    0  0.23338341474E+02  0.10724572353E+03  0.12984031913E+03  0.17001421079E+03  0.00000000000E+00 0.  1.
         22    1    3    3    0    0 -0.69447170084E+02  0.58756243897E+02  0.28684083368E+02  0.95383343767E+02  0.00000000000E+00 0.  1.
</event>
<event>
 7    1  0.6152634E-006  0.3483643E+03  0.7818608E-02  0.1193803E+00
          2   -1    0    0  502    0  0.00000000000E+00  0.00000000000E+00  0.45197049991E+03  0.45197049991E+03  0.00000000000E+00 0. -1.
          1   -1    0    0  501    0 -0.00000000000E+00 -0.00000000000E+00 -0.86839998283E+03  0.86839998283E+03  0.00000000000E+00 0. -1.
         25    2    1    2    0    0 -0.90225464281E+01  0.37648104757E+03  0.76619417424E+01  0.39686606870E+03  0.12499834244E+03 0.  0.
          2    1    1    2  501    0 -0.50084359064E+02 -0.48133798389E+02 -0.55924547489E+03  0.56354308332E+03  0.00000000000E+00 0. -1.
          1    1    1    2  502    0  0.59106905492E+02 -0.32834724918E+03  0.13515405023E+03  0.35996133072E+03  0.00000000000E+00 0. -1.
         22    1    3    3    0    0  0.38564466090E+02  0.24964835418E+03 -0.34583217283E+02  0.25496571869E+03  0.00000000000E+00 0.  1.
         22    1    3    3    0    0 -0.47587012519E+02  0.12683269339E+03  0.42245159025E+02  0.14190035001E+03  0.00000000000E+00 0.  1.
</event>
<event>
 7    1  0.6152634E-006  0.1601033E+03  0.7818608E-02  0.1293128E+00
          2   -1    0    0  502    0  0.00000000000E+00  0.00000000000E+00  0.26731098436E+04  0.26731098436E+04  0.00000000000E+00 0. -1.
          1   -1    0    0  501    0 -0.00000000000E+00 -0.00000000000E+00 -0.12444760549E+04  0.12444760549E+04  0.00000000000E+00 0. -1.
         25    2    1    2    0    0 -0.68815557924E+02 -0.85378250328E+02  0.63977547705E+02  0.17816713117E+03  0.12500149350E+03 0.  0.
          2    1    1    2  501    0 -0.16500372135E+02 -0.52835742077E+02 -0.11841497121E+04  0.11854427099E+04  0.00000000000E+00 0. -1.
          1    1    1    2  502    0  0.85315930060E+02  0.13821399241E+03  0.25488059530E+04  0.25539760574E+04  0.00000000000E+00 0. -1.
         22    1    3    3    0    0 -0.89602223268E+02 -0.22840022970E+02  0.63663137868E+02  0.11226406454E+03  0.00000000000E+00 0.  1.
         22    1    3    3    0    0  0.20786665343E+02 -0.62538227359E+02  0.31440983691E+00  0.65903066627E+02  0.00000000000E+00 0.  1.
</event>
<event>
 7    1  0.6152634E-006  0.1976528E+03  0.7818608E-02  0.1361243E+00
          2   -1    0    0  502    0  0.00000000000E+00  0.00000000000E+00  0.17605392919E+04  0.17605392919E+04  0.00000000000E+00 0. -1.
          1   -1    0    0  501    0 -0.00000000000E+00 -0.00000000000E+00 -0.98674270295E+03  0.98674270295E+03  0.00000000000E+00 0. -1.
         25    2    1    2    0    0 -0.13558432314E+02 -0.17735269127E+03 -0.20675593640E+02  0.21838039586E+03  0.12499883574E+03 0.  0.
          2    1    1    2  501    0 -0.15310505555E+02 -0.19194537664E+02 -0.86110172355E+03  0.86145169345E+03  0.00000000000E+00 0. -1.
          1    1    1    2  502    0  0.28868937869E+02  0.19654722894E+03  0.16555739061E+04  0.16674499055E+04  0.00000000000E+00 0. -1.
         22    1    3    3    0    0 -0.52053686619E+02 -0.16195450611E+03  0.39459376588E+01  0.17015997992E+03  0.00000000000E+00 0.  1.
         22    1    3    3    0    0  0.38495254306E+02 -0.15398185158E+02 -0.24621531299E+02  0.48220415943E+02  0.00000000000E+00 0.  1.
</event>
<event>
 7    1  0.6152634E-006  0.1320988E+03  0.7818608E-02  0.1341538E+00
          2   -1    0    0  502    0  0.00000000000E+00  0.00000000000E+00  0.32930528223E+03  0.32930528223E+03  0.00000000000E+00 0. -1.
          1   -1    0    0  501    0 -0.00000000000E+00 -0.00000000000E+00 -0.13654466070E+04  0.13654466070E+04  0.00000000000E+00 0. -1.
         25    2    1    2    0    0 -0.36096150406E+02 -0.16793289562E+03 -0.94515129731E+03  0.96873143047E+03  0.12500088027E+03 0.  0.
          2    1    1    2  501    0  0.22651442057E+02  0.37075484254E+02 -0.39363363194E+03  0.39602413506E+03  0.00000000000E+00 0. -1.
          1    1    1    2  502    0  0.13444708349E+02  0.13085741137E+03  0.30264360450E+03  0.32999632368E+03  0.00000000000E+00 0. -1.
         22    1    3    3    0    0 -0.40204913714E+02 -0.18604493247E+03 -0.79662957402E+03  0.81905300817E+03  0.00000000000E+00 0. -1.
         22    1    3    3    0    0  0.41087633076E+01  0.18112036842E+02 -0.14852172328E+03  0.14967842230E+03  0.00000000000E+00 0. -1.
</event>
<event>
 7    1  0.6152634E-006  0.1142967E+03  0.7818608E-02  0.1399257E+00
          2   -1    0    0  502    0  0.00000000000E+00  0.00000000000E+00  0.92180290745E+03  0.92180290745E+03  0.00000000000E+00 0. -1.
          1   -1    0    0  501    0 -0.00000000000E+00 -0.00000000000E+00 -0.39170152135E+02  0.39170152135E+02  0.00000000000E+00 0. -1.
         25    2    1    2    0    0  0.56679059620E+02  0.89273961145E+02  0.25754080200E+03  0.30517086052E+03  0.12497853207E+03 0.  0.
          2    1    1    2  501    0 -0.21680924787E+02  0.22356557658E+02  0.14949067077E+02  0.34544938506E+02  0.00000000000E+00 0. -1.
          1    1    1    2  502    0 -0.34998134834E+02 -0.11163051880E+03  0.61014288624E+03  0.62125726056E+03  0.00000000000E+00 0. -1.
         22    1    3    3    0    0 -0.21287103950E+01  0.22442454848E+02  0.19518616154E+03  0.19648367068E+03  0.00000000000E+00 0. -1.
         22    1    3    3    0    0  0.58807770015E+02  0.66831506298E+02  0.62354640460E+02  0.10868718984E+03  0.00000000000E+00 0. -1.
</event>
<event>
 7    1  0.6152634E-006  0.8876467E+02  0.7818608E-02  0.1352688E+00
          2   -1    0    0  502    0  0.00000000000E+00  0.00000000000E+00  0.11428624409E+03  0.11428624409E+03  0.00000000000E+00 0. -1.
          1   -1    0    0  501    0 -0.00000000000E+00 -0.00000000000E+00 -0.25039311056E+04  0.25039311056E+04  0.00000000000E+00 0. -1.
         25    2    1    2    0    0 -0.28901580604E+02  0.86256386999E+02 -0.43905063775E+02  0.16071079632E+03  0.12499935908E+03 0.  0.
          2    1    1    2  501    0  0.74323397402E+02 -0.48969000170E+02 -0.23851106289E+04  0.23867707562E+04  0.00000000000E+00 0. -1.
          1    1    1    2  502    0 -0.45421816797E+02 -0.37287386829E+02  0.39370831166E+02  0.70735797192E+02  0.00000000000E+00 0. -1.
         22    1    3    3    0    0 -0.54619238593E+02  0.10781347005E+03 -0.31132968571E+02  0.12480491689E+03  0.00000000000E+00 0.  1.
         22    1    3    3    0    0  0.25717657989E+02 -0.21557083049E+02 -0.12772095204E+02  0.35905879434E+02  0.00000000000E+00 0.  1.
</event>
<event>
 7    1  0.6152634E-006  0.1781521E+03  0.7818608E-02  0.1223188E+00
          2   -1    0    0  502    0  0.00000000000E+00  0.00000000000E+00  0.27029261835E+03  0.27029261835E+03  0.00000000000E+00 0. -1.
          1   -1    0    0  501    0 -0.00000000000E+00 -0.00000000000E+00 -0.25177499146E+04  0.25177499146E+04  0.00000000000E+00 0. -1.
         25    2    1    2    0    0 -0.93374065689E+02 -0.24904952479E+03 -0.22827718463E+03  0.37212855173E+03  0.12499921618E+03 0.  0.
          2    1    1    2  501    0  0.44852311922E+02  0.88447826725E+02 -0.21807437698E+04  0.21829975120E+04  0.00000000000E+00 0. -1.
          1    1    1    2  502    0  0.48521753767E+02  0.16060169807E+03  0.16156365815E+03  0.23291646924E+03  0.00000000000E+00 0. -1.
         22    1    3    3    0    0 -0.59713426537E+02 -0.90537903673E+02 -0.16649480554E+03  0.19870411566E+03  0.00000000000E+00 0. -1.
         22    1    3    3    0    0 -0.33660639151E+02 -0.15851162112E+03 -0.61782379091E+02  0.17342443606E+03  0.00000000000E+00 0. -1.
</event>
<event>
 7    1  0.6152634E-006  0.4720355E+02  0.7818608E-02  0.1480371E+00
          2   -1    0    0  502    0  0.00000000000E+00  0.00000000000E+00  0.22857829461E+03  0.22857829461E+03  0.00000000000E+00 0. -1.
          1   -1    0    0  501    0 -0.00000000000E+00 -0.00000000000E+00 -0.35084993329E+03  0.35084993329E+03  0.00000000000E+00 0. -1.
         25    2    1    2    0    0 -0.42295116393E+01  0.43205830446E+01  0.11990696629E+03  0.17331839662E+03  0.12500011935E+03 0.  0.
          2    1    1    2  501    0 -0.13129936192E+02  0.45340713665E+02 -0.31375156964E+03  0.31728256017E+03  0.00000000000E+00 0. -1.
          1    1    1    2  502    0  0.17359447831E+02 -0.49661296710E+02  0.71572964671E+02  0.88827271104E+02  0.00000000000E+00 0. -1.
         22    1    3    3    0    0 -0.99482216561E+01 -0.18221315742E+02  0.14063902094E+03  0.14216299685E+03  0.00000000000E+00 0. -1.
         22    1    3    3    0    0  0.57187100168E+01  0.22541898787E+02 -0.20732054652E+02  0.31155399777E+02  0.00000000000E+00 0. -1.
</event>
<event>
 7    1  0.6152634E-006  0.1967032E+03  0.7818608E-02  0.1361331E+00
          2   -1    0    0  502    0  0.00000000000E+00  0.00000000000E+00  0.13506631765E+04  0.13506631765E+04  0.00000000000E+00 0. -1.
          1   -1    0    0  501    0 -0.00000000000E+00 -0.00000000000E+00 -0.22962858374E+03  0.22962858374E+03  0.00000000000E+00 0. -1.
         25    2    1    2    0    0  0.69807469116E+02  0.20705959796E+03  0.13576164144E+03  0.28601732122E+03  0.12501169904E+03 0.  0.
          2    1    1    2  501    0 -0.35798665506E+01 -0.24391885277E+02 -0.14517303946E+03  0.14725145466E+03  0.00000000000E+00 0. -1.
          1    1    1    2  502    0 -0.66227602565E+02 -0.18266771269E+03  0.11304459907E+04  0.11470229843E+04  0.00000000000E+00 0. -1.
         22    1    3    3    0    0  0.76590430588E+02  0.18973358709E+03  0.67792678419E+02  0.21554761742E+03  0.00000000000E+00 0. -1.
         22    1    3    3    0    0 -0.67829614720E+01  0.17326010874E+02  0.67968963025E+02  0.70469703801E+02  0.00000000000E+00 0. -1.
</event>
<event>
 7    1  0.6152634E-006  0.1424269E+03  0.7818608E-02  0.1345961E+00
          2   -1    0    0  502    0  0.00000000000E+00  0.00000000000E+00  0.24409724985E+04  0.24409724985E+04  0.00000000000E+00 0. -1.
          1   -1    0    0  501    0 -0.00000000000E+00 -0.00000000000E+00 -0.55377045642E+03  0.55377045642E+03  0.00000000000E+00 0. -1.
         25    2    1    2    0    0  0.15266612619E+03  0.95397908968E+02  0.83225451763E+02  0.23443440071E+03  0.12500122117E+03 0.  0.
          2    1    1    2  501    0 -0.34183992425E+02 -0.18334567952E+02 -0.47518652154E+03  0.47676716747E+03  0.00000000000E+00 0. -1.
          1    1    1    2  502    0 -0.11848213376E+03 -0.77063341016E+02  0.22791631118E+04  0.22835413867E+04  0.00000000000E+00 0. -1.
         22    1    3    3    0    0  0.48321494929E+02  0.22962974048E+02  0.92730596715E+02  0.10705712782E+03  0.00000000000E+00 0. -1.
         22    1    3    3    0    0  0.10434463126E+03  0.72434934920E+02 -0.95051449523E+01  0.12737727289E+03  0.00000000000E+00 0. -1.
</event>
<event>
 7    1  0.6152634E-006  0.1337418E+03  0.7818608E-02  0.1331054E+00
          2   -1    0    0  502    0  0.00000000000E+00  0.00000000000E+00  0.51678420893E+03  0.51678420893E+03  0.00000000000E+00 0. -1.
          1   -1    0    0  501    0 -0.00000000000E+00 -0.00000000000E+00 -0.93387028884E+03  0.93387028884E+03  0.00000000000E+00 0. -1.
         25    2    1    2    0    0 -0.16182304789E+03  0.57190906997E+02  0.24152059045E+02  0.21369613378E+03  0.12500086786E+03 0.  0.
          2    1    1    2  501    0  0.34659861440E+02 -0.31770429415E+02 -0.82784649392E+03  0.82918060981E+03  0.00000000000E+00 0. -1.
          1    1    1    2  502    0  0.12716318645E+03 -0.25420477582E+02  0.38660835497E+03  0.40777775418E+03  0.00000000000E+00 0. -1.
         22    1    3    3    0    0 -0.12685218858E+03  0.47884951751E+02 -0.38845942797E+02  0.14104415487E+03  0.00000000000E+00 0.  1.
         22    1    3    3    0    0 -0.34970859313E+02  0.93059552463E+01  0.62998001842E+02  0.72651978915E+02  0.00000000000E+00 0.  1.
</event>
<event>
 7    1  0.6152634E-006  0.6758133E+02  0.7818608E-02  0.1457410E+00
          2   -1    0    0  502    0  0.00000000000E+00  0.00000000000E+00  0.40810930377E+02  0.40810930377E+02  0.00000000000E+00 0. -1.
          1   -1    0    0  501    0 -0.00000000000E+00 -0.00000000000E+00 -0.22492418869E+04  0.22492418869E+04  0.00000000000E+00 0. -1.
         25    2    1    2    0    0 -0.11983971529E+02 -0.38434016961E+02 -0.13586119063E+04  0.13649431608E+04  0.12499092325E+03 0.  0.
          2    1    1    2  501    0  0.16240824439E+02 -0.29700922831E+02 -0.85590222237E+03  0.85657137675E+03  0.00000000000E+00 0. -1.
          1    1    1    2  502    0 -0.42568529097E+01  0.68134939792E+02  0.60831721204E+01  0.68538279816E+02  0.00000000000E+00 0. -1.
         22    1    3    3    0    0 -0.47143463839E+02 -0.17220973117E+02 -0.12016851911E+04  0.12027328741E+04  0.00000000000E+00 0.  1.
         22    1    3    3    0    0  0.35159492309E+02 -0.21213043844E+02 -0.15692671525E+03  0.16221028662E+03  0.00000000000E+00 0.  1.
</event>
<event>
 7    1  0.6152634E-006  0.1168672E+03  0.7818608E-02  0.1354194E+00
          2   -1    0    0  502    0  0.00000000000E+00  0.00000000000E+00  0.48662506678E+03  0.48662506678E+03  0.00000000000E+00 0. -1.
          1   -1    0    0  501    0 -0.00000000000E+00 -0.00000000000E+00 -0.80270691515E+03  0.80270691515E+03  0.00000000000E+00 0. -1.
         25    2    1    2    0    0  0.51683595246E+02 -0.72489654106E+02 -0.24944455866E+03  0.29286962129E+03  0.12499633297E+03 0.  0.
          2    1    1    2  501    0 -0.17827752943E+02 -0.40301168966E+02 -0.52315123009E+03  0.52500402145E+03  0.00000000000E+00 0. -1.
          1    1    1    2  502    0 -0.33855842303E+02  0.11279082307E+03  0.45651394039E+03  0.47145833920E+03  0.00000000000E+00 0. -1.
         22    1    3    3    0    0 -0.35712690658E+02 -0.28401118801E+02 -0.13375767811E+03  0.14132634671E+03  0.00000000000E+00 0. -1.
         22    1    3    3    0    0  0.87396285904E+02 -0.44088535306E+02 -0.11568688056E+03  0.15154327457E+03  0.00000000000E+00 0. -1.
</event>
<event>
 7    1  0.6152634E-006  0.4700014E+02  0.7818608E-02  0.1498269E+00
          2   -1    0    0  502    0  0.00000000000E+00  0.00000000000E+00  0.81187620410E+02  0.81187620410E+02  0.00000000000E+00 0. -1.
          1   -1    0    0  501    0 -0.00000000000E+00 -0.00000000000E+00 -0.71378579524E+03  0.71378579524E+03  0.00000000000E+00 0. -1.
         25    2    1    2    0    0 -0.20948303411E+02  0.15686649409E+02 -0.16253426258E+03  0.20670560409E+03  0.12499967146E+03 0.  0.
          2    1    1    2  501    0  0.47613534203E+02  0.91473820073E+01 -0.52231796519E+03  0.52456341847E+03  0.00000000000E+00 0. -1.
          1    1    1    2  502    0 -0.26665230792E+02 -0.24834031417E+02  0.52254052944E+02  0.63704393088E+02  0.00000000000E+00 0. -1.
         22    1    3    3    0    0  0.13293605246E+02 -0.27920183536E+02 -0.14543245885E+03  0.14868374719E+03  0.00000000000E+00 0. -1.
         22    1    3    3    0    0 -0.34241908657E+02  0.43606832945E+02 -0.17101803729E+02  0.58021856906E+02  0.00000000000E+00 0. -1.
</event>
<event>
 7    1  0.6152634E-006  0.9214778E+02  0.7818608E-02  0.1344092E+00
          2   -1    0    0  502    0  0.00000000000E+00  0.00000000000E+00  0.90511922349E+03  0.90511922349E+03  0.00000000000E+00 0. -1.
          1   -1    0    0  501    0 -0.00000000000E+00 -0.00000000000E+00 -0.10869165108E+04  0.10869165108E+04  0.00000000000E+00 0. -1.
         25    2    1    2    0    0  0.60972105498E+02  0.52167250736E+02  0.30798625102E+02  0.15169949931E+03  0.12500065233E+03 0.  0.
          2    1    1    2  501    0 -0.45874230160E+02  0.40096207762E+02 -0.10228717424E+04  0.10246847087E+04  0.00000000000E+00 0. -1.
          1    1    1    2  502    0 -0.15097875338E+02 -0.92263458498E+02  0.81027583000E+03  0.81565152626E+03  0.00000000000E+00 0. -1.
         22    1    3    3    0    0  0.26125653288E+02 -0.24145669947E+02  0.53993543704E+02  0.64659615670E+02  0.00000000000E+00 0.  1.
         22    1    3    3    0    0  0.34846452211E+02  0.76312920683E+02 -0.23194918601E+02  0.87039883638E+02  0.00000000000E+00 0.  1.
</event>
<event>
 7    1  0.6152634E-006  0.1245200E+03  0.7818608E-02  0.1255408E+00
          2   -1    0    0  502    0  0.00000000000E+00  0.00000000000E+00  0.50148368895E+02  0.50148368895E+02  0.00000000000E+00 0. -1.
          1   -1    0    0  501    0 -0.00000000000E+00 -0.00000000000E+00 -0.14425687490E+04  0.14425687490E+04  0.00000000000E+00 0. -1.
         25    2    1    2    0    0 -0.43663789365E+02 -0.14989804290E+02 -0.36613034127E+03  0.38962137729E+03  0.12498867990E+03 0.  0.
          2    1    1    2  501    0 -0.34091167098E+02  0.11976235333E+03 -0.93642952206E+03  0.94467215410E+03  0.00000000000E+00 0. -1.
          1    1    1    2  502    0  0.77754956463E+02 -0.10477254904E+03 -0.89860516766E+02  0.15842358650E+03  0.00000000000E+00 0. -1.
         22    1    3    3    0    0  0.43653391298E+02 -0.53171160277E+01 -0.96691278883E+02  0.10622190785E+03  0.00000000000E+00 0. -1.
         22    1    3    3    0    0 -0.87317180663E+02 -0.96726882620E+01 -0.26943906239E+03  0.28339946944E+03  0.00000000000E+00 0. -1.
</event>
<event>
 7    1  0.6152634E-006  0.7030309E+02  0.7818608E-02  0.1477071E+00
          2   -1    0    0  502    0  0.00000000000E+00  0.00000000000E+00  0.95132887600E+03  0.95132887600E+03  0.00000000000E+00 0. -1.
          1   -1    0    0  501    0 -0.00000000000E+00 -0.00000000000E+00 -0.13799537992E+03  0.13799537992E+03  0.00000000000E+00 0. -1.
         25    2    1    2    0    0  0.54069931265E+02 -0.73223378825E+02  0.12314017078E+03  0.19767090348E+03  0.12500025500E+03 0.  0.
          2    1    1    2  501    0 -0.27687047416E+02  0.63121992631E+02 -0.88652546566E+02  0.11229529180E+03  0.00000000000E+00 0. -1.
          1    1    1    2  502    0 -0.26382883848E+02  0.10101386193E+02  0.77884587186E+03  0.77935806063E+03  0.00000000000E+00 0. -1.
         22    1    3    3    0    0  0.78345807500E+02 -0.23739542203E+02  0.25841756945E+02  0.85845371564E+02  0.00000000000E+00 0.  1.
         22    1    3    3    0    0 -0.24275876236E+02 -0.49483836621E+02  0.97298413839E+02  0.11182553192E+03  0.00000000000E+00 0.  1.
</event>
<event>
 7    1  0.6152634E-006  0.4104942E+02  0.7818608E-02  0.1559692E+00
          2   -1    0    0  502    0  0.00000000000E+00  0.00000000000E+00  0.69197895921E+03  0.69197895921E+03  0.00000000000E+00 0. -1.
          1   -1    0    0  501    0 -0.00000000000E+00 -0.00000000000E+00 -0.41563885556E+02  0.41563885556E+02  0.00000000000E+00 0. -1.
         25    2    1    2    0    0 -0.19891539664E+01 -0.31783635438E+02  0.42519617666E+03  0.44433179044E+03  0.12499918054E+03 0.  0.
          2    1    1    2  501    0  0.27463820747E+02 -0.43160032073E+01 -0.23620028497E+02  0.36480064144E+02  0.00000000000E+00 0. -1.
          1    1    1    2  502    0 -0.25474666780E+02  0.36099638645E+02  0.24883892550E+03  0.25273099018E+03  0.00000000000E+00 0. -1.
         22    1    3    3    0    0 -0.66538027362E+01  0.88210127496E+01 -0.50501103108E+01  0.12148537810E+02  0.00000000000E+00 0.  1.
         22    1    3    3    0    0  0.46646487698E+01 -0.40604648188E+02  0.43024628697E+03  0.43218325263E+03  0.00000000000E+00 0.  1.
</event>
<event>
 7    1  0.6152634E-006  0.1299690E+03  0.7818608E-02  0.1356917E+00
          2   -1    0    0  502    0  0.00000000000E+00  0.00000000000E+00  0.32857190597E+03  0.32857190597E+03  0.00000000000E+00 0. -1.
          1   -1    0    0  501    0 -0.00000000000E+00 -0.00000000000E+00 -0.10109756625E+04  0.10109756625E+04  0.00000000000E+00 0. -1.
         25    2    1    2    0    0 -0.11376343763E+03 -0.52528339409E+02 -0.24787399506E+03  0.30457975466E+03  0.12500385329E+03 0.  0.
          2    1    1    2  501    0 -0.15598742013E+02  0.35442702591E+02 -0.72002551474E+03  0.72106604954E+03  0.00000000000E+00 0. -1.
          1    1    1    2  502    0  0.12936217964E+03  0.17085636817E+02  0.28549575325E+03  0.31390176430E+03  0.00000000000E+00 0. -1.
         22    1    3    3    0    0 -0.12955955476E+02 -0.72720359314E+02 -0.94677139903E+02  0.12008275589E+03  0.00000000000E+00 0. -1.
         22    1    3    3    0    0 -0.10080748215E+03  0.20192019905E+02 -0.15319685516E+03  0.18449699877E+03  0.00000000000E+00 0. -1.
</event>
<event>
 7    1  0.8140442E-006  0.8258145E+02  0.7818608E-02  0.1330769E+00
          2   -1    0    0  502    0  0.00000000000E+00  0.00000000000E+00  0.96779043648E+03  0.96779043648E+03  0.00000000000E+00 0. -1.
          1   -1    0    0  501    0 -0.00000000000E+00 -0.00000000000E+00 -0.29595294198E+04  0.29595294198E+04  0.00000000000E+00 0. -1.
         25    2    1    2    0    0 -0.45813847057E+02 -0.11752412694E+03 -0.77818898456E+03  0.79819425299E+03  0.12500056328E+03 0.  0.
          2    1    1    2  501    0  0.66432560993E+02  0.37604379440E+02 -0.21688869271E+04  0.21702299135E+04  0.00000000000E+00 0. -1.
          1    1    1    2  502    0 -0.20618713936E+02  0.79919747503E+02  0.95533692835E+03  0.95889568988E+03  0.00000000000E+00 0. -1.
         22    1    3    3    0    0 -0.30164638379E+02 -0.97859890234E+02 -0.26063508107E+03  0.28003055013E+03  0.00000000000E+00 0.  1.
         22    1    3    3    0    0 -0.15649208678E+02 -0.19664236708E+02 -0.51755390350E+03  0.51816370286E+03  0.00000000000E+00 0.  1.
</event>
<event>
 7    1  0.6152634E-006  0.4548743E+02  0.7818608E-02  0.1542295E+00
          2   -1    0    0  502    0  0.00000000000E+00  0.00000000000E+00  0.22105924913E+04  0.22105924913E+04  0.00000000000E+00 0. -1.
          1   -1    0    0  501    0 -0.00000000000E+00 -0.00000000000E+00 -0.48046043245E+03  0.48046043245E+03  0.00000000000E+00 0. -1.
         25    2    1    2    0    0 -0.22546516229E+02  0.57390825683E+00  0.10144536133E+03  0.16255768923E+03  0.12500066490E+03 0.  0.
          2    1    1    2  501    0 -0.17014725818E+02  0.22300978659E+02 -0.44921557400E+03  0.45009050919E+03  0.00000000000E+00 0. -1.
          1    1    1    2  502    0  0.39561242048E+02 -0.22874886915E+02  0.20779022716E+04  0.20784047254E+04  0.00000000000E+00 0. -1.
         22    1    3    3    0    0  0.50340425842E+02  0.12970982776E+02  0.52550014996E+02  0.73918258530E+02  0.00000000000E+00 0. -1.
         22    1    3    3    0    0 -0.72886942071E+02 -0.12397074519E+02  0.48895346337E+02  0.88639430698E+02  0.00000000000E+00 0. -1.
</event>
<event>
 7    1  0.6152634E-006  0.6689647E+02  0.7818608E-02  0.1500826E+00
          2   -1    0    0  502    0  0.00000000000E+00  0.00000000000E+00  0.56806063236E+02  0.56806063236E+02  0.00000000000E+00 0. -1.
          1   -1    0    0  501    0 -0.00000000000E+00 -0.00000000000E+00 -0.18792546304E+04  0.18792546304E+04  0.00000000000E+00 0. -1.
         25    2    1    2    0    0 -0.49568164183E+02  0.68747627548E+02 -0.92919106404E+03  0.94138462722E+03  0.12500297466E+03 0.  0.
          2    1    1    2  501    0  0.24073274289E+02 -0.72966350314E+01 -0.92189962951E+03  0.92224275020E+03  0.00000000000E+00 0. -1.
          1    1    1    2  502    0  0.25494889894E+02 -0.61450992517E+02  0.28642126395E+02  0.72433316205E+02  0.00000000000E+00 0. -1.
         22    1    3    3    0    0 -0.37507993882E+02  0.44086667232E+02 -0.89787813192E+03  0.89974197613E+03  0.00000000000E+00 0.  1.
         22    1    3    3    0    0 -0.12060170301E+02  0.24660960316E+02 -0.31312932121E+02  0.41642651085E+02  0.00000000000E+00 0.  1.
</event>
<event>
 7    1  0.6152634E-006  0.4295744E+02  0.7818608E-02  0.1586417E+00
          2   -1    0    0  502    0  0.00000000000E+00  0.00000000000E+00  0.50739419905E+03  0.50739419905E+03  0.00000000000E+00 0. -1.
          1   -1    0    0  501    0 -0.00000000000E+00 -0.00000000000E+00 -0.11690972859E+03  0.11690972859E+03  0.00000000000E+00 0. -1.
         25    2    1    2    0    0  0.18835384104E+02  0.11506514610E+02  0.25666421846E+02  0.12950206722E+03  0.12499939453E+03 0.  0.
          2    1    1    2  501    0  0.22393781013E+02  0.20881426827E+01 -0.61911290742E+02  0.65869945265E+02  0.00000000000E+00 0. -1.
          1    1    1    2  502    0 -0.41229165117E+02 -0.13594657292E+02  0.42672933936E+03  0.42893191515E+03  0.00000000000E+00 0. -1.
         22    1    3    3    0    0 -0.27468926860E+02 -0.45501622280E+02  0.61186085676E+01  0.53501186377E+02  0.00000000000E+00 0. -1.
         22    1    3    3    0    0  0.46304310964E+02  0.57008136890E+02  0.19547813279E+02  0.76000880847E+02  0.00000000000E+00 0. -1.
</event>
<event>
 7    1  0.6152634E-006  0.1487619E+03  0.7818608E-02  0.1246210E+00
          2   -1    0    0  502    0  0.00000000000E+00  0.00000000000E+00  0.10593386745E+04  0.10593386745E+04  0.00000000000E+00 0. -1.
          1   -1    0    0  501    0 -0.00000000000E+00 -0.00000000000E+00 -0.44288398049E+03  0.44288398049E+03  0.00000000000E+00 0. -1.
         25    2    1    2    0    0 -0.10057885526E+03 -0.10011813408E+03  0.13724973911E+03  0.23367060971E+03  0.12499886424E+03 0.  0.
          2    1    1    2  501    0 -0.51177737427E+02  0.78620042540E+02 -0.38223735284E+03  0.39358057092E+03  0.00000000000E+00 0. -1.
          1    1    1    2  502    0  0.15175659269E+03  0.21498091543E+02  0.86144230772E+03  0.87497147433E+03  0.00000000000E+00 0. -1.
         22    1    3    3    0    0 -0.63973751237E+02  0.12244314090E+02  0.22395585788E+02  0.68877618554E+02  0.00000000000E+00 0. -1.
         22    1    3    3    0    0 -0.36605104022E+02 -0.11236244817E+03  0.11485415332E+03  0.16479299116E+03  0.00000000000E+00 0. -1.
</event>
<event>
 7    1  0.6152634E-006  0.6208962E+02  0.7818608E-02  0.1527301E+00
          2   -1    0    0  502    0  0.00000000000E+00  0.00000000000E+00  0.37365608050E+03  0.37365608050E+03  0.00000000000E+00 0. -1.
          1   -1    0    0  501    0 -0.00000000000E+00 -0.00000000000E+00 -0.21341080857E+04  0.21341080857E+04  0.00000000000E+00 0. -1.
         25    2    1    2    0    0  0.61050173990E+02 -0.56784204326E+02 -0.54360596375E+03  0.56398938366E+03  0.12500004580E+03 0.  0.
          2    1    1    2  501    0 -0.42950129174E+02  0.43130659834E+02 -0.15793700321E+04  0.15805425226E+04  0.00000000000E+00 0. -1.
          1    1    1    2  502    0 -0.18100044816E+02  0.13653544492E+02  0.36252399063E+03  0.36323225997E+03  0.00000000000E+00 0. -1.
         22    1    3    3    0    0 -0.13774521903E+02 -0.32543293918E+02 -0.38827701434E+03  0.38988183248E+03  0.00000000000E+00 0. -1.
         22    1    3    3    0    0  0.74824695893E+02 -0.24240910408E+02 -0.15532894942E+03  0.17410755118E+03  0.00000000000E+00 0. -1.
</event>
<event>
 7    1  0.6152634E-006  0.6505710E+02  0.7818608E-02  0.1386892E+00
          2   -1    0    0  502    0  0.00000000000E+00  0.00000000000E+00  0.99919007110E+03  0.99919007110E+03  0.00000000000E+00 0. -1.
          1   -1    0    0  501    0 -0.00000000000E+00 -0.00000000000E+00 -0.57219106703E+03  0.57219106703E+03  0.00000000000E+00 0. -1.
         25    2    1    2    0    0 -0.14025270938E+02 -0.89377643528E+02  0.12441107695E+03  0.19821532804E+03  0.12500451518E+03 0.  0.
          2    1    1    2  501    0  0.50364099378E+02  0.41129185156E+02 -0.53221903334E+03  0.53617651182E+03  0.00000000000E+00 0. -1.
          1    1    1    2  502    0 -0.36338828440E+02  0.48248458372E+02  0.83480696046E+03  0.83698929827E+03  0.00000000000E+00 0. -1.
         22    1    3    3    0    0 -0.37457159737E+02 -0.72997275199E+02  0.12847032000E+02  0.83046295723E+02  0.00000000000E+00 0.  1.
         22    1    3    3    0    0  0.23431888799E+02 -0.16380368328E+02  0.11156404495E+03  0.11516903232E+03  0.00000000000E+00 0.  1.
</event>
<event>
 7    1  0.6152634E-006  0.1659180E+03  0.7818608E-02  0.1314324E+00
          2   -1    0    0  502    0  0.00000000000E+00  0.00000000000E+00  0.18984106336E+04  0.18984106336E+04  0.00000000000E+00 0. -1.
          1   -1    0    0  501    0 -0.00000000000E+00 -0.00000000000E+00 -0.27826417772E+03  0.27826417772E+03  0.00000000000E+00 0. -1.
         25    2    1    2    0    0  0.68189406422E+01 -0.12777457135E+03  0.10329818701E+03  0.20655935100E+03  0.12499364387E+03 0.  0.
          2    1    1    2  501    0  0.20283491429E+02 -0.39026024267E+02 -0.22036045366E+03  0.22470687603E+03  0.00000000000E+00 0. -1.
          1    1    1    2  502    0 -0.27102432071E+02  0.16680059562E+03  0.17372087225E+04  0.17454085842E+04  0.00000000000E+00 0. -1.
         22    1    3    3    0    0 -0.53581382379E+02 -0.26095855626E+02  0.45163717277E+02  0.74777801363E+02  0.00000000000E+00 0. -1.
         22    1    3    3    0    0  0.60400323021E+02 -0.10167871572E+03  0.58134469738E+02  0.13178154963E+03  0.00000000000E+00 0. -1.
</event>
<event>
 7    1  0.6152634E-006  0.6555687E+02  0.7818608E-02  0.1496827E+00
          2   -1    0    0  502    0  0.00000000000E+00  0.00000000000E+00  0.44808228457E+02  0.44808228457E+02  0.00000000000E+00 0. -1.
          1   -1    0    0  501    0 -0.00000000000E+00 -0.00000000000E+00 -0.11142867990E+04  0.11142867990E+04  0.00000000000E+00 0. -1.
         25    2    1    2    0    0 -0.37481667001E+02  0.36485265584E+02 -0.11921545661E+03  0.18048066008E+03  0.12499957441E+03 0.  0.
          2    1    1    2  501    0  0.61265988288E+02 -0.25062436533E+02 -0.94992353181E+03  0.95222705451E+03  0.00000000000E+00 0. -1.
          1    1    1    2  502    0 -0.23784321287E+02 -0.11422829051E+02 -0.33958208788E+00  0.26387312834E+02  0.00000000000E+00 0. -1.
         22    1    3    3    0    0 -0.46688501623E+02  0.53149118280E+02 -0.12203472795E+02  0.71788367484E+02  0.00000000000E+00 0. -1.
         22    1    3    3    0    0  0.92068346222E+01 -0.16663852696E+02 -0.10701198381E+03  0.10869229260E+03  0.00000000000E+00 0. -1.
</event>
<event>
 7    1  0.6152634E-006  0.5008979E+02  0.7818608E-02  0.1478424E+00
          2   -1    0    0  502    0  0.00000000000E+00  0.00000000000E+00  0.12513311245E+04  0.12513311245E+04  0.00000000000E+00 0. -1.
          1   -1    0    0  501    0 -0.00000000000E+00 -0.00000000000E+00 -0.37033219361E+03  0.37033219361E+03  0.00000000000E+00 0. -1.
         25    2    1    2    0    0 -0.19102024217E+01 -0.11653532442E+02  0.12447215782E+03  0.17680132245E+03  0.12500374337E+03 0.  0.
          2    1    1    2  501    0  0.20733172264E+02  0.46121302217E+02 -0.34195740596E+03  0.34567601369E+03  0.00000000000E+00 0. -1.
          1    1    1    2  502    0 -0.18822969842E+02 -0.34467769775E+02  0.10984841791E+04  0.10991859820E+04  0.00000000000E+00 0. -1.
         22    1    3    3    0    0 -0.16699759455E+02  0.26500708691E+02  0.13158977588E+03  0.13526654666E+03  0.00000000000E+00 0.  1.
         22    1    3    3    0    0  0.14789557033E+02 -0.38154241134E+02 -0.71176180588E+01  0.41534775798E+02  0.00000000000E+00 0.  1.
</event>
<event>
 7    1  0.6152634E-006  0.3730816E+02  0.7818608E-02  0.1543798E+00
          2   -1    0    0  502    0  0.00000000000E+00  0.00000000000E+00  0.11181330352E+04  0.11181330352E+04  0.00000000000E+00 0. -1.
          1   -1    0    0  501    0 -0.00000000000E+00 -0.00000000000E+00 -0.29728275620E+02  0.29728275620E+02  0.00000000000E+00 0. -1.
         25    2    1    2    0    0 -0.20387398345E+01 -0.18828765458E+02  0.56876510030E+03  0.58264684628E+03  0.12499971719E+03 0.  0.
          2    1    1    2  501    0  0.33215217135E+02 -0.66197904976E+01 -0.90010352751E+01  0.35044128061E+02  0.00000000000E+00 0. -1.
          1    1    1    2  502    0 -0.31176477300E+02  0.25448555956E+02  0.52864069456E+03  0.53017033648E+03  0.00000000000E+00 0. -1.
         22    1    3    3    0    0  0.50257614070E+02 -0.29442842290E+02  0.43082664556E+03  0.43474625617E+03  0.00000000000E+00 0. -1.
         22    1    3    3    0    0 -0.52296353904E+02  0.10614076832E+02  0.13793845474E+03  0.14790059011E+03  0.00000000000E+00 0. -1.
</event>
<event>
 7    1  0.6152634E-006  0.2560185E+02  0.7818608E-02  0.1681896E+00
          2   -1    0    0  502    0  0.00000000000E+00  0.00000000000E+00  0.22474706563E+02  0.22474706563E+02  0.00000000000E+00 0. -1.
          1   -1    0    0  501    0 -0.00000000000E+00 -0.00000000000E+00 -0.18434804454E+04  0.18434804454E+04  0.00000000000E+00 0. -1.
         25    2    1    2    0    0 -0.22705263265E+02 -0.40953127187E+02 -0.11320473827E+04  0.11398898561E+04  0.12499967861E+03 0.  0.
          2    1    1    2  501    0  0.78599020312E+01  0.20293949773E+02 -0.69854142042E+03  0.69888034634E+03  0.00000000000E+00 0. -1.
          1    1    1    2  502    0  0.14845361233E+02  0.20659177415E+02  0.95830642878E+01  0.27184949563E+02  0.00000000000E+00 0. -1.
         22    1    3    3    0    0  0.66624450159E+01  0.35605741347E+02 -0.64269468550E+03  0.64371470059E+03  0.00000000000E+00 0. -1.
         22    1    3    3    0    0 -0.29367708280E+02 -0.76558868534E+02 -0.48935269725E+03  0.49617515551E+03  0.00000000000E+00 0. -1.
</event>
<event>
 7    1  0.6152634E-006  0.1071002E+03  0.7818608E-02  0.1317275E+00
          2   -1    0    0  502    0  0.00000000000E+00  0.00000000000E+00  0.37585220057E+03  0.37585220057E+03  0.00000000000E+00 0. -1.
          1   -1    0    0  501    0 -0.00000000000E+00 -0.00000000000E+00 -0.14141006511E+04  0.14141006511E+04  0.00000000000E+00 0. -1.
         25    2    1    2    0    0 -0.86834298858E+01  0.12119804691E+03 -0.11651081904E+03  0.20967487902E+03  0.12499766161E+03 0.  0.
          2    1    1    2  501    0  0.64689410439E+02 -0.85617552367E+02 -0.12453341147E+04  0.12499488558E+04  0.00000000000E+00 0. -1.
          1    1    1    2  502    0 -0.56005980553E+02 -0.35580494548E+02  0.32359648320E+03  0.33032911677E+03  0.00000000000E+00 0. -1.
         22    1    3    3    0    0  0.52104526273E+02  0.56100404394E+02 -0.86893687445E+02  0.11581299560E+03  0.00000000000E+00 0. -1.
         22    1    3    3    0    0 -0.60787956159E+02  0.65097642520E+02 -0.29617131598E+02  0.93861883424E+02  0.00000000000E+00 0. -1.
</event>
<event>
 7    1  0.6152634E-006  0.5528302E+02  0.7818608E-02  0.1455541E+00
          2   -1    0    0  502    0  0.00000000000E+00  0.00000000000E+00  0.88156013495E+03  0.88156013495E+03  0.00000000000E+00 0. -1.
          1   -1    0    0  501    0 -0.00000000000E+00 -0.00000000000E+00 -0.48678442714E+03  0.48678442714E+03  0.00000000000E+00 0. -1.
         25    2    1    2    0    0  0.31537845681E+02  0.43931596303E+01 -0.40454615583E+03  0.42461370075E+03  0.12500106842E+03 0.  0.
          2    1    1    2  501    0 -0.53520277246E+02  0.46331442901E+02 -0.53741983500E+02  0.88877575734E+02  0.00000000000E+00 0. -1.
          1    1    1    2  502    0  0.21982431565E+02 -0.50724602531E+02  0.85306384714E+03  0.85485328560E+03  0.00000000000E+00 0. -1.
         22    1    3    3    0    0 -0.12363841477E+02 -0.37192829727E+02 -0.43558645515E+02  0.58596303282E+02  0.00000000000E+00 0.  1.
         22    1    3    3    0    0  0.43901687158E+02  0.41585989357E+02 -0.36098751032E+03  0.36601739747E+03  0.00000000000E+00 0.  1.
</event>
<event>
 7    1  0.6152634E-006  0.1078638E+03  0.7818608E-02  0.1370800E+00
          2   -1    0    0  502    0  0.00000000000E+00  0.00000000000E+00  0.62440013739E+03  0.62440013739E+03  0.00000000000E+00 0. -1.
          1   -1    0    0  501    0 -0.00000000000E+00 -0.00000000000E+00 -0.52034627352E+03  0.52034627352E+03  0.00000000000E+00 0. -1.
         25    2    1    2    0    0  0.69807767180E+02  0.95785546977E+02 -0.10747469068E+03  0.20303705973E+03  0.12500097247E+03 0.  0.
          2    1    1    2  501    0 -0.40775653407E+02  0.79816935805E+01 -0.35884733114E+03  0.36124474862E+03  0.00000000000E+00 0. -1.
          1    1    1    2  502    0 -0.29032113774E+02 -0.10376724056E+03  0.57037588569E+03  0.58046460255E+03  0.00000000000E+00 0. -1.
         22    1    3    3    0    0  0.68282136916E+02  0.12219472067E+02 -0.96345897843E+02  0.11871940764E+03  0.00000000000E+00 0. -1.
         22    1    3    3    0    0  0.15256302646E+01  0.83566074909E+02 -0.11128792840E+02  0.84317652087E+02  0.00000000000E+00 0. -1.
</event>
<event>
 7    1  0.6152634E-006  0.5619982E+02  0.7818608E-02  0.1487569E+00
          2   -1    0    0  502    0  0.00000000000E+00  0.00000000000E+00  0.20196683017E+04  0.20196683017E+04  0.00000000000E+00 0. -1.
          1   -1    0    0  501    0 -0.00000000000E+00 -0.00000000000E+00 -0.30108179362E+03  0.30108179362E+03  0.00000000000E+00 0. -1.
         25    2    1    2    0    0  0.78890317592E+02 -0.10762508776E+02  0.39498227617E+02  0.15337709355E+03  0.12499963614E+03 0.  0.
          2    1    1    2  501    0 -0.29144801156E+02 -0.15095624589E+02 -0.24262853972E+03  0.24483852966E+03  0.00000000000E+00 0. -1.
          1    1    1    2  502    0 -0.49745516436E+02  0.25858133365E+02  0.19217168201E+04  0.19225344721E+04  0.00000000000E+00 0. -1.
         22    1    3    3    0    0  0.14496483999E+02 -0.32430832331E+02  0.70310602763E+02  0.78774918565E+02  0.00000000000E+00 0. -1.
         22    1    3    3    0    0  0.64393833592E+02  0.21668323555E+02 -0.30812375146E+02  0.74602174985E+02  0.00000000000E+00 0. -1.
</event>
<event>
 7    1  0.6152634E-006  0.1708710E+03  0.7818608E-02  0.1358796E+00
          2   -1    0    0  502    0  0.00000000000E+00  0.00000000000E+00  0.17015715608E+04  0.17015715608E+04  0.00000000000E+00 0. -1.
          1   -1    0    0  501    0 -0.00000000000E+00 -0.00000000000E+00 -0.39722385557E+03  0.39722385557E+03  0.00000000000E+00 0. -1.
         25    2    1    2    0    0  0.80181536185E+02  0.13219447738E+03  0.15500197251E+03  0.25210305636E+03  0.12500352375E+03 0.  0.
          2    1    1    2  501    0 -0.10912321105E+03 -0.13388558164E+03 -0.32713175498E+03  0.36993027623E+03  0.00000000000E+00 0. -1.
          1    1    1    2  502    0  0.28941674861E+02  0.16911042610E+01  0.14764774877E+04  0.14767620838E+04  0.00000000000E+00 0. -1.
         22    1    3    3    0    0 -0.22705179329E+02  0.77338925778E+02  0.79391052845E+02  0.11313608567E+03  0.00000000000E+00 0. -1.
         22    1    3    3    0    0  0.10288671551E+03  0.54855551600E+02  0.75610919662E+02  0.13896697069E+03  0.00000000000E+00 0. -1.
</event>
<event>
 7    1  0.6152634E-006  0.5551644E+02  0.7818608E-02  0.1512844E+00
          2   -1    0    0  502    0  0.00000000000E+00  0.00000000000E+00  0.24313051270E+04  0.24313051270E+04  0.00000000000E+00 0. -1.
          1   -1    0    0  501    0 -0.00000000000E+00 -0.00000000000E+00 -0.16200298152E+03  0.16200298152E+03  0.00000000000E+00 0. -1.
         25    2    1    2    0    0 -0.41256738812E+02  0.46587774657E+02  0.19303119340E+03  0.23823974950E+03  0.12499838947E+03 0.  0.
          2    1    1    2  501    0  0.27020717576E+02  0.70691851126E+01 -0.13764823092E+03  0.14045329484E+03  0.00000000000E+00 0. -1.
          1    1    1    2  502    0  0.14236021235E+02 -0.53656959770E+02  0.22139191830E+04  0.22146150642E+04  0.00000000000E+00 0. -1.
         22    1    3    3    0    0 -0.40502845209E+02  0.31195275469E+02  0.70340641221E+01  0.51605268526E+02  0.00000000000E+00 0. -1.
         22    1    3    3    0    0 -0.75389360294E+00  0.15392499188E+02  0.18599712928E+03  0.18663448097E+03  0.00000000000E+00 0. -1.
</event>
<event>
 7    1  0.6152634E-006  0.7989172E+02  0.7818608E-02  0.1345580E+00
          2   -1    0    0  502    0  0.00000000000E+00  0.00000000000E+00  0.36475555136E+03  0.36475555136E+03  0.00000000000E+00 0. -1.
          1   -1    0    0  501    0 -0.00000000000E+00 -0.00000000000E+00 -0.15639135073E+04  0.15639135073E+04  0.00000000000E+00 0. -1.
         25    2    1    2    0    0 -0.12083531433E+02  0.50582568873E+01 -0.96680785551E+02  0.15856970931E+03  0.12500232287E+03 0.  0.
          2    1    1    2  501    0  0.77792124924E+02 -0.27329873828E+02 -0.14314839959E+04  0.14338566759E+04  0.00000000000E+00 0. -1.
          1    1    1    2  502    0 -0.65708593492E+02  0.22271616941E+02  0.32900682550E+03  0.33624267339E+03  0.00000000000E+00 0. -1.
         22    1    3    3    0    0  0.29899042032E+02  0.43433917434E+02 -0.85726562553E+02  0.10064542426E+03  0.00000000000E+00 0. -1.
         22    1    3    3    0    0 -0.41982573465E+02 -0.38375660547E+02 -0.10954222998E+02  0.57924285051E+02  0.00000000000E+00 0. -1.
</event>
<event>
 7    1  0.6152634E-006  0.1443420E+03  0.7818608E-02  0.1414707E+00
          2   -1    0    0  502    0  0.00000000000E+00  0.00000000000E+00  0.80766015286E+03  0.80766015286E+03  0.00000000000E+00 0. -1.
          1   -1    0    0  501    0 -0.00000000000E+00 -0.00000000000E+00 -0.54108934778E+02  0.54108934778E+02  0.00000000000E+00 0. -1.
         25    2    1    2    0    0 -0.13626247568E+02  0.15299980974E+03  0.53650872451E+03  0.57189535532E+03  0.12501227762E+03 0.  0.
          2    1    1    2  501    0  0.12248919802E+02 -0.18091285388E+02 -0.11341601296E+02  0.24616306857E+02  0.00000000000E+00 0. -1.
          1    1    1    2  502    0  0.13773277657E+01 -0.13490852435E+03  0.22838409487E+03  0.26525742546E+03  0.00000000000E+00 0. -1.
         22    1    3    3    0    0 -0.52212123305E+02  0.22810709862E+02  0.22454144340E+03  0.23165770894E+03  0.00000000000E+00 0.  1.
         22    1    3    3    0    0  0.38585875737E+02  0.13018909988E+03  0.31196728111E+03  0.34023764638E+03  0.00000000000E+00 0.  1.
</event>
<event>
 7    1  0.6152634E-006  0.8945246E+02  0.7818608E-02  0.1394131E+00
          2   -1    0    0  502    0  0.00000000000E+00  0.00000000000E+00  0.60918265866E+03  0.60918265866E+03  0.00000000000E+00 0. -1.
          1   -1    0    0  501    0 -0.00000000000E+00 -0.00000000000E+00 -0.91457942909E+03  0.91457942909E+03  0.00000000000E+00 0. -1.
         25    2    1    2    0    0 -0.36256152431E+02  0.34603034246E+02 -0.10877589696E+02  0.13510863052E+03  0.12499656602E+03 0.  0.
          2    1    1    2  501    0 -0.28032803948E+02  0.30531317719E+02 -0.83724256950E+03  0.83826792831E+03  0.00000000000E+00 0. -1.
          1    1    1    2  502    0  0.64288956379E+02 -0.65134351965E+02  0.54272338877E+03  0.55038552891E+03  0.00000000000E+00 0. -1.
         22    1    3    3    0    0 -0.36723373264E+02  0.80346065294E+02 -0.13112538934E+02  0.89308650362E+02  0.00000000000E+00 0. -1.
         22    1    3    3    0    0  0.46722083266E+00 -0.45743031049E+02  0.22349492375E+01  0.45799980163E+02  0.00000000000E+00 0. -1.
</event>
<event>
 7    1  0.6152634E-006  0.4292636E+02  0.7818608E-02  0.1534911E+00
          2   -1    0    0  502    0  0.00000000000E+00  0.00000000000E+00  0.27866901535E+03  0.27866901535E+03  0.00000000000E+00 0. -1.
          1   -1    0    0  501    0 -0.00000000000E+00 -0.00000000000E+00 -0.72591187216E+03  0.72591187216E+03  0.00000000000E+00 0. -1.
         25    2    1    2    0    0  0.22207090798E+02 -0.52520328583E+02  0.74556319267E+02  0.15631768937E+03  0.12500014189E+03 0.  0.
          2    1    1    2  501    0 -0.29336888544E+02  0.10591538933E+02 -0.68189826838E+03  0.68261122328E+03  0.00000000000E+00 0. -1.
          1    1    1    2  502    0  0.71297977463E+01  0.41928789650E+02  0.16009909230E+03  0.16565197486E+03  0.00000000000E+00 0. -1.
         22    1    3    3    0    0  0.35442810034E+02 -0.61388485447E+02  0.10222060805E+03  0.12439369614E+03  0.00000000000E+00 0.  1.
         22    1    3    3    0    0 -0.13235719236E+02  0.88681568641E+01 -0.27664288788E+02  0.31923993234E+02  0.00000000000E+00 0.  1.
</event>
<event>
 7    1  0.6152634E-006  0.6535063E+02  0.7818608E-02  0.1482730E+00
          2   -1    0    0  502    0  0.00000000000E+00  0.00000000000E+00  0.15821200007E+04  0.15821200007E+04  0.00000000000E+00 0. -1.
          1   -1    0    0  501    0 -0.00000000000E+00 -0.00000000000E+00 -0.20519198883E+02  0.20519198883E+02  0.00000000000E+00 0. -1.
         25    2    1    2    0    0  0.88305755174E+02  0.18096381749E+02  0.93472391474E+03  0.94734350554E+03  0.12500214113E+03 0.  0.
          2    1    1    2  501    0 -0.59425186053E+02 -0.22407152537E+02  0.59054359521E+02  0.86722837826E+02  0.00000000000E+00 0. -1.
          1    1    1    2  502    0 -0.28880569121E+02  0.43107707879E+01  0.56782252759E+03  0.56857285624E+03  0.00000000000E+00 0. -1.
         22    1    3    3    0    0 -0.23955517136E+02  0.27790284876E+02  0.14255239112E+03  0.14719833881E+03  0.00000000000E+00 0. -1.
         22    1    3    3    0    0  0.11226127231E+03 -0.96939031261E+01  0.79217152361E+03  0.80014516673E+03  0.00000000000E+00 0. -1.
</event>
<event>
 7    1  0.6152634E-006  0.7007285E+02  0.7818608E-02  0.1396713E+00
          2   -1    0    0  502    0  0.00000000000E+00  0.00000000000E+00  0.10699840676E+04  0.10699840676E+04  0.00000000000E+00 0. -1.
          1   -1    0    0  501    0 -0.00000000000E+00 -0.00000000000E+00 -0.48504234373E+03  0.48504234373E+03  0.00000000000E+00 0. -1.
         25    2    1    2    0    0  0.42844163745E+02 -0.10145147423E+03 -0.26396690577E+03  0.31213801503E+03  0.12499435624E+03 0.  0.
          2    1    1    2  501    0 -0.37342417061E+02  0.49910079057E+02 -0.19139735092E+03  0.20129187276E+03  0.00000000000E+00 0. -1.
          1    1    1    2  502    0 -0.55017466846E+01  0.51541395177E+02  0.10403059806E+04  0.10415965235E+04  0.00000000000E+00 0. -1.
         22    1    3    3    0    0  0.33248056852E+02 -0.10841230865E+03 -0.27404428239E+03  0.29657870905E+03  0.00000000000E+00 0. -1.
         22    1    3    3    0    0  0.95961068929E+01  0.69608344122E+01  0.10077376615E+02  0.15559305982E+02  0.00000000000E+00 0. -1.
</event>
<event>
 7    1  0.6152634E-006  0.6810355E+02  0.7818608E-02  0.1408897E+00
          2   -1    0    0  502    0  0.00000000000E+00  0.00000000000E+00  0.61232073371E+02  0.61232073371E+02  0.00000000000E+00 0. -1.
          1   -1    0    0  501    0 -0.00000000000E+00 -0.00000000000E+00 -0.53849273641E+03  0.53849273641E+03  0.00000000000E+00 0. -1.
         25    2    1    2    0    0  0.69103276239E+02  0.52669141588E+01 -0.13492093312E+03  0.19655244461E+03  0.12500480838E+03 0.  0.
          2    1    1    2  501    0 -0.49142738288E+02 -0.49411066273E+02 -0.34752972711E+03  0.35444798408E+03  0.00000000000E+00 0. -1.
          1    1    1    2  502    0 -0.19960537951E+02  0.44144152114E+02  0.51899971886E+01  0.48724381084E+02  0.00000000000E+00 0. -1.
         22    1    3    3    0    0  0.91510213943E+02  0.41037883247E+02 -0.87825602203E+02  0.13331002783E+03  0.00000000000E+00 0.  1.
         22    1    3    3    0    0 -0.22406937704E+02 -0.35770969088E+02 -0.47095330914E+02  0.63242416784E+02  0.00000000000E+00 0.  1.
</event>
<event>
 7    1  0.6152634E-006  0.3805159E+03  0.7818608E-02  0.1111341E+00
          2   -1    0    0  502    0  0.00000000000E+00  0.00000000000E+00  0.47491742506E+03  0.47491742506E+03  0.00000000000E+00 0. -1.
          1   -1    0    0  501    0 -0.00000000000E+00 -0.00000000000E+00 -0.45380018842E+04  0.45380018842E+04  0.00000000000E+00 0. -1.
         25    2    1    2    0    0 -0.86482994440E+02 -0.53155516923E+03 -0.39298609560E+03  0.67830197110E+03  0.12500114560E+03 0.  0.
          2    1    1    2  501    0  0.73050282996E+02  0.36369840563E+03 -0.39718089905E+04  0.39890950767E+04  0.00000000000E+00 0. -1.
          1    1    1    2  502    0  0.13432711445E+02  0.16785676361E+03  0.30171062689E+03  0.34552226151E+03  0.00000000000E+00 0. -1.
         22    1    3    3    0    0 -0.32123730592E+02 -0.35128420546E+03 -0.18708968426E+03  0.39929322187E+03  0.00000000000E+00 0. -1.
         22    1    3    3    0    0 -0.54359263849E+02 -0.18027096377E+03 -0.20589641135E+03  0.27900874923E+03  0.00000000000E+00 0. -1.
</event>
<event>
 7    1  0.6152634E-006  0.2934763E+02  0.7818608E-02  0.1668607E+00
          2   -1    0    0  502    0  0.00000000000E+00  0.00000000000E+00  0.14351676722E+04  0.14351676722E+04  0.00000000000E+00 0. -1.
          1   -1    0    0  501    0 -0.00000000000E+00 -0.00000000000E+00 -0.41834528548E+02  0.41834528548E+02  0.00000000000E+00 0. -1.
         25    2    1    2    0    0  0.71158141436E+01 -0.27984668684E+02  0.49704819570E+03  0.51333728543E+03  0.12499793309E+03 0.  0.
          2    1    1    2  501    0 -0.20357863404E+02  0.15564349564E+01 -0.30339110752E+02  0.36569478166E+02  0.00000000000E+00 0. -1.
          1    1    1    2  502    0  0.13242049260E+02  0.26428233728E+02  0.92662405871E+03  0.92709543715E+03  0.00000000000E+00 0. -1.
         22    1    3    3    0    0  0.17006570281E+02 -0.74213013577E+02  0.37062023447E+03  0.37835981950E+03  0.00000000000E+00 0.  1.
         22    1    3    3    0    0 -0.98907561375E+01  0.46228344893E+02  0.12642796123E+03  0.13497746593E+03  0.00000000000E+00 0.  1.
</event>
<event>
 7    1  0.6152634E-006  0.7018391E+02  0.7818608E-02  0.1469388E+00
          2   -1    0    0  502    0  0.00000000000E+00  0.00000000000E+00  0.70120831961E+03  0.70120831961E+03  0.00000000000E+00 0. -1.
          1   -1    0    0  501    0 -0.00000000000E+00 -0.00000000000E+00 -0.84426703512E+03  0.84426703512E+03  0.00000000000E+00 0. -1.
         25    2    1    2    0    0 -0.91548098248E+02  0.39448380629E+02 -0.37991244590E+03  0.41218288862E+03  0.12499615232E+03 0.  0.
          2    1    1    2  501    0  0.28584161655E+02 -0.87453904690E+01 -0.44592694470E+03  0.44692770798E+03  0.00000000000E+00 0. -1.
          1    1    1    2  502    0  0.62963936592E+02 -0.30702990160E+02  0.68278067509E+03  0.68636475812E+03  0.00000000000E+00 0. -1.
         22    1    3    3    0    0 -0.58739305598E+02  0.83689114117E+02 -0.28016220399E+03  0.29823654100E+03  0.00000000000E+00 0. -1.
         22    1    3    3    0    0 -0.32808792649E+02 -0.44240733488E+02 -0.99750241914E+02  0.11394634762E+03  0.00000000000E+00 0. -1.
</event>
<event>
 7    1  0.6152634E-006  0.8862514E+02  0.7818608E-02  0.1381076E+00
          2   -1    0    0  502    0  0.00000000000E+00  0.00000000000E+00  0.12725635536E+04  0.12725635536E+04  0.00000000000E+00 0. -1.
          1   -1    0    0  501    0 -0.00000000000E+00 -0.00000000000E+00 -0.43995457588E+03  0.43995457588E+03  0.00000000000E+00 0. -1.
         25    2    1    2    0    0  0.66589097161E+02 -0.33434243156E+01 -0.20841617967E+03  0.25200763347E+03  0.12500102812E+03 0.  0.
          2    1    1    2  501    0 -0.95014911093E+02  0.40118104538E+02 -0.19660101232E+03  0.22201183231E+03  0.00000000000E+00 0. -1.
          1    1    1    2  502    0  0.28425813932E+02 -0.36774680223E+02  0.12376261697E+04  0.12384986637E+04  0.00000000000E+00 0. -1.
         22    1    3    3    0    0  0.85760722037E+02  0.14717821974E+02 -0.71619019683E+02  0.11269782477E+03  0.00000000000E+00 0. -1.
         22    1    3    3    0    0 -0.19171624876E+02 -0.18061246290E+02 -0.13679715999E+03  0.13930980870E+03  0.00000000000E+00 0. -1.
</event>
<event>
 7    1  0.1095848E-005  0.1114134E+03  0.7818608E-02  0.1344378E+00
          2   -1    0    0  502    0  0.00000000000E+00  0.00000000000E+00  0.19089787831E+04  0.19089787831E+04  0.00000000000E+00 0. -1.
          1   -1    0    0  501    0 -0.00000000000E+00 -0.00000000000E+00 -0.10193690936E+04  0.10193690936E+04  0.00000000000E+00 0. -1.
         25    2    1    2    0    0  0.12128329455E+03  0.10465901833E+03 -0.23635002910E+03  0.31168881638E+03  0.12500173736E+03 0.  0.
          2    1    1    2  501    0 -0.43353739468E+02 -0.25442533039E+02 -0.74284981316E+03  0.74454866471E+03  0.00000000000E+00 0. -1.
          1    1    1    2  502    0 -0.77929555086E+02 -0.79216485291E+02  0.18688095318E+04  0.18721103956E+04  0.00000000000E+00 0. -1.
         22    1    3    3    0    0  0.10175200326E+03  0.60197514664E+02 -0.23505152742E+03  0.26310916267E+03  0.00000000000E+00 0.  1.
         22    1    3    3    0    0  0.19531291296E+02  0.44461503666E+02 -0.12985016852E+01  0.48579653709E+02  0.00000000000E+00 0.  1.
</event>
<event>
 7    1  0.6152634E-006  0.3185248E+02  0.7818608E-02  0.1608653E+00
          2   -1    0    0  502    0  0.00000000000E+00  0.00000000000E+00  0.56607727105E+03  0.56607727105E+03  0.00000000000E+00 0. -1.
          1   -1    0    0  501    0 -0.00000000000E+00 -0.00000000000E+00 -0.41060658197E+03  0.41060658197E+03  0.00000000000E+00 0. -1.
         25    2    1    2    0    0 -0.41868664116E+02 -0.18089530736E+02  0.87760721831E+02  0.15939141942E+03  0.12499385637E+03 0.  0.
          2    1    1    2  501    0  0.10715174465E+02  0.24261735527E+02 -0.37375083701E+03  0.37469071905E+03  0.00000000000E+00 0. -1.
          1    1    1    2  502    0  0.31153489651E+02 -0.61722047914E+01  0.44146080425E+03  0.44260171455E+03  0.00000000000E+00 0. -1.
         22    1    3    3    0    0  0.23865860491E+02 -0.20777049811E+02 -0.16822172950E+02  0.35836442326E+02  0.00000000000E+00 0.  1.
         22    1    3    3    0    0 -0.65734524607E+02  0.26875190745E+01  0.10458289478E+03  0.12355497709E+03  0.00000000000E+00 0.  1.
</event>
<event>
 7    1  0.6152634E-006  0.7121431E+02  0.7818608E-02  0.1488936E+00
          2   -1    0    0  502    0  0.00000000000E+00  0.00000000000E+00  0.21020123786E+04  0.21020123786E+04  0.00000000000E+00 0. -1.
          1   -1    0    0  501    0 -0.00000000000E+00 -0.00000000000E+00 -0.12550045286E+03  0.12550045286E+03  0.00000000000E+00 0. -1.
         25    2    1    2    0    0  0.16150037263E+02 -0.65350216507E+02  0.39866889421E+02  0.14746354166E+03  0.12499861097E+03 0.  0.
          2    1    1    2  501    0 -0.25081062498E+02 -0.54010454383E+01 -0.68752864398E+02  0.73383835759E+02  0.00000000000E+00 0. -1.
          1    1    1    2  502    0  0.89310252352E+01  0.70751261945E+02  0.20053979007E+04  0.20066654540E+04  0.00000000000E+00 0. -1.
         22    1    3    3    0    0 -0.10979095787E+02  0.21391215018E+02 -0.25853611117E+02  0.35306286013E+02  0.00000000000E+00 0.  1.
         22    1    3    3    0    0  0.27129133050E+02 -0.86741431525E+02  0.65720500538E+02  0.11215725565E+03  0.00000000000E+00 0.  1.
</event>
<event>
 7    1  0.6152634E-006  0.7718209E+02  0.7818608E-02  0.1345446E+00
          2   -1    0    0  502    0  0.00000000000E+00  0.00000000000E+00  0.13901058731E+03  0.13901058731E+03  0.00000000000E+00 0. -1.
          1   -1    0    0  501    0 -0.00000000000E+00 -0.00000000000E+00 -0.11415059450E+04  0.11415059450E+04  0.00000000000E+00 0. -1.
         25    2    1    2    0    0  0.19560820450E+02  0.44018492767E+02 -0.80942330850E+02  0.15651630734E+03  0.12500176054E+03 0.  0.
          2    1    1    2  501    0  0.64368428046E+02 -0.32033816332E+02 -0.10035097961E+04  0.10060821888E+04  0.00000000000E+00 0. -1.
          1    1    1    2  502    0 -0.83929248496E+02 -0.11984676435E+02  0.81956769218E+02  0.11791803612E+03  0.00000000000E+00 0. -1.
         22    1    3    3    0    0 -0.78593277734E+01  0.72819901457E+02 -0.83131988437E+01  0.73713067744E+02  0.00000000000E+00 0. -1.
         22    1    3    3    0    0  0.27420148223E+02 -0.28801408690E+02 -0.72629132007E+02  0.82803239594E+02  0.00000000000E+00 0. -1.
</event>
<event>
 7    1  0.6152634E-006  0.1088847E+03  0.7818608E-02  0.1299704E+00
          2   -1    0    0  502    0  0.00000000000E+00  0.00000000000E+00  0.31506556838E+03  0.31506556838E+03  0.00000000000E+00 0. -1.
          1   -1    0    0  501    0 -0.00000000000E+00 -0.00000000000E+00 -0.17754108976E+04  0.17754108976E+04  0.00000000000E+00 0. -1.
         25    2    1    2    0    0  0.39298237659E+02 -0.42721547831E+02  0.11790813675E+03  0.18137117733E+03  0.12499477237E+03 0.  0.
          2    1    1    2  501    0 -0.20395899784E+01  0.10962247936E+03 -0.17329912589E+04  0.17364561473E+04  0.00000000000E+00 0. -1.
          1    1    1    2  502    0 -0.37258647680E+02 -0.66900931528E+02  0.15473779292E+03  0.17264914140E+03  0.00000000000E+00 0. -1.
         22    1    3    3    0    0 -0.19166603284E+02 -0.58748011456E+01  0.11000125666E+03  0.11181300656E+03  0.00000000000E+00 0. -1.
         22    1    3    3    0    0  0.58464840942E+02 -0.36846746686E+02  0.79068800944E+01  0.69558170768E+02  0.00000000000E+00 0. -1.
</event>
<event>
 7    1  0.6152634E-006  0.9698304E+02  0.7818608E-02  0.1466774E+00
          2   -1    0    0  502    0  0.00000000000E+00  0.00000000000E+00  0.71323611961E+03  0.71323611961E+03  0.00000000000E+00 0. -1.
          1   -1    0    0  501    0 -0.00000000000E+00 -0.00000000000E+00 -0.49361533915E+03  0.49361533915E+03  0.00000000000E+00 0. -1.
         25    2    1    2    0    0 -0.66831758874E+02 -0.79773306889E+02  0.36912341398E+02  0.16677084942E+03  0.12497892136E+03 0.  0.
          2    1    1    2  501    0 -0.91939866399E+01  0.20032945576E+02 -0.42457566420E+03  0.42514743670E+03  0.00000000000E+00 0. -1.
          1    1    1    2  502    0  0.76025745514E+02  0.59740361313E+02  0.60728410326E+03  0.61493317265E+03  0.00000000000E+00 0. -1.
         22    1    3    3    0    0 -0.89751292523E+02 -0.43587367493E+02 -0.13426127041E+02  0.10067479328E+03  0.00000000000E+00 0.  1.
         22    1    3    3    0    0  0.22919533649E+02 -0.36185939396E+02  0.50338468440E+02  0.66096056142E+02  0.00000000000E+00 0.  1.
</event>
<event>
 7    1  0.6152634E-006  0.9685133E+02  0.7818608E-02  0.1318653E+00
          2   -1    0    0  502    0  0.00000000000E+00  0.00000000000E+00  0.11584917038E+04  0.11584917038E+04  0.00000000000E+00 0. -1.
          1   -1    0    0  501    0 -0.00000000000E+00 -0.00000000000E+00 -0.14661382898E+04  0.14661382898E+04  0.00000000000E+00 0. -1.
         25    2    1    2    0    0 -0.41311240407E+01 -0.10439055152E+03 -0.11589272617E+04  0.11703204974E+04  0.12499286079E+03 0.  0.
          2    1    1    2  501    0  0.69634679443E+02  0.73379499883E+02 -0.29184934026E+03  0.30888440718E+03  0.00000000000E+00 0. -1.
          1    1    1    2  502    0 -0.65503555403E+02  0.31011051636E+02  0.11431300160E+04  0.11454250891E+04  0.00000000000E+00 0. -1.
         22    1    3    3    0    0 -0.41902173140E+02  0.85714744832E+01 -0.36750775824E+03  0.36998812772E+03  0.00000000000E+00 0.  1.
         22    1    3    3    0    0  0.37771049099E+02 -0.11296202600E+03 -0.79141950344E+03  0.80033236964E+03  0.00000000000E+00 0.  1.
</event>
<event>
 7    1  0.6152634E-006  0.7932707E+02  0.7818608E-02  0.1482828E+00
          2   -1    0    0  502    0  0.00000000000E+00  0.00000000000E+00  0.14667767238E+04  0.14667767238E+04  0.00000000000E+00 0. -1.
          1   -1    0    0  501    0 -0.00000000000E+00 -0.00000000000E+00 -0.11450550305E+03  0.11450550305E+03  0.00000000000E+00 0. -1.
         25    2    1    2    0    0  0.10898487172E+02  0.69928369939E+02  0.22783008940E+03  0.26933349002E+03  0.12500090107E+03 0.  0.
          2    1    1    2  501    0  0.11227815550E+02 -0.79325364055E+02 -0.76496018848E+02  0.11077101662E+03  0.00000000000E+00 0. -1.
          1    1    1    2  502    0 -0.22126302722E+02  0.93969941167E+01  0.12009371502E+04  0.12011777202E+04  0.00000000000E+00 0. -1.
         22    1    3    3    0    0  0.12009836816E+02  0.28633853176E+01  0.19366714275E+03  0.19406029304E+03  0.00000000000E+00 0. -1.
         22    1    3    3    0    0 -0.11113496443E+01  0.67064984621E+02  0.34162946652E+02  0.75273196984E+02  0.00000000000E+00 0. -1.
</event>
<event>
 7    1  0.6152634E-006  0.1590523E+03  0.7818608E-02  0.1364504E+00
          2   -1    0    0  502    0  0.00000000000E+00  0.00000000000E+00  0.94480159085E+03  0.94480159085E+03  0.00000000000E+00 0. -1.
          1   -1    0    0  501    0 -0.00000000000E+00 -0.00000000000E+00 -0.83779706108E+02  0.83779706108E+02  0.00000000000E+00 0. -1.
         25    2    1    2    0    0 -0.37005144322E+01 -0.16166231744E+03  0.70201316697E+03  0.73116173123E+03  0.12500636751E+03 0.  0.
          2    1    1    2  501    0 -0.28247070460E+02  0.91440353816E+01 -0.36728805388E+02  0.47228333846E+02  0.00000000000E+00 0. -1.
          1    1    1    2  502    0  0.31947584892E+02  0.15251828206E+03  0.19573752316E+03  0.25019123189E+03  0.00000000000E+00 0. -1.
         22    1    3    3    0    0 -0.63679859086E+01 -0.19937408961E+02  0.73486653878E+01  0.22182299331E+02  0.00000000000E+00 0.  1.
         22    1    3    3    0    0  0.26674714764E+01 -0.14172490848E+03  0.69466450159E+03  0.70897943189E+03  0.00000000000E+00 0.  1.
</event>
<event>
 7    1  0.6152634E-006  0.7025645E+02  0.7818608E-02  0.1451050E+00
          2   -1    0    0  502    0  0.00000000000E+00  0.00000000000E+00  0.68566547397E+02  0.68566547397E+02  0.00000000000E+00 0. -1.
          1   -1    0    0  501    0 -0.00000000000E+00 -0.00000000000E+00 -0.57859639334E+03  0.57859639334E+03  0.00000000000E+00 0. -1.
         25    2    1    2    0    0  0.11653798897E+02 -0.42220639301E+02 -0.12736735953E+03  0.18375407412E+03  0.12499888828E+03 0.  0.
          2    1    1    2  501    0 -0.30659250512E+01 -0.33976749674E+02 -0.38517994357E+03  0.38668774010E+03  0.00000000000E+00 0. -1.
          1    1    1    2  502    0 -0.85878738461E+01  0.76197388974E+02  0.25174571556E+01  0.76721126518E+02  0.00000000000E+00 0. -1.
         22    1    3    3    0    0  0.99349512991E+01 -0.80982311179E+02 -0.11863631964E+03  0.14398407661E+03  0.00000000000E+00 0. -1.
         22    1    3    3    0    0  0.17188475982E+01  0.38761671878E+02 -0.87310398880E+01  0.39769997503E+02  0.00000000000E+00 0. -1.
</event>
<event>
 7    1  0.6152634E-006  0.6555536E+02  0.7818608E-02  0.1527599E+00
          2   -1    0    0  502    0  0.00000000000E+00  0.00000000000E+00  0.14787798334E+04  0.14787798334E+04  0.00000000000E+00 0. -1.
          1   -1    0    0  501    0 -0.00000000000E+00 -0.00000000000E+00 -0.46897638884E+03  0.46897638884E+03  0.00000000000E+00 0. -1.
         25    2    1    2    0    0  0.19353350804E+02 -0.63236670980E+02 -0.16738792362E+03  0.21912753470E+03  0.12499892298E+03 0.  0.
          2    1    1    2  501    0 -0.21307500717E+02 -0.23007078263E+01 -0.27456115007E+03  0.27539631075E+03  0.00000000000E+00 0. -1.
          1    1    1    2  502    0  0.19541499133E+01  0.65537378807E+02  0.14517525182E+04  0.14532323768E+04  0.00000000000E+00 0. -1.
         22    1    3    3    0    0  0.24156690667E+02 -0.98605916358E+02 -0.98041230592E+02  0.14113382068E+03  0.00000000000E+00 0. -1.
         22    1    3    3    0    0 -0.48033398637E+01  0.35369245378E+02 -0.69346693028E+02  0.77993714018E+02  0.00000000000E+00 0. -1.
</event>
<event>
 7    1  0.6152634E-006  0.4379774E+02  0.7818608E-02  0.1511201E+00
          2   -1    0    0  502    0  0.00000000000E+00  0.00000000000E+00  0.13562999344E+04  0.13562999344E+04  0.00000000000E+00 0. -1.
          1   -1    0    0  501    0 -0.00000000000E+00 -0.00000000000E+00 -0.11795939210E+02  0.11795939210E+02  0.00000000000E+00 0. -1.
         25    2    1    2    0    0  0.44889842454E+02 -0.85520032235E+01  0.75294766347E+03  0.76461998849E+03  0.12500123267E+03 0.  0.
          2    1    1    2  501    0 -0.20090292299E+02 -0.29629713954E+02  0.59242648873E+02  0.69218720294E+02  0.00000000000E+00 0. -1.
          1    1    1    2  502    0 -0.24799550155E+02  0.38181717178E+02  0.53231368285E+03  0.53425716482E+03  0.00000000000E+00 0. -1.
         22    1    3    3    0    0 -0.42126108056E+02  0.53102192956E+01  0.31932452293E+03  0.32213500020E+03  0.00000000000E+00 0. -1.
         22    1    3    3    0    0  0.87015950510E+02 -0.13862222519E+02  0.43362314053E+03  0.44248498829E+03  0.00000000000E+00 0. -1.
</event>
<event>
 7    1  0.6152634E-006  0.2296250E+02  0.7818608E-02  0.1710091E+00
          2   -1    0    0  502    0  0.00000000000E+00  0.00000000000E+00  0.14054363163E+02  0.14054363163E+02  0.00000000000E+00 0. -1.
          1   -1    0    0  501    0 -0.00000000000E+00 -0.00000000000E+00 -0.90553650836E+03  0.90553650836E+03  0.00000000000E+00 0. -1.
         25    2    1    2    0    0  0.14673216969E+02  0.34602957171E+02 -0.43141421203E+03  0.45072795251E+03  0.12499918757E+03 0.  0.
          2    1    1    2  501    0 -0.17836011932E+02 -0.13968612858E+02 -0.43762959495E+03  0.43821559516E+03  0.00000000000E+00 0. -1.
          1    1    1    2  502    0  0.31627949631E+01 -0.20634344314E+02 -0.22438338219E+02  0.30647323852E+02  0.00000000000E+00 0. -1.
         22    1    3    3    0    0 -0.49557601364E+02  0.32190526513E+02 -0.28115494149E+03  0.28729825439E+03  0.00000000000E+00 0.  1.
         22    1    3    3    0    0  0.64230818333E+02  0.24124306587E+01 -0.15025927054E+03  0.16342969812E+03  0.00000000000E+00 0.  1.
</event>
<event>
 7    1  0.6152634E-006  0.7452714E+02  0.7818608E-02  0.1381815E+00
          2   -1    0    0  502    0  0.00000000000E+00  0.00000000000E+00  0.41826650427E+03  0.41826650427E+03  0.00000000000E+00 0. -1.
          1   -1    0    0  501    0 -0.00000000000E+00 -0.00000000000E+00 -0.23989235472E+04  0.23989235472E+04  0.00000000000E+00 0. -1.
         25    2    1    2    0    0 -0.54128183407E+02 -0.67703796377E+01  0.36824810358E+02  0.14126927893E+03  0.12500097692E+03 0.  0.
          2    1    1    2  501    0  0.57270077285E+02 -0.48080954273E+02 -0.23438086842E+04  0.23450012341E+04  0.00000000000E+00 0. -1.
          1    1    1    2  502    0 -0.31418938781E+01  0.54851333910E+02  0.32632683091E+03  0.33091953841E+03  0.00000000000E+00 0. -1.
         22    1    3    3    0    0 -0.89337191091E+02 -0.13256321861E+01  0.51054637232E+02  0.10290513590E+03  0.00000000000E+00 0.  1.
         22    1    3    3    0    0  0.35209007684E+02 -0.54447474516E+01 -0.14229826873E+02  0.38364143021E+02  0.00000000000E+00 0.  1.
</event>
<event>
 7    1  0.6152634E-006  0.1279431E+03  0.7818608E-02  0.1298411E+00
          2   -1    0    0  502    0  0.00000000000E+00  0.00000000000E+00  0.29127124789E+04  0.29127124789E+04  0.00000000000E+00 0. -1.
          1   -1    0    0  501    0 -0.00000000000E+00 -0.00000000000E+00 -0.22239750062E+03  0.22239750062E+03  0.00000000000E+00 0. -1.
         25    2    1    2    0    0 -0.11923016203E+03 -0.13683227686E+02  0.16091528895E+03  0.23647842480E+03  0.12500101168E+03 0.  0.
          2    1    1    2  501    0  0.16282353296E+02 -0.63910393830E+02 -0.17714222637E+03  0.18902122058E+03  0.00000000000E+00 0. -1.
          1    1    1    2  502    0  0.10294780873E+03  0.77593621516E+02  0.27065419157E+04  0.27096103342E+04  0.00000000000E+00 0. -1.
         22    1    3    3    0    0 -0.11336903493E+03 -0.44280084700E+01  0.48262150564E+02  0.12329387867E+03  0.00000000000E+00 0. -1.
         22    1    3    3    0    0 -0.58611270918E+01 -0.92552192159E+01  0.11265313839E+03  0.11318454613E+03  0.00000000000E+00 0. -1.
</event>
<event>
 7    1  0.6152634E-006  0.1136343E+03  0.7818608E-02  0.1333025E+00
          2   -1    0    0  502    0  0.00000000000E+00  0.00000000000E+00  0.52203491757E+03  0.52203491757E+03  0.00000000000E+00 0. -1.
          1   -1    0    0  501    0 -0.00000000000E+00 -0.00000000000E+00 -0.21624475903E+04  0.21624475903E+04  0.00000000000E+00 0. -1.
         25    2    1    2    0    0 -0.99679796019E+02  0.22027451474E+02 -0.87603482561E+03  0.89077672122E+03  0.12499952413E+03 0.  0.
          2    1    1    2  501    0  0.94427407933E+02 -0.76162537209E+02 -0.12747169030E+04  0.12804766496E+04  0.00000000000E+00 0. -1.
          1    1    1    2  502    0  0.52523880861E+01  0.54135085735E+02  0.51033905590E+03  0.51322913700E+03  0.00000000000E+00 0. -1.
         22    1    3    3    0    0 -0.49346110614E+02  0.25371122152E+01 -0.77194410070E+03  0.77352386530E+03  0.00000000000E+00 0.  1.
         22    1    3    3    0    0 -0.50333685404E+02  0.19490339259E+02 -0.10409072491E+03  0.11725285592E+03  0.00000000000E+00 0.  1.
</event>
<event>
 7    1  0.6152634E-006  0.1688904E+03  0.7818608E-02  0.1244370E+00
          2   -1    0    0  502    0  0.00000000000E+00  0.00000000000E+00  0.49050288477E+03  0.49050288477E+03  0.00000000000E+00 0. -1.
          1   -1    0    0  501    0 -0.00000000000E+00 -0.00000000000E+00 -0.77675957928E+03  0.77675957928E+03  0.00000000000E+00 0. -1.
         25    2    1    2    0    0  0.36198010462E+02 -0.15946448152E+03 -0.29384561571E+03  0.35876043519E+03  0.12499834861E+03 0.  0.
          2    1    1    2  501    0 -0.84089102169E+02 -0.37762372923E+01 -0.43044225691E+03  0.43859522752E+03  0.00000000000E+00 0. -1.
          1    1    1    2  502    0  0.47891091706E+02  0.16324071881E+03  0.43803117811E+03  0.46990680134E+03  0.00000000000E+00 0. -1.
         22    1    3    3    0    0 -0.44450766195E+02 -0.78494569615E+02 -0.10958403743E+03  0.14193635664E+03  0.00000000000E+00 0. -1.
         22    1    3    3    0    0  0.80648776658E+02 -0.80969911905E+02 -0.18426157828E+03  0.21682407855E+03  0.00000000000E+00 0. -1.
</event>
<event>
 7    1  0.6152634E-006  0.1159963E+03  0.7818608E-02  0.1334096E+00
          2   -1    0    0  502    0  0.00000000000E+00  0.00000000000E+00  0.13900115967E+04  0.13900115967E+04  0.00000000000E+00 0. -1.
          1   -1    0    0  501    0 -0.00000000000E+00 -0.00000000000E+00 -0.61743065670E+02  0.61743065670E+02  0.00000000000E+00 0. -1.
         25    2    1    2    0    0 -0.81157161649E+02  0.10018463420E+03  0.21062827024E+03  0.27679108554E+03  0.12500236395E+03 0.  0.
          2    1    1    2  501    0  0.51471720437E+02  0.11701178394E+02  0.14685574082E+01  0.52805418675E+02  0.00000000000E+00 0. -1.
          1    1    1    2  502    0  0.29685441212E+02 -0.11188581260E+03  0.11161717034E+04  0.11221581582E+04  0.00000000000E+00 0. -1.
         22    1    3    3    0    0  0.83628619862E+00 -0.27374182476E+02  0.40521546395E+02  0.48908495817E+02  0.00000000000E+00 0.  1.
         22    1    3    3    0    0 -0.81993447848E+02  0.12755881668E+03  0.17010672385E+03  0.22788258973E+03  0.00000000000E+00 0.  1.
</event>
<event>
 7    1  0.6152634E-006  0.5555228E+02  0.7818608E-02  0.1497953E+00
          2   -1    0    0  502    0  0.00000000000E+00  0.00000000000E+00  0.21920219661E+03  0.21920219661E+03  0.00000000000E+00 0. -1.
          1   -1    0    0  501    0 -0.00000000000E+00 -0.00000000000E+00 -0.47956757025E+03  0.47956757025E+03  0.00000000000E+00 0. -1.
         25    2    1    2    0    0  0.64421128178E+02  0.51118452185E+02  0.58070949475E+02  0.16049738429E+03  0.12499598906E+03 0.  0.
          2    1    1    2  501    0 -0.34633537230E+02 -0.42917064766E+02 -0.42436323392E+03  0.42793166587E+03  0.00000000000E+00 0. -1.
          1    1    1    2  502    0 -0.29787590949E+02 -0.82013874195E+01  0.10592691080E+03  0.11034071670E+03  0.00000000000E+00 0. -1.
         22    1    3    3    0    0 -0.16345144985E+02 -0.13403999323E+02 -0.21419710813E+02  0.30093769684E+02  0.00000000000E+00 0. -1.
         22    1    3    3    0    0  0.80766273164E+02  0.64522451509E+02  0.79490660289E+02  0.13040361461E+03  0.00000000000E+00 0. -1.
</event>
<event>
 7    1  0.6152634E-006  0.5010848E+02  0.7818608E-02  0.1503932E+00
          2   -1    0    0  502    0  0.00000000000E+00  0.00000000000E+00  0.73371020159E+03  0.73371020159E+03  0.00000000000E+00 0. -1.
          1   -1    0    0  501    0 -0.00000000000E+00 -0.00000000000E+00 -0.41933644911E+03  0.41933644911E+03  0.00000000000E+00 0. -1.
         25    2    1    2    0    0  0.51580982035E+02  0.18276868067E+02  0.36927213707E+03  0.39367407829E+03  0.12499090800E+03 0.  0.
          2    1    1    2  501    0 -0.48018248984E+02  0.14405194078E+02 -0.40481880712E+03  0.40791117716E+03  0.00000000000E+00 0. -1.
          1    1    1    2  502    0 -0.35627330510E+01 -0.32682062145E+02  0.34992042253E+03  0.35146139526E+03  0.00000000000E+00 0. -1.
         22    1    3    3    0    0  0.38214128280E+02 -0.41755928851E+02  0.27740006739E+03  0.28311600905E+03  0.00000000000E+00 0. -1.
         22    1    3    3    0    0  0.13366853755E+02  0.60032796918E+02  0.91872069688E+02  0.11055806924E+03  0.00000000000E+00 0. -1.
</event>
<event>
 7    1  0.6152634E-006  0.8056289E+02  0.7818608E-02  0.1345398E+00
          2   -1    0    0  502    0  0.00000000000E+00  0.00000000000E+00  0.69997132813E+03  0.69997132813E+03  0.00000000000E+00 0. -1.
          1   -1    0    0  501    0 -0.00000000000E+00 -0.00000000000E+00 -0.74801260973E+03  0.74801260973E+03  0.00000000000E+00 0. -1.
         25    2    1    2    0    0 -0.11564314753E+03  0.46389977469E+02 -0.30113198536E+03  0.34904289526E+03  0.12500041020E+03 0.  0.
          2    1    1    2  501    0  0.36215436034E+02 -0.58626673953E+02 -0.41770367783E+03  0.42334974569E+03  0.00000000000E+00 0. -1.
          1    1    1    2  502    0  0.79427711493E+02  0.12236696484E+02  0.67079438158E+03  0.67559129691E+03  0.00000000000E+00 0. -1.
         22    1    3    3    0    0 -0.53442909709E+02  0.79803908924E+02 -0.22792178271E+03  0.24733205921E+03  0.00000000000E+00 0. -1.
         22    1    3    3    0    0 -0.62200237818E+02 -0.33413931455E+02 -0.73210202644E+02  0.10171083606E+03  0.00000000000E+00 0. -1.
</event>
<event>
 7    1  0.6152634E-006  0.8552217E+03  0.7818608E-02  0.1186051E+00
          2   -1    0    0  502    0  0.00000000000E+00  0.00000000000E+00  0.49169884913E+03  0.49169884913E+03  0.00000000000E+00 0. -1.
          1   -1    0    0  501    0 -0.00000000000E+00 -0.00000000000E+00 -0.27386308385E+04  0.27386308385E+04  0.00000000000E+00 0. -1.
         25    2    1    2    0    0 -0.84885626705E+03  0.18554331877E+03 -0.14625407421E+04  0.17057654918E+04  0.12500882077E+03 0.  0.
          2    1    1    2  501    0  0.81848994554E+03 -0.18024211677E+03 -0.10011371618E+04  0.13056372499E+04  0.00000000000E+00 0. -1.
          1    1    1    2  502    0  0.30366321505E+02 -0.53012020012E+01  0.21674591451E+03  0.21892694599E+03  0.00000000000E+00 0. -1.
         22    1    3    3    0    0 -0.67469079903E+03  0.17910524237E+03 -0.12413574971E+04  0.14241681073E+04  0.00000000000E+00 0.  1.
         22    1    3    3    0    0 -0.17416546801E+03  0.64380764070E+01 -0.22118324500E+03  0.28159738448E+03  0.00000000000E+00 0.  1.
</event>
<event>
 7    1  0.6152634E-006  0.1480283E+03  0.7818608E-02  0.1353914E+00
          2   -1    0    0  502    0  0.00000000000E+00  0.00000000000E+00  0.46415079256E+03  0.46415079256E+03  0.00000000000E+00 0. -1.
          1   -1    0    0  501    0 -0.00000000000E+00 -0.00000000000E+00 -0.37957586184E+03  0.37957586184E+03  0.00000000000E+00 0. -1.
         25    2    1    2    0    0 -0.47043042711E+02 -0.16240584760E+03  0.62985230300E+02  0.21950223282E+03  0.12500153509E+03 0.  0.
          2    1    1    2  501    0 -0.13991039220E+02  0.31944548263E+02 -0.28413670869E+03  0.28626888159E+03  0.00000000000E+00 0. -1.
          1    1    1    2  502    0  0.61034081931E+02  0.13046129934E+03  0.30572640911E+03  0.33795553999E+03  0.00000000000E+00 0. -1.
         22    1    3    3    0    0 -0.80909424575E+02 -0.95033442902E+02  0.71133033160E+02  0.14365792238E+03  0.00000000000E+00 0.  1.
         22    1    3    3    0    0  0.33866381864E+02 -0.67372404700E+02 -0.81478028603E+01  0.75844310446E+02  0.00000000000E+00 0.  1.
</event>
<event>
 7    1  0.6152634E-006  0.1136946E+03  0.7818608E-02  0.1380914E+00
          2   -1    0    0  502    0  0.00000000000E+00  0.00000000000E+00  0.10164488249E+03  0.10164488249E+03  0.00000000000E+00 0. -1.
          1   -1    0    0  501    0 -0.00000000000E+00 -0.00000000000E+00 -0.11987981340E+04  0.11987981340E+04  0.00000000000E+00 0. -1.
         25    2    1    2    0    0  0.11465430443E+03 -0.87713446936E+02 -0.33276791035E+03  0.38366646521E+03  0.12500486421E+03 0.  0.
          2    1    1    2  501    0 -0.20792793334E+02  0.29729270504E+02 -0.80001605638E+03  0.80083822352E+03  0.00000000000E+00 0. -1.
          1    1    1    2  502    0 -0.93861511101E+02  0.57984176431E+02  0.35630715193E+02  0.11593832778E+03  0.00000000000E+00 0. -1.
         22    1    3    3    0    0 -0.82490697541E+01 -0.60112097127E+02 -0.72658708285E+02  0.94661498311E+02  0.00000000000E+00 0. -1.
         22    1    3    3    0    0  0.12290337419E+03 -0.27601349809E+02 -0.26010920206E+03  0.28900496690E+03  0.00000000000E+00 0. -1.
</event>
<event>
 7    1  0.6152634E-006  0.1355612E+03  0.7818608E-02  0.1433397E+00
          2   -1    0    0  502    0  0.00000000000E+00  0.00000000000E+00  0.12329127439E+04  0.12329127439E+04  0.00000000000E+00 0. -1.
          1   -1    0    0  501    0 -0.00000000000E+00 -0.00000000000E+00 -0.58237320582E+03  0.58237320582E+03  0.00000000000E+00 0. -1.
         25    2    1    2    0    0  0.10740740545E+03  0.60412521945E+02 -0.36541159162E+03  0.40538287903E+03  0.12499449494E+03 0.  0.
          2    1    1    2  501    0  0.18112052210E+02 -0.88652937511E+01 -0.19265307300E+03  0.19370556627E+03  0.00000000000E+00 0. -1.
          1    1    1    2  502    0 -0.12551945766E+03 -0.51547228194E+02  0.12086042027E+04  0.12161975044E+04  0.00000000000E+00 0. -1.
         22    1    3    3    0    0  0.11093748840E+03  0.87614496509E+02 -0.25444980498E+03  0.29108096740E+03  0.00000000000E+00 0.  1.
         22    1    3    3    0    0 -0.35300829511E+01 -0.27201974564E+02 -0.11096178665E+03  0.11430191163E+03  0.00000000000E+00 0.  1.
</event>
<event>
 7    1  0.6152634E-006  0.9901905E+02  0.7818608E-02  0.1295495E+00
          2   -1    0    0  502    0  0.00000000000E+00  0.00000000000E+00  0.10783230987E+04  0.10783230987E+04  0.00000000000E+00 0. -1.
          1   -1    0    0  501    0 -0.00000000000E+00 -0.00000000000E+00 -0.68861543015E+02  0.68861543015E+02  0.00000000000E+00 0. -1.
         25    2    1    2    0    0  0.48389947719E+02 -0.59385749705E+01  0.41147787859E+03  0.43279994903E+03  0.12499959040E+03 0.  0.
          2    1    1    2  501    0  0.57773214193E+01 -0.98850368173E+02 -0.57972449747E+01  0.99188612149E+02  0.00000000000E+00 0. -1.
          1    1    1    2  502    0 -0.54167269138E+02  0.10478894314E+03  0.60378092207E+03  0.61519608054E+03  0.00000000000E+00 0. -1.
         22    1    3    3    0    0  0.71392412254E+02 -0.36972199111E+02  0.16764913453E+03  0.18593023515E+03  0.00000000000E+00 0. -1.
         22    1    3    3    0    0 -0.23002464535E+02  0.31033624140E+02  0.24382874406E+03  0.24686971388E+03  0.00000000000E+00 0. -1.
</event>
<event>
 7    1  0.6152634E-006  0.4722566E+02  0.7818608E-02  0.1464358E+00
          2   -1    0    0  502    0  0.00000000000E+00  0.00000000000E+00  0.52872975368E+03  0.52872975368E+03  0.00000000000E+00 0. -1.
          1   -1    0    0  501    0 -0.00000000000E+00 -0.00000000000E+00 -0.14577176730E+04  0.14577176730E+04  0.00000000000E+00 0. -1.
         25    2    1    2    0    0 -0.11079220293E+02 -0.67902663769E+02 -0.14908281351E+03  0.20636496487E+03  0.12500916996E+03 0.  0.
          2    1    1    2  501    0 -0.25376319686E+02  0.39749596975E+02 -0.12784975130E+04  0.12793669837E+04  0.00000000000E+00 0. -1.
          1    1    1    2  502    0  0.36455539979E+02  0.28153066794E+02  0.49859240719E+03  0.50071547817E+03  0.00000000000E+00 0. -1.
         22    1    3    3    0    0 -0.33419561161E+02  0.23806301784E+01 -0.12403279350E+03  0.12847827962E+03  0.00000000000E+00 0. -1.
         22    1    3    3    0    0  0.22340340868E+02 -0.70283293948E+02 -0.25050020007E+02  0.77886685259E+02  0.00000000000E+00 0. -1.
</event>
<event>
 7    1  0.6152634E-006  0.1475639E+03  0.7818608E-02  0.1317609E+00
          2   -1    0    0  502    0  0.00000000000E+00  0.00000000000E+00  0.41036522123E+03  0.41036522123E+03  0.00000000000E+00 0. -1.
          1   -1    0    0  501    0 -0.00000000000E+00 -0.00000000000E+00 -0.45387033907E+03  0.45387033907E+03  0.00000000000E+00 0. -1.
         25    2    1    2    0    0  0.11684262804E+03  0.24616111309E+02 -0.38737334366E+02  0.17715140037E+03  0.12499553958E+03 0.  0.
          2    1    1    2  501    0 -0.14048835758E+03 -0.66404091183E+02 -0.32660412462E+03  0.36168596345E+03  0.00000000000E+00 0. -1.
          1    1    1    2  502    0  0.23645729536E+02  0.41787979874E+02  0.32183634115E+03  0.32539819648E+03  0.00000000000E+00 0. -1.
         22    1    3    3    0    0  0.39122353655E+02 -0.63256096592E+01  0.44191755025E+02  0.59358934502E+02  0.00000000000E+00 0. -1.
         22    1    3    3    0    0  0.77720274388E+02  0.30941720968E+02 -0.82929089391E+02  0.11779246587E+03  0.00000000000E+00 0. -1.
</event>
<event>
 7    1  0.6152634E-006  0.8682206E+02  0.7818608E-02  0.1333095E+00
          2   -1    0    0  502    0  0.00000000000E+00  0.00000000000E+00  0.12455188513E+04  0.12455188513E+04  0.00000000000E+00 0. -1.
          1   -1    0    0  501    0 -0.00000000000E+00 -0.00000000000E+00 -0.57010389673E+03  0.57010389673E+03  0.00000000000E+00 0. -1.
         25    2    1    2    0    0  0.49274364842E+02 -0.12008635733E+03  0.62288246251E+03  0.64842340552E+03  0.12498661716E+03 0.  0.
          2    1    1    2  501    0 -0.69461807820E+02  0.51868713798E+02 -0.55186337341E+03  0.55863090599E+03  0.00000000000E+00 0. -1.
          1    1    1    2  502    0  0.20187442978E+02  0.68217643530E+02  0.60439586545E+03  0.60856843651E+03  0.00000000000E+00 0. -1.
         22    1    3    3    0    0  0.78690233670E+02 -0.52784069661E+02  0.23033286414E+03  0.24906131612E+03  0.00000000000E+00 0.  1.
         22    1    3    3    0    0 -0.29415868828E+02 -0.67302287666E+02  0.39254959837E+03  0.39936208940E+03  0.00000000000E+00 0.  1.
</event>
<event>
 7    1  0.6152634E-006  0.1373561E+03  0.7818608E-02  0.1259775E+00
          2   -1    0    0  502    0  0.00000000000E+00  0.00000000000E+00  0.33471137176E+03  0.33471137176E+03  0.00000000000E+00 0. -1.
          1   -1    0    0  501    0 -0.00000000000E+00 -0.00000000000E+00 -0.13763377175E+04  0.13763377175E+04  0.00000000000E+00 0. -1.
         25    2    1    2    0    0 -0.40809792233E+02  0.14065222081E+03 -0.60470509569E+03  0.63461978445E+03  0.12500212679E+03 0.  0.
          2    1    1    2  501    0 -0.47699894117E+02 -0.13369550822E+03 -0.74366709810E+03  0.75709346954E+03  0.00000000000E+00 0. -1.
          1    1    1    2  502    0  0.88509686350E+02 -0.69567125953E+01  0.30674584803E+03  0.31933583530E+03  0.00000000000E+00 0. -1.
         22    1    3    3    0    0  0.18760406666E+02  0.12971840575E+03 -0.38381900167E+03  0.40558087195E+03  0.00000000000E+00 0. -1.
         22    1    3    3    0    0 -0.59570198898E+02  0.10933815065E+02 -0.22088609402E+03  0.22903891250E+03  0.00000000000E+00 0. -1.
</event>
<event>
 7    1  0.6152634E-006  0.1265181E+03  0.7818608E-02  0.1393373E+00
          2   -1    0    0  502    0  0.00000000000E+00  0.00000000000E+00  0.21535853162E+04  0.21535853162E+04  0.00000000000E+00 0. -1.
          1   -1    0    0  501    0 -0.00000000000E+00 -0.00000000000E+00 -0.16729195209E+03  0.16729195209E+03  0.00000000000E+00 0. -1.
         25    2    1    2    0    0 -0.86960114123E+02  0.12689333345E+03  0.22971877054E+03  0.30341340547E+03  0.12500000625E+03 0.  0.
          2    1    1    2  501    0  0.11819502701E+02 -0.27010915227E+02 -0.12668013041E+03  0.13006592800E+03  0.00000000000E+00 0. -1.
          1    1    1    2  502    0  0.75140611422E+02 -0.99882418223E+02  0.18832547240E+04  0.18873979348E+04  0.00000000000E+00 0. -1.
         22    1    3    3    0    0 -0.46234744775E+02  0.13187017034E+03  0.22099277421E+03  0.26146739701E+03  0.00000000000E+00 0.  1.
         22    1    3    3    0    0 -0.40725369347E+02 -0.49768368875E+01  0.87259963288E+01  0.41946008461E+02  0.00000000000E+00 0.  1.
</event>
<event>
 7    1  0.6152634E-006  0.8933157E+02  0.7818608E-02  0.1470877E+00
          2   -1    0    0  502    0  0.00000000000E+00  0.00000000000E+00  0.15655691890E+04  0.15655691890E+04  0.00000000000E+00 0. -1.
          1   -1    0    0  501    0 -0.00000000000E+00 -0.00000000000E+00 -0.43127211196E+03  0.43127211196E+03  0.00000000000E+00 0. -1.
         25    2    1    2    0    0 -0.71472575559E+02 -0.18117895124E+02  0.17395408170E+03  0.22654140653E+03  0.12499759659E+03 0.  0.
          2    1    1    2  501    0  0.80607069815E+02  0.39482951301E+02 -0.39990465589E+03  0.40985379948E+03  0.00000000000E+00 0. -1.
          1    1    1    2  502    0 -0.91344942556E+01 -0.21365056177E+02  0.13602476512E+04  0.13604460949E+04  0.00000000000E+00 0. -1.
         22    1    3    3    0    0 -0.18207824409E+02  0.36586103741E+00 -0.18523317569E+02  0.25976374223E+02  0.00000000000E+00 0.  1.
         22    1    3    3    0    0 -0.53264751150E+02 -0.18483756162E+02  0.19247739927E+03  0.20056503231E+03  0.00000000000E+00 0.  1.
</event>
<event>
 7    1  0.6152634E-006  0.9586442E+02  0.7818608E-02  0.1324270E+00
          2   -1    0    0  502    0  0.00000000000E+00  0.00000000000E+00  0.20495350374E+04  0.20495350374E+04  0.00000000000E+00 0. -1.
          1   -1    0    0  501    0 -0.00000000000E+00 -0.00000000000E+00 -0.77516001400E+03  0.77516001400E+03  0.00000000000E+00 0. -1.
         25    2    1    2    0    0  0.14338994603E+03 -0.80620197672E+02  0.29277430601E+03  0.35833066847E+03  0.12499512315E+03 0.  0.
          2    1    1    2  501    0 -0.85527145187E+02  0.41862117487E+02 -0.73862086814E+03  0.74473358747E+03  0.00000000000E+00 0. -1.
          1    1    1    2  502    0 -0.57862800848E+02  0.38758080185E+02  0.17202215855E+04  0.17216307954E+04  0.00000000000E+00 0. -1.
         22    1    3    3    0    0  0.48330420726E+02  0.18843379460E+02  0.15571533464E+03  0.16412851050E+03  0.00000000000E+00 0. -1.
         22    1    3    3    0    0  0.95059525309E+02 -0.99463577132E+02  0.13705897137E+03  0.19420215797E+03  0.00000000000E+00 0. -1.
</event>
<event>
 7    1  0.6152634E-006  0.2803040E+02  0.7818608E-02  0.1661634E+00
          2   -1    0    0  502    0  0.00000000000E+00  0.00000000000E+00  0.28886471264E+03  0.28886471264E+03  0.00000000000E+00 0. -1.
          1   -1    0    0  501    0 -0.00000000000E+00 -0.00000000000E+00 -0.20633301321E+03  0.20633301321E+03  0.00000000000E+00 0. -1.
         25    2    1    2    0    0 -0.24716517127E+01  0.70944396097E+01  0.39335351760E+02  0.13125873239E+03  0.12500057918E+03 0.  0.
          2    1    1    2  501    0 -0.18741142076E+02  0.11935285804E+02 -0.15859573819E+03  0.16014458975E+03  0.00000000000E+00 0. -1.
          1    1    1    2  502    0  0.21212793789E+02 -0.19029725413E+02  0.20179208586E+03  0.20379440371E+03  0.00000000000E+00 0. -1.
         22    1    3    3    0    0 -0.45678846037E+01 -0.31899331539E+02  0.72939157939E+02  0.79740539772E+02  0.00000000000E+00 0.  1.
         22    1    3    3    0    0  0.20962328910E+01  0.38993771149E+02 -0.33603806179E+02  0.51518192616E+02  0.00000000000E+00 0.  1.
</event>
<event>
 7    1  0.6152634E-006  0.8137080E+02  0.7818608E-02  0.1345732E+00
          2   -1    0    0  502    0  0.00000000000E+00  0.00000000000E+00  0.18311496333E+04  0.18311496333E+04  0.00000000000E+00 0. -1.
          1   -1    0    0  501    0 -0.00000000000E+00 -0.00000000000E+00 -0.14698175665E+03  0.14698175665E+03  0.00000000000E+00 0. -1.
         25    2    1    2    0    0  0.27048941276E+02 -0.35878357148E+01  0.19577160434E+02  0.12943258298E+03  0.12500004215E+03 0.  0.
          2    1    1    2  501    0 -0.94022887756E+01  0.83022103948E+02 -0.71943910994E+02  0.11025878245E+03  0.00000000000E+00 0. -1.
          1    1    1    2  502    0 -0.17646652500E+02 -0.79434268233E+02  0.17365346272E+04  0.17384400245E+04  0.00000000000E+00 0. -1.
         22    1    3    3    0    0 -0.32590731048E+02  0.41597631656E+02  0.12290400040E+02  0.54254701573E+02  0.00000000000E+00 0.  1.
         22    1    3    3    0    0  0.59639672324E+02 -0.45185467371E+02  0.72867603937E+01  0.75177881411E+02  0.00000000000E+00 0.  1.
</event>
<event>
 7    1  0.6152634E-006  0.4244469E+02  0.7818608E-02  0.1522603E+00
          2   -1    0    0  502    0  0.00000000000E+00  0.00000000000E+00  0.19588312577E+04  0.19588312577E+04  0.00000000000E+00 0. -1.
          1   -1    0    0  501    0 -0.00000000000E+00 -0.00000000000E+00 -0.23296236811E+02  0.23296236811E+02  0.00000000000E+00 0. -1.
         25    2    1    2    0    0  0.60287559476E+02 -0.94942461112E-02  0.61865304492E+03  0.63402691357E+03  0.12499578886E+03 0.  0.
          2    1    1    2  501    0 -0.35099627840E+02  0.23169391787E+02  0.13357948172E+02  0.44127535278E+02  0.00000000000E+00 0. -1.
          1    1    1    2  502    0 -0.25187931636E+02 -0.23159897541E+02  0.13035240278E+04  0.13039730457E+04  0.00000000000E+00 0. -1.
         22    1    3    3    0    0 -0.57746963948E+01 -0.53348157915E+02  0.22287125522E+03  0.22923998228E+03  0.00000000000E+00 0. -1.
         22    1    3    3    0    0  0.66062255871E+02  0.53338663669E+02  0.39578178970E+03  0.40478693130E+03  0.00000000000E+00 0. -1.
</event>
<event>
 7    1  0.6152634E-006  0.8457933E+02  0.7818608E-02  0.1416103E+00
          2   -1    0    0  502    0  0.00000000000E+00  0.00000000000E+00  0.79723333621E+03  0.79723333621E+03  0.00000000000E+00 0. -1.
          1   -1    0    0  501    0 -0.00000000000E+00 -0.00000000000E+00 -0.38574676051E+03  0.38574676051E+03  0.00000000000E+00 0. -1.
         25    2    1    2    0    0 -0.56217523106E+02  0.10500111364E+03  0.29009935364E+02  0.17507711529E+03  0.12499910471E+03 0.  0.
          2    1    1    2  501    0  0.23874684838E+02 -0.28115157143E+02 -0.30911078588E+03  0.31130361480E+03  0.00000000000E+00 0. -1.
          1    1    1    2  502    0  0.32342838268E+02 -0.76885956496E+02  0.69158742622E+03  0.69659936664E+03  0.00000000000E+00 0. -1.
         22    1    3    3    0    0 -0.30478752123E+02  0.96764042064E+02 -0.33611150234E+02  0.10687349338E+03  0.00000000000E+00 0. -1.
         22    1    3    3    0    0 -0.25738770983E+02  0.82370715749E+01  0.62621085598E+02  0.68203621907E+02  0.00000000000E+00 0. -1.
</event>
<event>
 7    1  0.6152634E-006  0.1317306E+03  0.7818608E-02  0.1366826E+00
          2   -1    0    0  502    0  0.00000000000E+00  0.00000000000E+00  0.13057119638E+04  0.13057119638E+04  0.00000000000E+00 0. -1.
          1   -1    0    0  501    0 -0.00000000000E+00 -0.00000000000E+00 -0.20981935637E+03  0.20981935637E+03  0.00000000000E+00 0. -1.
         25    2    1    2    0    0  0.13042563234E+03  0.83122876412E+02 -0.18336690434E+02  0.19970364512E+03  0.12500021401E+03 0.  0.
          2    1    1    2  501    0 -0.95958018580E+02 -0.76173482006E+02 -0.63211239547E+02  0.13786225552E+03  0.00000000000E+00 0. -1.
          1    1    1    2  502    0 -0.34467613759E+02 -0.69493944061E+01  0.11774405375E+04  0.11779654196E+04  0.00000000000E+00 0. -1.
         22    1    3    3    0    0  0.79432745289E+02  0.64477289776E+02  0.48807710225E+02  0.11335375820E+03  0.00000000000E+00 0.  1.
         22    1    3    3    0    0  0.50992887051E+02  0.18645586636E+02 -0.67144400659E+02  0.86349886917E+02  0.00000000000E+00 0.  1.
</event>
<event>
 7    1  0.6152634E-006  0.8220590E+02  0.7818608E-02  0.1428750E+00
          2   -1    0    0  502    0  0.00000000000E+00  0.00000000000E+00  0.50126675731E+03  0.50126675731E+03  0.00000000000E+00 0. -1.
          1   -1    0    0  501    0 -0.00000000000E+00 -0.00000000000E+00 -0.14058077821E+04  0.14058077821E+04  0.00000000000E+00 0. -1.
         25    2    1    2    0    0  0.77230032352E+02 -0.39868354617E+02 -0.20783287009E+03  0.25762704750E+03  0.12499292026E+03 0.  0.
          2    1    1    2  501    0  0.48083396620E+01  0.34106585570E+02 -0.11692728323E+04  0.11697800373E+04  0.00000000000E+00 0. -1.
          1    1    1    2  502    0 -0.82038372014E+02  0.57617690472E+01  0.47256467762E+03  0.47966745460E+03  0.00000000000E+00 0. -1.
         22    1    3    3    0    0  0.17611173406E+02  0.37706053531E+01  0.14637898467E+02  0.23208596791E+02  0.00000000000E+00 0.  1.
         22    1    3    3    0    0  0.59618858946E+02 -0.43638959970E+02 -0.22247076856E+03  0.23441845071E+03  0.00000000000E+00 0.  1.
</event>
<event>
 7    1  0.6152634E-006  0.4934702E+02  0.7818608E-02  0.1462052E+00
          2   -1    0    0  502    0  0.00000000000E+00  0.00000000000E+00  0.79122014703E+03  0.79122014703E+03  0.00000000000E+00 0. -1.
          1   -1    0    0  501    0 -0.00000000000E+00 -0.00000000000E+00 -0.22091597822E+03  0.22091597822E+03  0.00000000000E+00 0. -1.
         25    2    1    2    0    0  0.89858072526E+02  0.89053230799E+01  0.30762103349E+02  0.15724153137E+03  0.12499925683E+03 0.  0.
          2    1    1    2  501    0 -0.47492598892E+02  0.57296494257E+01 -0.15330708772E+03  0.16059713253E+03  0.00000000000E+00 0. -1.
          1    1    1    2  502    0 -0.42365473634E+02 -0.14634972506E+02  0.69284915318E+03  0.69429746136E+03  0.00000000000E+00 0. -1.
         22    1    3    3    0    0  0.47193009572E+02  0.55267418647E+02 -0.21056306904E+02  0.75663966172E+02  0.00000000000E+00 0.  1.
         22    1    3    3    0    0  0.42665062954E+02 -0.46362095567E+02  0.51818410253E+02  0.81577565197E+02  0.00000000000E+00 0.  1.
</event>
<event>
 7    1  0.6152634E-006  0.1636106E+03  0.7818608E-02  0.1215010E+00
          2   -1    0    0  502    0  0.00000000000E+00  0.00000000000E+00  0.11729314952E+04  0.11729314952E+04  0.00000000000E+00 0. -1.
          1   -1    0    0  501    0 -0.00000000000E+00 -0.00000000000E+00 -0.25659171507E+03  0.25659171507E+03  0.00000000000E+00 0. -1.
         25    2    1    2    0    0  0.15226517585E+02 -0.17951520954E+01  0.22974864095E+02  0.12801282824E+03  0.12499748159E+03 0.  0.
          2    1    1    2  501    0 -0.10869192891E+03 -0.13249053290E+03 -0.16063612592E+03  0.23488644420E+03  0.00000000000E+00 0. -1.
          1    1    1    2  502    0  0.93465411327E+02  0.13428568499E+03  0.10540010420E+04  0.10666239379E+04  0.00000000000E+00 0. -1.
         22    1    3    3    0    0  0.35761584087E+02 -0.18601560351E+02  0.66074169644E+02  0.77399643656E+02  0.00000000000E+00 0.  1.
         22    1    3    3    0    0 -0.20535066502E+02  0.16806408256E+02 -0.43099305549E+02  0.50613184582E+02  0.00000000000E+00 0.  1.
</event>
<event>
 7    1  0.6152634E-006  0.8209871E+02  0.7818608E-02  0.1397541E+00
          2   -1    0    0  502    0  0.00000000000E+00  0.00000000000E+00  0.17394833077E+04  0.17394833077E+04  0.00000000000E+00 0. -1.
          1   -1    0    0  501    0 -0.00000000000E+00 -0.00000000000E+00 -0.13884356281E+04  0.13884356281E+04  0.00000000000E+00 0. -1.
         25    2    1    2    0    0 -0.15678806544E+02 -0.94340005542E+02  0.70515899131E+02  0.17246492789E+03  0.12500319076E+03 0.  0.
          2    1    1    2  501    0  0.40833765294E+02  0.16256921208E+02 -0.13360596991E+04  0.13367824070E+04  0.00000000000E+00 0. -1.
          1    1    1    2  502    0 -0.25154958749E+02  0.78083084334E+02  0.16165914795E+04  0.16186716010E+04  0.00000000000E+00 0. -1.
         22    1    3    3    0    0 -0.10520450464E+01 -0.48605182639E+02  0.10340551618E+03  0.11426404226E+03  0.00000000000E+00 0. -1.
         22    1    3    3    0    0 -0.14626761498E+02 -0.45734822904E+02 -0.32889617046E+02  0.58200885624E+02  0.00000000000E+00 0. -1.
</event>
<event>
 7    1  0.6152634E-006  0.9493275E+02  0.7818608E-02  0.1371902E+00
          2   -1    0    0  502    0  0.00000000000E+00  0.00000000000E+00  0.10787884737E+04  0.10787884737E+04  0.00000000000E+00 0. -1.
          1   -1    0    0  501    0 -0.00000000000E+00 -0.00000000000E+00 -0.22937744996E+03  0.22937744996E+03  0.00000000000E+00 0. -1.
         25    2    1    2    0    0  0.92436675660E+02 -0.93106641429E+02 -0.57563457429E+02  0.19013734117E+03  0.12500108475E+03 0.  0.
          2    1    1    2  501    0 -0.10978608885E+02  0.45474418685E+02 -0.98021430918E+02  0.10861240043E+03  0.00000000000E+00 0. -1.
          1    1    1    2  502    0 -0.81458066775E+02  0.47632222744E+02  0.10049959120E+04  0.10094161820E+04  0.00000000000E+00 0. -1.
         22    1    3    3    0    0  0.11569037998E+02 -0.64684049656E+02 -0.78028236162E+02  0.10201114919E+03  0.00000000000E+00 0.  1.
         22    1    3    3    0    0  0.80867637661E+02 -0.28422591773E+02  0.20464778733E+02  0.88126191978E+02  0.00000000000E+00 0.  1.
</event>
<event>
 7    1  0.6152634E-006  0.2780868E+02  0.7818608E-02  0.1656521E+00
          2   -1    0    0  502    0  0.00000000000E+00  0.00000000000E+00  0.43447544651E+03  0.43447544651E+03  0.00000000000E+00 0. -1.
          1   -1    0    0  501    0 -0.00000000000E+00 -0.00000000000E+00 -0.15793461236E+04  0.15793461236E+04  0.00000000000E+00 0. -1.
         25    2    1    2    0    0 -0.59140454690E+01  0.31149841259E+02  0.29826992369E+03  0.32495243209E+03  0.12499538872E+03 0.  0.
          2    1    1    2  501    0 -0.15639911719E+02 -0.22996399919E+02 -0.15647996570E+04  0.15650467749E+04  0.00000000000E+00 0. -1.
          1    1    1    2  502    0  0.21553957188E+02 -0.81534413392E+01  0.12165905614E+03  0.12382236315E+03  0.00000000000E+00 0. -1.
         22    1    3    3    0    0 -0.44818233392E+01 -0.66311334681E+01 -0.10875773610E+02  0.13503374509E+02  0.00000000000E+00 0. -1.
         22    1    3    3    0    0 -0.14322221298E+01  0.37780974727E+02  0.30914569730E+03  0.31144905758E+03  0.00000000000E+00 0. -1.
</event>
<event>
 7    1  0.1143770E-005  0.7584956E+02  0.7818608E-02  0.1476151E+00
          2   -1    0    0  502    0  0.00000000000E+00  0.00000000000E+00  0.23788025968E+04  0.23788025968E+04  0.00000000000E+00 0. -1.
          1   -1    0    0  501    0 -0.00000000000E+00 -0.00000000000E+00 -0.96411487132E+03  0.96411487132E+03  0.00000000000E+00 0. -1.
         25    2    1    2    0    0  0.91438599633E+02  0.28510821300E+01 -0.39481661780E+03  0.42411592533E+03  0.12500004103E+03 0.  0.
          2    1    1    2  501    0 -0.18697921554E+02  0.18575406218E+02 -0.55372699621E+03  0.55435389808E+03  0.00000000000E+00 0. -1.
          1    1    1    2  502    0 -0.72740678079E+02 -0.21426488348E+02  0.23632313394E+04  0.23644476447E+04  0.00000000000E+00 0. -1.
         22    1    3    3    0    0  0.12252856202E+03 -0.71028971633E+00 -0.33304417422E+03  0.35486923648E+03  0.00000000000E+00 0.  1.
         22    1    3    3    0    0 -0.31089962384E+02  0.35613718463E+01 -0.61772443578E+02  0.69246688845E+02  0.00000000000E+00 0.  1.
</event>
<event>
 7    1  0.6152634E-006  0.1237391E+03  0.7818608E-02  0.1277405E+00
          2   -1    0    0  502    0  0.00000000000E+00  0.00000000000E+00  0.11868896484E+04  0.11868896484E+04  0.00000000000E+00 0. -1.
          1   -1    0    0  501    0 -0.00000000000E+00 -0.00000000000E+00 -0.13888509134E+04  0.13888509134E+04  0.00000000000E+00 0. -1.
         25    2    1    2    0    0  0.73723029980E+02 -0.28483784534E+02  0.11736084805E+03  0.18879943398E+03  0.12500098594E+03 0.  0.
          2    1    1    2  501    0 -0.58846621664E+02  0.11021438511E+03 -0.13485704230E+04  0.13543457171E+04  0.00000000000E+00 0. -1.
          1    1    1    2  502    0 -0.14876408316E+02 -0.81730600572E+02  0.10292483100E+04  0.10325954107E+04  0.00000000000E+00 0. -1.
         22    1    3    3    0    0  0.55750553113E+02  0.28326390809E+02  0.64109710033E+01  0.62861825760E+02  0.00000000000E+00 0.  1.
         22    1    3    3    0    0  0.17972476866E+02 -0.56810175343E+02  0.11094987705E+03  0.12593760822E+03  0.00000000000E+00 0.  1.
</event>
<event>
 7    1  0.6152634E-006  0.7698204E+02  0.7818608E-02  0.1474439E+00
          2   -1    0    0  502    0  0.00000000000E+00  0.00000000000E+00  0.21973736573E+04  0.21973736573E+04  0.00000000000E+00 0. -1.
          1   -1    0    0  501    0 -0.00000000000E+00 -0.00000000000E+00 -0.17081266729E+04  0.17081266729E+04  0.00000000000E+00 0. -1.
         25    2    1    2    0    0 -0.46935194718E+02  0.87899766970E+02  0.72835173414E+03  0.74568602420E+03  0.12498846555E+03 0.  0.
          2    1    1    2  501    0  0.25571341161E+02 -0.72583919312E+02 -0.16984698990E+04  0.17002124328E+04  0.00000000000E+00 0. -1.
          1    1    1    2  502    0  0.21363853557E+02 -0.15315847658E+02  0.14593651492E+04  0.14596018732E+04  0.00000000000E+00 0. -1.
         22    1    3    3    0    0 -0.58746091453E+02  0.27100779749E+02  0.59665616785E+03  0.60015342885E+03  0.00000000000E+00 0. -1.
         22    1    3    3    0    0  0.11810896735E+02  0.60798987220E+02  0.13169556629E+03  0.14553259535E+03  0.00000000000E+00 0. -1.
</event>
<event>
 7    1  0.6152634E-006  0.1435894E+03  0.7818608E-02  0.1250344E+00
          2   -1    0    0  502    0  0.00000000000E+00  0.00000000000E+00  0.34035332635E+04  0.34035332635E+04  0.00000000000E+00 0. -1.
          1   -1    0    0  501    0 -0.00000000000E+00 -0.00000000000E+00 -0.15352540510E+03  0.15352540510E+03  0.00000000000E+00 0. -1.
         25    2    1    2    0    0 -0.11519103895E+03  0.17749753623E+03  0.14093827863E+04  0.14306496342E+04  0.12499674628E+03 0.  0.
          2    1    1    2  501    0  0.16144613040E+02 -0.91837728976E+02 -0.12526602465E+03  0.15616143546E+03  0.00000000000E+00 0. -1.
          1    1    1    2  502    0  0.99046425913E+02 -0.85659807255E+02  0.19658910967E+04  0.19702475990E+04  0.00000000000E+00 0. -1.
         22    1    3    3    0    0 -0.14210583442E+03  0.15762922395E+03  0.12047305290E+04  0.12232811157E+04  0.00000000000E+00 0. -1.
         22    1    3    3    0    0  0.26914795467E+02  0.19868312277E+02  0.20465225730E+03  0.20736851850E+03  0.00000000000E+00 0. -1.
</event>
<event>
 7    1  0.6152634E-006  0.7583907E+02  0.7818608E-02  0.1403491E+00
          2   -1    0    0  502    0  0.00000000000E+00  0.00000000000E+00  0.16036188182E+04  0.16036188182E+04  0.00000000000E+00 0. -1.
          1   -1    0    0  501    0 -0.00000000000E+00 -0.00000000000E+00 -0.59789467606E+03  0.59789467606E+03  0.00000000000E+00 0. -1.
         25    2    1    2    0    0 -0.39669432470E+02  0.30798061366E+02  0.65816806235E+03  0.67181230009E+03  0.12499753516E+03 0.  0.
          2    1    1    2  501    0  0.34806975407E+01  0.45257008689E+02 -0.58830711092E+03  0.59005556420E+03  0.00000000000E+00 0. -1.
          1    1    1    2  502    0  0.36188734929E+02 -0.76055070055E+02  0.93586319068E+03  0.93964562995E+03  0.00000000000E+00 0. -1.
         22    1    3    3    0    0 -0.29871728362E+02 -0.10301399018E+02  0.59486863351E+03  0.59570725202E+03  0.00000000000E+00 0. -1.
         22    1    3    3    0    0 -0.97977041080E+01  0.41099460384E+02  0.63299428840E+02  0.76105048066E+02  0.00000000000E+00 0. -1.
</event>
<event>
 7    1  0.6152634E-006  0.6860612E+02  0.7818608E-02  0.1370480E+00
          2   -1    0    0  502    0  0.00000000000E+00  0.00000000000E+00  0.29898525264E+03  0.29898525264E+03  0.00000000000E+00 0. -1.
          1   -1    0    0  501    0 -0.00000000000E+00 -0.00000000000E+00 -0.80256028356E+03  0.80256028356E+03  0.00000000000E+00 0. -1.
         25    2    1    2    0    0  0.50195279059E+02 -0.95958249169E+02 -0.13197723308E+03  0.21158536574E+03  0.12499130098E+03 0.  0.
          2    1    1    2  501    0  0.10258824549E+02  0.64689573215E+02 -0.62456844978E+03  0.62799341782E+03  0.00000000000E+00 0. -1.
          1    1    1    2  502    0 -0.60454103608E+02  0.31268675954E+02  0.25297065194E+03  0.26196675263E+03  0.00000000000E+00 0. -1.
         22    1    3    3    0    0  0.79254098392E+02 -0.22785915885E+02 -0.91079855100E+02  0.12286557728E+03  0.00000000000E+00 0. -1.
         22    1    3    3    0    0 -0.29058819333E+02 -0.73172333284E+02 -0.40897377978E+02  0.88719788462E+02  0.00000000000E+00 0. -1.
</event>
<event>
 7    1  0.6152634E-006  0.4014508E+02  0.7818608E-02  0.1584300E+00
          2   -1    0    0  502    0  0.00000000000E+00  0.00000000000E+00  0.74246986477E+02  0.74246986477E+02  0.00000000000E+00 0. -1.
          1   -1    0    0  501    0 -0.00000000000E+00 -0.00000000000E+00 -0.35788444322E+03  0.35788444322E+03  0.00000000000E+00 0. -1.
         25    2    1    2    0    0  0.78721527392E+01 -0.23281925320E+02 -0.30418467683E+02  0.13097182562E+03  0.12499726835E+03 0.  0.
          2    1    1    2  501    0 -0.11857381683E+02 -0.21303392500E+02 -0.25519107727E+03  0.25635311184E+03  0.00000000000E+00 0. -1.
          1    1    1    2  502    0  0.39852289434E+01  0.44585317821E+02  0.19720882090E+01  0.44806492239E+02  0.00000000000E+00 0. -1.
         22    1    3    3    0    0 -0.52719907061E+01  0.51317252101E+02 -0.14212225316E+02  0.53509266465E+02  0.00000000000E+00 0.  1.
         22    1    3    3    0    0  0.13144143445E+02 -0.74599177421E+02 -0.16206242368E+02  0.77462559153E+02  0.00000000000E+00 0.  1.
</event>
<event>
 7    1  0.6152634E-006  0.5318431E+02  0.7818608E-02  0.1465625E+00
          2   -1    0    0  502    0  0.00000000000E+00  0.00000000000E+00  0.65843852546E+02  0.65843852546E+02  0.00000000000E+00 0. -1.
          1   -1    0    0  501    0 -0.00000000000E+00 -0.00000000000E+00 -0.11823453835E+04  0.11823453835E+04  0.00000000000E+00 0. -1.
         25    2    1    2    0    0  0.23314620714E+02  0.84082342934E+02 -0.14643251373E+03  0.21138085451E+03  0.12500389052E+03 0.  0.
          2    1    1    2  501    0 -0.21591064223E+02 -0.34297952728E+02 -0.98419571957E+03  0.98502981581E+03  0.00000000000E+00 0. -1.
          1    1    1    2  502    0 -0.17235564918E+01 -0.49784390206E+02  0.14126702300E+02  0.51778565769E+02  0.00000000000E+00 0. -1.
         22    1    3    3    0    0  0.63639986266E+02  0.53233506091E+02 -0.13636223260E+03  0.15961990008E+03  0.00000000000E+00 0.  1.
         22    1    3    3    0    0 -0.40325365552E+02  0.30848836844E+02 -0.10070281130E+02  0.51760954430E+02  0.00000000000E+00 0.  1.
</event>
<event>
 7    1  0.6152634E-006  0.6185332E+02  0.7818608E-02  0.1427245E+00
          2   -1    0    0  502    0  0.00000000000E+00  0.00000000000E+00  0.15255649650E+04  0.15255649650E+04  0.00000000000E+00 0. -1.
          1   -1    0    0  501    0 -0.00000000000E+00 -0.00000000000E+00 -0.68221844167E+02  0.68221844167E+02  0.00000000000E+00 0. -1.
         25    2    1    2    0    0 -0.26868680876E+02 -0.86253978821E+02  0.58944423488E+03  0.60928699292E+03  0.12499783535E+03 0.  0.
          2    1    1    2  501    0  0.43665873997E+02  0.43103874211E+02 -0.41403254569E+02  0.74019470498E+02  0.00000000000E+00 0. -1.
          1    1    1    2  502    0 -0.16797193121E+02  0.43150104611E+02  0.90930214055E+03  0.91048034577E+03  0.00000000000E+00 0. -1.
         22    1    3    3    0    0  0.28087612416E+02 -0.93994547853E+02  0.34942060551E+03  0.36293063877E+03  0.00000000000E+00 0. -1.
         22    1    3    3    0    0 -0.54956293292E+02  0.77405690320E+01  0.24002362936E+03  0.24635635416E+03  0.00000000000E+00 0. -1.
</event>
<event>
 7    1  0.6152634E-006  0.3168256E+02  0.7818608E-02  0.1616616E+00
          2   -1    0    0  502    0  0.00000000000E+00  0.00000000000E+00  0.88381568099E+03  0.88381568099E+03  0.00000000000E+00 0. -1.
          1   -1    0    0  501    0 -0.00000000000E+00 -0.00000000000E+00 -0.16094292949E+04  0.16094292949E+04  0.00000000000E+00 0. -1.
         25    2    1    2    0    0  0.29961311691E+02  0.15481713921E+02 -0.26195977173E+03  0.29222145268E+03  0.12503236276E+03 0.  0.
          2    1    1    2  501    0 -0.93424813926E+01 -0.30378200579E+02 -0.13319628643E+04  0.13323419940E+04  0.00000000000E+00 0. -1.
          1    1    1    2  502    0 -0.20618830298E+02  0.14896486658E+02  0.86830902208E+03  0.86868152927E+03  0.00000000000E+00 0. -1.
         22    1    3    3    0    0 -0.33272135908E+02  0.29292998056E+01 -0.14343009362E+02  0.36350209667E+02  0.00000000000E+00 0.  1.
         22    1    3    3    0    0  0.63233447599E+02  0.12552414115E+02 -0.24761676236E+03  0.25587124301E+03  0.00000000000E+00 0.  1.
</event>
<event>
 7    1  0.6152634E-006  0.4328275E+02  0.7818608E-02  0.1556159E+00
          2   -1    0    0  502    0  0.00000000000E+00  0.00000000000E+00  0.12898892354E+04  0.12898892354E+04  0.00000000000E+00 0. -1.
          1   -1    0    0  501    0 -0.00000000000E+00 -0.00000000000E+00 -0.12444909030E+02  0.12444909030E+02  0.00000000000E+00 0. -1.
         25    2    1    2    0    0 -0.30694316011E+02  0.29753347907E+02  0.45506584100E+03  0.47385244671E+03  0.12499527536E+03 0.  0.
          2    1    1    2  501    0  0.45311406635E+02 -0.70936031303E+01  0.18738746315E+03  0.19291838721E+03  0.00000000000E+00 0. -1.
          1    1    1    2  502    0 -0.14617090625E+02 -0.22659744777E+02  0.63499102225E+03  0.63556331055E+03  0.00000000000E+00 0. -1.
         22    1    3    3    0    0 -0.16498579634E+02  0.76928024871E+02  0.21907950871E+03  0.23277876896E+03  0.00000000000E+00 0. -1.
         22    1    3    3    0    0 -0.14195736376E+02 -0.47174676964E+02  0.23598633229E+03  0.24107367776E+03  0.00000000000E+00 0. -1.
</event>
<event>
 7    1  0.6152634E-006  0.8819840E+02  0.7818608E-02  0.1359672E+00
          2   -1    0    0  502    0  0.00000000000E+00  0.00000000000E+00  0.19478076564E+03  0.19478076564E+03  0.00000000000E+00 0. -1.
          1   -1    0    0  501    0 -0.00000000000E+00 -0.00000000000E+00 -0.16019820005E+04  0.16019820005E+04  0.00000000000E+00 0. -1.
         25    2    1    2    0    0 -0.46616600411E+02  0.19681176383E+02 -0.15471675982E+02  0.13573692923E+03  0.12499874024E+03 0.  0.
          2    1    1    2  501    0  0.47641701825E+02 -0.75425364508E+02 -0.15192410734E+04  0.15218581263E+04  0.00000000000E+00 0. -1.
          1    1    1    2  502    0 -0.10251014139E+01  0.55744188125E+02  0.12751151454E+03  0.13916771063E+03  0.00000000000E+00 0. -1.
         22    1    3    3    0    0 -0.30772801820E+02  0.24216529665E+02  0.52669374173E+02  0.65631308204E+02  0.00000000000E+00 0.  1.
         22    1    3    3    0    0 -0.15843798591E+02 -0.45353532821E+01 -0.68141050155E+02  0.70105621026E+02  0.00000000000E+00 0.  1.
</event>
<event>
 7    1  0.6152634E-006  0.5528875E+02  0.7818608E-02  0.1464589E+00
          2   -1    0    0  502    0  0.00000000000E+00  0.00000000000E+00  0.26041946523E+04  0.26041946523E+04  0.00000000000E+00 0. -1.
          1   -1    0    0  501    0 -0.00000000000E+00 -0.00000000000E+00 -0.25842992911E+02  0.25842992911E+02  0.00000000000E+00 0. -1.
         25    2    1    2    0    0  0.10183985555E+01  0.18123565676E+02  0.20870318044E+03  0.24395182448E+03  0.12500389744E+03 0.  0.
          2    1    1    2  501    0 -0.16108759288E+02  0.35822558964E+02  0.41051839212E+02  0.56815502807E+02  0.00000000000E+00 0. -1.
          1    1    1    2  502    0  0.15090360733E+02 -0.53946124641E+02  0.23285966398E+04  0.23292703180E+04  0.00000000000E+00 0. -1.
         22    1    3    3    0    0 -0.22819422534E+01 -0.44361719757E+02  0.27487217136E+02  0.52237118471E+02  0.00000000000E+00 0. -1.
         22    1    3    3    0    0  0.33003408088E+01  0.62485285434E+02  0.18121596330E+03  0.19171470601E+03  0.00000000000E+00 0. -1.
</event>
<event>
 7    1  0.6152634E-006  0.3727387E+02  0.7818608E-02  0.1566061E+00
          2   -1    0    0  502    0  0.00000000000E+00  0.00000000000E+00  0.24025173224E+04  0.24025173224E+04  0.00000000000E+00 0. -1.
          1   -1    0    0  501    0 -0.00000000000E+00 -0.00000000000E+00 -0.29344787342E+02  0.29344787342E+02  0.00000000000E+00 0. -1.
         25    2    1    2    0    0 -0.35304034709E+02  0.47648509488E+02  0.29099744752E+03  0.32221248840E+03  0.12499847156E+03 0.  0.
          2    1    1    2  501    0  0.30979518020E+01 -0.29246414716E+02  0.23608452426E+01  0.29504638099E+02  0.00000000000E+00 0. -1.
          1    1    1    2  502    0  0.32206082907E+02 -0.18402094772E+02  0.20798142423E+04  0.20801449833E+04  0.00000000000E+00 0. -1.
         22    1    3    3    0    0 -0.45831449728E+02 -0.31728502264E+02  0.15061912020E+03  0.16060304794E+03  0.00000000000E+00 0. -1.
         22    1    3    3    0    0  0.10527415019E+02  0.79377011752E+02  0.14037832732E+03  0.16160944045E+03  0.00000000000E+00 0. -1.
</event>
<event>
 7    1  0.6152634E-006  0.1709784E+03  0.7818608E-02  0.1245553E+00
          2   -1    0    0  502    0  0.00000000000E+00  0.00000000000E+00  0.14356941310E+03  0.14356941310E+03  0.00000000000E+00 0. -1.
          1   -1    0    0  501    0 -0.00000000000E+00 -0.00000000000E+00 -0.17198596621E+04  0.17198596621E+04  0.00000000000E+00 0. -1.
         25    2    1    2    0    0  0.13385631552E+03 -0.71857834612E+02 -0.84261797457E+03  0.86528111526E+03  0.12500118301E+03 0.  0.
          2    1    1    2  501    0  0.39572706678E+02  0.72002887161E+02 -0.80604669307E+03  0.81022323237E+03  0.00000000000E+00 0. -1.
          1    1    1    2  502    0 -0.17342902220E+03 -0.14505254934E+00  0.72374418591E+02  0.18792472761E+03  0.00000000000E+00 0. -1.
         22    1    3    3    0    0  0.15361734421E+03 -0.75043339983E+02 -0.80173203893E+03  0.81975853369E+03  0.00000000000E+00 0.  1.
         22    1    3    3    0    0 -0.19761028684E+02  0.31855053710E+01 -0.40885935641E+02  0.45522581565E+02  0.00000000000E+00 0.  1.
</event>
<event>
 7    1  0.6152634E-006  0.4651289E+02  0.7818608E-02  0.1576930E+00
          2   -1    0    0  502    0  0.00000000000E+00  0.00000000000E+00  0.35060264521E+03  0.35060264521E+03  0.00000000000E+00 0. -1.
          1   -1    0    0  501    0 -0.00000000000E+00 -0.00000000000E+00 -0.21755796324E+03  0.21755796324E+03  0.00000000000E+00 0. -1.
         25    2    1    2    0    0  0.19899858907E+02  0.33021649444E+02  0.12646682503E+02  0.13142140392E+03  0.12500085245E+03 0.  0.
          2    1    1    2  501    0 -0.28977588348E+01 -0.47017928164E+02 -0.15421258422E+03  0.16124702697E+03  0.00000000000E+00 0. -1.
          1    1    1    2  502    0 -0.17002100073E+02  0.13996278720E+02  0.27461058368E+03  0.27549217756E+03  0.00000000000E+00 0. -1.
         22    1    3    3    0    0 -0.89156680874E+01  0.44061518072E+02  0.59956253671E+02  0.74937699901E+02  0.00000000000E+00 0.  1.
         22    1    3    3    0    0  0.28815526995E+02 -0.11039868628E+02 -0.47309571168E+02  0.56483704016E+02  0.00000000000E+00 0.  1.
</event>
<event>
 7    1  0.6152634E-006  0.1058729E+03  0.7818608E-02  0.1349624E+00
          2   -1    0    0  502    0  0.00000000000E+00  0.00000000000E+00  0.81190660275E+03  0.81190660275E+03  0.00000000000E+00 0. -1.
          1   -1    0    0  501    0 -0.00000000000E+00 -0.00000000000E+00 -0.79481578041E+03  0.79481578041E+03  0.00000000000E+00 0. -1.
         25    2    1    2    0    0 -0.98528248607E+01 -0.59751386492E+02 -0.38398170343E+02  0.14411153270E+03  0.12500563197E+03 0.  0.
          2    1    1    2  501    0  0.12278959447E+01  0.10958331817E+03 -0.69844106280E+03  0.70698651300E+03  0.00000000000E+00 0. -1.
          1    1    1    2  502    0  0.86249289160E+01 -0.49831931681E+02  0.75393005548E+03  0.75562433747E+03  0.00000000000E+00 0. -1.
         22    1    3    3    0    0 -0.17246820993E+02  0.31650931656E+02 -0.38046940390E+02  0.52409960714E+02  0.00000000000E+00 0. -1.
         22    1    3    3    0    0  0.73939961323E+01 -0.91402318148E+02 -0.35122995323E+00  0.91701571982E+02  0.00000000000E+00 0. -1.
</event>
<event>
 7    1  0.6152634E-006  0.6027380E+02  0.7818608E-02  0.1407229E+00
          2   -1    0    0  502    0  0.00000000000E+00  0.00000000000E+00  0.14794397008E+03  0.14794397008E+03  0.00000000000E+00 0. -1.
          1   -1    0    0  501    0 -0.00000000000E+00 -0.00000000000E+00 -0.16421426952E+04  0.16421426952E+04  0.00000000000E+00 0. -1.
         25    2    1    2    0    0  0.48488440420E+02  0.32708492652E+02 -0.75390511404E+02  0.15725674216E+03  0.12499991760E+03 0.  0.
          2    1    1    2  501    0 -0.56473678938E+02  0.22173462505E+02 -0.15179864636E+04  0.15191984210E+04  0.00000000000E+00 0. -1.
          1    1    1    2  502    0  0.79852385182E+01 -0.54881955157E+02  0.99178249827E+02  0.11363150212E+03  0.00000000000E+00 0. -1.
         22    1    3    3    0    0 -0.32336288387E+02  0.45490299581E+02 -0.36225601709E+02  0.66537937463E+02  0.00000000000E+00 0.  1.
         22    1    3    3    0    0  0.80824728807E+02 -0.12781806929E+02 -0.39164909695E+02  0.90718804702E+02  0.00000000000E+00 0.  1.
</event>
<event>
 7    1  0.6152634E-006  0.5114286E+02  0.7818608E-02  0.1461170E+00
          2   -1    0    0  502    0  0.00000000000E+00  0.00000000000E+00  0.87222311166E+02  0.87222311166E+02  0.00000000000E+00 0. -1.
          1   -1    0    0  501    0 -0.00000000000E+00 -0.00000000000E+00 -0.88206339001E+03  0.88206339001E+03  0.00000000000E+00 0. -1.
         25    2    1    2    0    0 -0.25040578265E+01 -0.25680448536E+02 -0.88813943259E+01  0.12792411189E+03  0.12497977235E+03 0.  0.
          2    1    1    2  501    0 -0.40559476740E+02  0.32004619387E+02 -0.79519126080E+03  0.79686793640E+03  0.00000000000E+00 0. -1.
          1    1    1    2  502    0  0.43063534567E+02 -0.63241708515E+01  0.92315762755E+01  0.44493652883E+02  0.00000000000E+00 0. -1.
         22    1    3    3    0    0  0.32949927062E+02 -0.66072436074E+02 -0.66810375840E+01  0.74134342685E+02  0.00000000000E+00 0.  1.
         22    1    3    3    0    0 -0.35453984889E+02  0.40391987539E+02 -0.22003567419E+01  0.53789769209E+02  0.00000000000E+00 0.  1.
</event>
<event>
 7    1  0.6152634E-006  0.1568267E+03  0.7818608E-02  0.1310972E+00
          2   -1    0    0  502    0  0.00000000000E+00  0.00000000000E+00  0.37452182069E+02  0.37452182069E+02  0.00000000000E+00 0. -1.
          1   -1    0    0  501    0 -0.00000000000E+00 -0.00000000000E+00 -0.15226332044E+04  0.15226332044E+04  0.00000000000E+00 0. -1.
         25    2    1    2    0    0 -0.98852645675E+02  0.74860810032E+02 -0.41908453403E+03  0.45456949940E+03  0.12500238674E+03 0.  0.
          2    1    1    2  501    0  0.12473939721E+03 -0.11523847523E+03 -0.10338860797E+04  0.10477405448E+04  0.00000000000E+00 0. -1.
          1    1    1    2  502    0 -0.25886751536E+02  0.40377665194E+02 -0.32210408567E+02  0.57775342246E+02  0.00000000000E+00 0. -1.
         22    1    3    3    0    0  0.26063787053E+02  0.35812782715E+02 -0.87017438645E+02  0.97641748395E+02  0.00000000000E+00 0.  1.
         22    1    3    3    0    0 -0.12491643273E+03  0.39048027317E+02 -0.33206709538E+03  0.35692775101E+03  0.00000000000E+00 0.  1.
</event>
<event>
 7    1  0.6152634E-006  0.1336418E+03  0.7818608E-02  0.1285194E+00
          2   -1    0    0  502    0  0.00000000000E+00  0.00000000000E+00  0.37999046461E+04  0.37999046461E+04  0.00000000000E+00 0. -1.
          1   -1    0    0  501    0 -0.00000000000E+00 -0.00000000000E+00 -0.62573598543E+02  0.62573598543E+02  0.00000000000E+00 0. -1.
         25    2    1    2    0    0  0.14170276408E+03 -0.14315000475E+03  0.14935910363E+04  0.15122873966E+04  0.12500955568E+03 0.  0.
          2    1    1    2  501    0 -0.92688407967E+02  0.91184712939E+02  0.27624619239E+02  0.13292446138E+03  0.00000000000E+00 0. -1.
          1    1    1    2  502    0 -0.49014356111E+02  0.51965291810E+02  0.22161153920E+04  0.22172663867E+04  0.00000000000E+00 0. -1.
         22    1    3    3    0    0  0.96583948739E+02 -0.14081080023E+02  0.51210705806E+03  0.52132559393E+03  0.00000000000E+00 0.  1.
         22    1    3    3    0    0  0.45118815339E+02 -0.12906892473E+03  0.98148397821E+03  0.99096180265E+03  0.00000000000E+00 0.  1.
</event>
<event>
 7    1  0.6152634E-006  0.1119569E+03  0.7818608E-02  0.1265918E+00
          2   -1    0    0  502    0  0.00000000000E+00  0.00000000000E+00  0.40975901348E+03  0.40975901348E+03  0.00000000000E+00 0. -1.
          1   -1    0    0  501    0 -0.00000000000E+00 -0.00000000000E+00 -0.21905351253E+03  0.21905351253E+03  0.00000000000E+00 0. -1.
         25    2    1    2    0    0  0.43363608697E+02  0.18293256790E+03  0.24289840867E+03  0.33161156350E+03  0.12498745999E+03 0.  0.
          2    1    1    2  501    0  0.23694720754E+02 -0.10531725668E+03 -0.12962151464E+03  0.16868580676E+03  0.00000000000E+00 0. -1.
          1    1    1    2  502    0 -0.67058329451E+02 -0.77615311227E+02  0.77428606920E+02  0.12851515574E+03  0.00000000000E+00 0. -1.
         22    1    3    3    0    0 -0.73214433282E+01  0.30116578806E+01 -0.12694019692E+02  0.14960339285E+02  0.00000000000E+00 0.  1.
         22    1    3    3    0    0  0.50685052025E+02  0.17992091002E+03  0.25559242836E+03  0.31665122422E+03  0.00000000000E+00 0.  1.
</event>
<event>
 7    1  0.6152634E-006  0.1984114E+03  0.7818608E-02  0.1254989E+00
          2   -1    0    0  502    0  0.00000000000E+00  0.00000000000E+00  0.22416047443E+04  0.22416047443E+04  0.00000000000E+00 0. -1.
          1   -1    0    0  501    0 -0.00000000000E+00 -0.00000000000E+00 -0.28034059813E+03  0.28034059813E+03  0.00000000000E+00 0. -1.
         25    2    1    2    0    0 -0.25135855269E+03  0.61837230012E+02  0.58590174556E+03  0.65261853635E+03  0.12500053407E+03 0.  0.
          2    1    1    2  501    0  0.18780493473E+03 -0.51212772125E+02 -0.20786836682E+03  0.28478535683E+03  0.00000000000E+00 0. -1.
          1    1    1    2  502    0  0.63553617959E+02 -0.10624457888E+02  0.15832307674E+04  0.15845414493E+04  0.00000000000E+00 0. -1.
         22    1    3    3    0    0 -0.21385128995E+03  0.95606256082E+02  0.44393006782E+03  0.50194306005E+03  0.00000000000E+00 0. -1.
         22    1    3    3    0    0 -0.37507262740E+02 -0.33769026070E+02  0.14197167774E+03  0.15067547631E+03  0.00000000000E+00 0. -1.
</event>
<event>
 7    1  0.6152634E-006  0.1795798E+03  0.7818608E-02  0.1247204E+00
          2   -1    0    0  502    0  0.00000000000E+00  0.00000000000E+00  0.11042831799E+04  0.11042831799E+04  0.00000000000E+00 0. -1.
          1   -1    0    0  501    0 -0.00000000000E+00 -0.00000000000E+00 -0.21070891951E+04  0.21070891951E+04  0.00000000000E+00 0. -1.
         25    2    1    2    0    0  0.11752170956E+03  0.71853015845E+02  0.27341028117E+03  0.33070266737E+03  0.12504744800E+03 0.  0.
          2    1    1    2  501    0 -0.17852965410E+03 -0.24974177576E+02 -0.20726769726E+04  0.20805014731E+04  0.00000000000E+00 0. -1.
          1    1    1    2  502    0  0.61007944541E+02 -0.46878838268E+02  0.79646067618E+03  0.80016823448E+03  0.00000000000E+00 0. -1.
         22    1    3    3    0    0 -0.15987292012E+02  0.44219674405E+02  0.47484012016E+02  0.66825926911E+02  0.00000000000E+00 0.  1.
         22    1    3    3    0    0  0.13350900157E+03  0.27633341439E+02  0.22592626916E+03  0.26387674046E+03  0.00000000000E+00 0.  1.
</event>
<event>
 7    1  0.6152634E-006  0.1017581E+03  0.7818608E-02  0.1280750E+00
          2   -1    0    0  502    0  0.00000000000E+00  0.00000000000E+00  0.78156075278E+03  0.78156075278E+03  0.00000000000E+00 0. -1.
          1   -1    0    0  501    0 -0.00000000000E+00 -0.00000000000E+00 -0.56008350193E+03  0.56008350193E+03  0.00000000000E+00 0. -1.
         25    2    1    2    0    0 -0.16173093887E+02  0.27558512436E+02 -0.59515321271E+02  0.14208303691E+03  0.12499790134E+03 0.  0.
          2    1    1    2  501    0 -0.35872313062E+02 -0.11041777668E+03 -0.44862888804E+03  0.46340779820E+03  0.00000000000E+00 0. -1.
          1    1    1    2  502    0  0.52045406949E+02  0.82859264242E+02  0.72962146016E+03  0.73615341959E+03  0.00000000000E+00 0. -1.
         22    1    3    3    0    0  0.31402053302E+02  0.38458400878E+02  0.16002779106E+02  0.52165376341E+02  0.00000000000E+00 0. -1.
         22    1    3    3    0    0 -0.47575147189E+02 -0.10899888442E+02 -0.75518100377E+02  0.89917660571E+02  0.00000000000E+00 0. -1.
</event>
<event>
 7    1  0.6152634E-006  0.1004823E+03  0.7818608E-02  0.1381973E+00
          2   -1    0    0  502    0  0.00000000000E+00  0.00000000000E+00  0.25666223913E+04  0.25666223913E+04  0.00000000000E+00 0. -1.
          1   -1    0    0  501    0 -0.00000000000E+00 -0.00000000000E+00 -0.71740037296E+02  0.71740037296E+02  0.00000000000E+00 0. -1.
         25    2    1    2    0    0 -0.11117139898E+03 -0.23603203154E+02  0.82069026264E+03  0.83789866932E+03  0.12500192683E+03 0.  0.
          2    1    1    2  501    0  0.12982721070E+02  0.38570754725E+02 -0.55001012370E+02  0.68420505173E+02  0.00000000000E+00 0. -1.
          1    1    1    2  502    0  0.98188677914E+02 -0.14967551570E+02  0.17291931038E+04  0.17320432542E+04  0.00000000000E+00 0. -1.
         22    1    3    3    0    0 -0.97039182429E+02 -0.11558433063E+02  0.81116291526E+03  0.81702844222E+03  0.00000000000E+00 0.  1.
         22    1    3    3    0    0 -0.14132216555E+02 -0.12044770092E+02  0.95273473809E+01  0.20870227105E+02  0.00000000000E+00 0.  1.
</event>
<event>
 7    1  0.6152634E-006  0.8796418E+02  0.7818608E-02  0.1362985E+00
          2   -1    0    0  502    0  0.00000000000E+00  0.00000000000E+00  0.41143914694E+03  0.41143914694E+03  0.00000000000E+00 0. -1.
          1   -1    0    0  501    0 -0.00000000000E+00 -0.00000000000E+00 -0.34138118315E+03  0.34138118315E+03  0.00000000000E+00 0. -1.
         25    2    1    2    0    0  0.21764014073E+02  0.89878481821E+02  0.72596746442E+02  0.17160719360E+03  0.12500770975E+03 0.  0.
          2    1    1    2  501    0 -0.66325610877E+02 -0.58727824931E+02 -0.28247759262E+03  0.29604329821E+03  0.00000000000E+00 0. -1.
          1    1    1    2  502    0  0.44561596804E+02 -0.31150656890E+02  0.27993880997E+03  0.28516983828E+03  0.00000000000E+00 0. -1.
         22    1    3    3    0    0  0.20007962374E+02  0.45672345266E+02 -0.31169606796E+02  0.58803282802E+02  0.00000000000E+00 0.  1.
         22    1    3    3    0    0  0.17560516982E+01  0.44206136555E+02  0.10376635324E+03  0.11280391080E+03  0.00000000000E+00 0.  1.
</event>
<event>
 7    1  0.6152634E-006  0.1119219E+03  0.7818608E-02  0.1310490E+00
          2   -1    0    0  502    0  0.00000000000E+00  0.00000000000E+00  0.82572943572E+03  0.82572943572E+03  0.00000000000E+00 0. -1.
          1   -1    0    0  501    0 -0.00000000000E+00 -0.00000000000E+00 -0.92784944352E+02  0.92784944352E+02  0.00000000000E+00 0. -1.
         25    2    1    2    0    0 -0.37738165529E+02  0.13616056359E+03  0.36415599523E+03  0.41011961338E+03  0.12499856082E+03 0.  0.
          2    1    1    2  501    0  0.59558881632E+02 -0.31767329979E+02 -0.44972039827E+02  0.81110467890E+02  0.00000000000E+00 0. -1.
          1    1    1    2  502    0 -0.21820716103E+02 -0.10439323361E+03  0.41376053597E+03  0.42728429880E+03  0.00000000000E+00 0. -1.
         22    1    3    3    0    0 -0.52572855634E+02  0.11576104430E+03  0.15977274112E+03  0.20418583039E+03  0.00000000000E+00 0.  1.
         22    1    3    3    0    0  0.14834690105E+02  0.20399519287E+02  0.20438325411E+03  0.20593378299E+03  0.00000000000E+00 0.  1.
</event>
<event>
 7    1  0.6152634E-006  0.3978023E+02  0.7818608E-02  0.1535845E+00
          2   -1    0    0  502    0  0.00000000000E+00  0.00000000000E+00  0.18949403041E+02  0.18949403041E+02  0.00000000000E+00 0. -1.
          1   -1    0    0  501    0 -0.00000000000E+00 -0.00000000000E+00 -0.17589607076E+04  0.17589607076E+04  0.00000000000E+00 0. -1.
         25    2    1    2    0    0 -0.70729224005E+02 -0.14216498921E+02 -0.11615986527E+04  0.11705303940E+04  0.12500096518E+03 0.  0.
          2    1    1    2  501    0  0.33304914910E+02  0.31329143040E+01 -0.56517616554E+03  0.56616528558E+03  0.00000000000E+00 0. -1.
          1    1    1    2  502    0  0.37424309094E+02  0.11083584617E+02 -0.13236486320E+02  0.41214431080E+02  0.00000000000E+00 0. -1.
         22    1    3    3    0    0 -0.22813615121E+02 -0.17182460067E+02 -0.47692586693E+02  0.55590294066E+02  0.00000000000E+00 0. -1.
         22    1    3    3    0    0 -0.47915608884E+02  0.29659611458E+01 -0.11139060660E+04  0.11149400999E+04  0.00000000000E+00 0. -1.
</event>
<event>
 7    1  0.6152634E-006  0.1123126E+03  0.7818608E-02  0.1356842E+00
          2   -1    0    0  502    0  0.00000000000E+00  0.00000000000E+00  0.20858071165E+04  0.20858071165E+04  0.00000000000E+00 0. -1.
          1   -1    0    0  501    0 -0.00000000000E+00 -0.00000000000E+00 -0.11288995291E+04  0.11288995291E+04  0.00000000000E+00 0. -1.
         25    2    1    2    0    0  0.38947605722E+02  0.61949787881E+02  0.12364159264E+03  0.19043796466E+03  0.12499873097E+03 0.  0.
          2    1    1    2  501    0  0.21215802305E+01  0.44789031494E+02 -0.10933460419E+04  0.10942651076E+04  0.00000000000E+00 0. -1.
          1    1    1    2  502    0 -0.41069185953E+02 -0.10673881937E+03  0.19266120367E+04  0.19300035734E+04  0.00000000000E+00 0. -1.
         22    1    3    3    0    0  0.74934430623E+01 -0.20910771711E+02 -0.14342945101E+02  0.26441106948E+02  0.00000000000E+00 0. -1.
         22    1    3    3    0    0  0.31454162660E+02  0.82860559591E+02  0.13798453774E+03  0.16399685771E+03  0.00000000000E+00 0. -1.
</event>
<event>
 7    1  0.6152634E-006  0.1110267E+03  0.7818608E-02  0.1292378E+00
          2   -1    0    0  502    0  0.00000000000E+00  0.00000000000E+00  0.42340123143E+03  0.42340123143E+03  0.00000000000E+00 0. -1.
          1   -1    0    0  501    0 -0.00000000000E+00 -0.00000000000E+00 -0.22717529851E+03  0.22717529851E+03  0.00000000000E+00 0. -1.
         25    2    1    2    0    0 -0.98244090949E+01  0.43064551751E+02  0.26822844810E+03  0.29919383195E+03  0.12497749427E+03 0.  0.
          2    1    1    2  501    0 -0.34719248205E+02 -0.10997262630E+03 -0.18180970744E+03  0.21530019612E+03  0.00000000000E+00 0. -1.
          1    1    1    2  502    0  0.44543657300E+02  0.66908074544E+02  0.10980719226E+03  0.13608250187E+03  0.00000000000E+00 0. -1.
         22    1    3    3    0    0  0.29284463026E+02  0.74410445337E+02  0.13575628664E+03  0.15755717538E+03  0.00000000000E+00 0. -1.
         22    1    3    3    0    0 -0.39108872121E+02 -0.31345893586E+02  0.13247216146E+03  0.14163665657E+03  0.00000000000E+00 0. -1.
</event>
<event>
 7    1  0.6152634E-006  0.1746213E+03  0.7818608E-02  0.1215773E+00
          2   -1    0    0  502    0  0.00000000000E+00  0.00000000000E+00  0.29756588399E+04  0.29756588399E+04  0.00000000000E+00 0. -1.
          1   -1    0    0  501    0 -0.00000000000E+00 -0.00000000000E+00 -0.12225323229E+03  0.12225323229E+03  0.00000000000E+00 0. -1.
         25    2    1    2    0    0  0.18255090421E+03 -0.87776136075E+02  0.19665865935E+03  0.30875382977E+03  0.12499926564E+03 0.  0.
          2    1    1    2  501    0 -0.90814881052E+02 -0.60952371975E+02 -0.16146504845E+02  0.11055878024E+03  0.00000000000E+00 0. -1.
          1    1    1    2  502    0 -0.91736023163E+02  0.14872850805E+03  0.26728934531E+04  0.26785994621E+04  0.00000000000E+00 0. -1.
         22    1    3    3    0    0  0.52046932982E+02 -0.93886110546E+02  0.91028493139E+02  0.14074683495E+03  0.00000000000E+00 0.  1.
         22    1    3    3    0    0  0.13050397123E+03  0.61099744711E+01  0.10563016621E+03  0.16800699482E+03  0.00000000000E+00 0.  1.
</event>
<event>
 7    1  0.6152634E-006  0.5066205E+02  0.7818608E-02  0.1502621E+00
          2   -1    0    0  502    0  0.00000000000E+00  0.00000000000E+00  0.16589037843E+04  0.16589037843E+04  0.00000000000E+00 0. -1.
          1   -1    0    0  501    0 -0.00000000000E+00 -0.00000000000E+00 -0.98177943154E+02  0.98177943154E+02  0.00000000000E+00 0. -1.
         25    2    1    2    0    0  0.22194821613E+02 -0.34098820363E+02  0.18960811396E+03  0.23071871002E+03  0.12499818644E+03 0.  0.
          2    1    1    2  501    0  0.26650836417E+02  0.19135795340E+02 -0.73684003183E+02  0.80658403593E+02  0.00000000000E+00 0. -1.
          1    1    1    2  502    0 -0.48845658031E+02  0.14963025022E+02  0.14448017304E+04  0.14457046138E+04  0.00000000000E+00 0. -1.
         22    1    3    3    0    0 -0.25967145421E+02  0.53864517961E+01 -0.44689801163E+01  0.26893833634E+02  0.00000000000E+00 0.  1.
         22    1    3    3    0    0  0.48161967034E+02 -0.39485272159E+02  0.19407709408E+03  0.20382487638E+03  0.00000000000E+00 0.  1.
</event>
<event>
 7    1  0.6152634E-006  0.2647332E+03  0.7818608E-02  0.1175006E+00
          2   -1    0    0  502    0  0.00000000000E+00  0.00000000000E+00  0.73527161671E+03  0.73527161671E+03  0.00000000000E+00 0. -1.
          1   -1    0    0  501    0 -0.00000000000E+00 -0.00000000000E+00 -0.11682358366E+04  0.11682358366E+04  0.00000000000E+00 0. -1.
         25    2    1    2    0    0  0.44034962937E+02  0.18555675778E+03  0.32127478167E+02  0.23028072116E+03  0.12500658929E+03 0.  0.
          2    1    1    2  501    0 -0.36012260697E+02  0.10682537877E+03 -0.10304976755E+04  0.10366455536E+04  0.00000000000E+00 0. -1.
          1    1    1    2  502    0 -0.80227022392E+01 -0.29238213655E+03  0.56540597749E+03  0.63658117857E+03  0.00000000000E+00 0. -1.
         22    1    3    3    0    0  0.80863636639E+02  0.14586254760E+03 -0.10423118836E+01  0.16678098493E+03  0.00000000000E+00 0.  1.
         22    1    3    3    0    0 -0.36828673702E+02  0.39694210185E+02  0.33169790051E+02  0.63499736227E+02  0.00000000000E+00 0.  1.
</event>
<event>
 7    1  0.6152634E-006  0.9280956E+02  0.7818608E-02  0.1398843E+00
          2   -1    0    0  502    0  0.00000000000E+00  0.00000000000E+00  0.14896857506E+04  0.14896857506E+04  0.00000000000E+00 0. -1.
          1   -1    0    0  501    0 -0.00000000000E+00 -0.00000000000E+00 -0.11612585952E+03  0.11612585952E+03  0.00000000000E+00 0. -1.
         25    2    1    2    0    0 -0.41013243562E+02  0.37389520421E+02  0.29925497447E+01  0.13680088166E+03  0.12500185393E+03 0.  0.
          2    1    1    2  501    0 -0.32247781635E+02  0.20993268579E+02 -0.39902574081E+02  0.55433312767E+02  0.00000000000E+00 0. -1.
          1    1    1    2  502    0  0.73261025197E+02 -0.58382789001E+02  0.14104699154E+04  0.14135774157E+04  0.00000000000E+00 0. -1.
         22    1    3    3    0    0 -0.70059633191E+02  0.22915880398E+02 -0.39266506149E+02  0.83518550529E+02  0.00000000000E+00 0.  1.
         22    1    3    3    0    0  0.29046389629E+02  0.14473640023E+02  0.42259055894E+02  0.53282331134E+02  0.00000000000E+00 0.  1.
</event>
<event>
 7    1  0.6152634E-006  0.1113803E+03  0.7818608E-02  0.1310081E+00
          2   -1    0    0  502    0  0.00000000000E+00  0.00000000000E+00  0.11671117630E+03  0.11671117630E+03  0.00000000000E+00 0. -1.
          1   -1    0    0  501    0 -0.00000000000E+00 -0.00000000000E+00 -0.18394377724E+04  0.18394377724E+04  0.00000000000E+00 0. -1.
         25    2    1    2    0    0 -0.65158497301E+02  0.20720488674E+02 -0.45634528365E+03  0.47805592716E+03  0.12494592095E+03 0.  0.
          2    1    1    2  501    0 -0.85151483230E+01  0.67546979748E+02 -0.13398966827E+04  0.13416252168E+04  0.00000000000E+00 0. -1.
          1    1    1    2  502    0  0.73673645624E+02 -0.88267468422E+02  0.73515370264E+02  0.13646780465E+03  0.00000000000E+00 0. -1.
         22    1    3    3    0    0 -0.72289345713E+02 -0.38989665582E+02 -0.25210164746E+03  0.26514370477E+03  0.00000000000E+00 0. -1.
         22    1    3    3    0    0  0.71308484119E+01  0.59710154256E+02 -0.20424363618E+03  0.21291222239E+03  0.00000000000E+00 0. -1.
</event>
<event>
 7    1  0.6152634E-006  0.3607542E+02  0.7818608E-02  0.1549998E+00
          2   -1    0    0  502    0  0.00000000000E+00  0.00000000000E+00  0.38387602858E+03  0.38387602858E+03  0.00000000000E+00 0. -1.
          1   -1    0    0  501    0 -0.00000000000E+00 -0.00000000000E+00 -0.26465818971E+04  0.26465818971E+04  0.00000000000E+00 0. -1.
         25    2    1    2    0    0  0.10056566885E+02 -0.68756874363E+01 -0.14068789585E+03  0.18855879714E+03  0.12495169597E+03 0.  0.
          2    1    1    2  501    0  0.77995361880E+01  0.35400730782E+02 -0.24810392585E+04  0.24813040617E+04  0.00000000000E+00 0. -1.
          1    1    1    2  502    0 -0.17856103073E+02 -0.28525043346E+02  0.35902128584E+03  0.36059506680E+03  0.00000000000E+00 0. -1.
         22    1    3    3    0    0  0.72981818044E+01 -0.64277583881E+02 -0.52570947794E+02  0.83358117776E+02  0.00000000000E+00 0. -1.
         22    1    3    3    0    0  0.27583850810E+01  0.57401896445E+02 -0.88116948057E+02  0.10520067936E+03  0.00000000000E+00 0. -1.
</event>
<event>
 7    1  0.6152634E-006  0.6480412E+02  0.7818608E-02  0.1521295E+00
          2   -1    0    0  502    0  0.00000000000E+00  0.00000000000E+00  0.44827912948E+03  0.44827912948E+03  0.00000000000E+00 0. -1.
          1   -1    0    0  501    0 -0.00000000000E+00 -0.00000000000E+00 -0.38877363549E+03  0.38877363549E+03  0.00000000000E+00 0. -1.
         25    2    1    2    0    0  0.76185348634E+02  0.35456264033E+02 -0.28676481344E+03  0.32391648890E+03  0.12500591805E+03 0.  0.
          2    1    1    2  501    0 -0.13997342179E+02 -0.17753171608E+02 -0.79414042193E+02  0.82569308994E+02  0.00000000000E+00 0. -1.
          1    1    1    2  502    0 -0.62188006455E+02 -0.17703092426E+02  0.42568434962E+03  0.43056696708E+03  0.00000000000E+00 0. -1.
         22    1    3    3    0    0  0.26612650198E+02 -0.30675030915E+02 -0.20002495587E+03  0.20410579033E+03  0.00000000000E+00 0. -1.
         22    1    3    3    0    0  0.49572698437E+02  0.66131294948E+02 -0.86739857566E+02  0.11981069857E+03  0.00000000000E+00 0. -1.
</event>
<event>
 7    1  0.6152634E-006  0.1002472E+03  0.7818608E-02  0.1348168E+00
          2   -1    0    0  502    0  0.00000000000E+00  0.00000000000E+00  0.18661172192E+03  0.18661172192E+03  0.00000000000E+00 0. -1.
          1   -1    0    0  501    0 -0.00000000000E+00 -0.00000000000E+00 -0.60909714282E+03  0.60909714282E+03  0.00000000000E+00 0. -1.
         25    2    1    2    0    0 -0.57092797846E+02  0.49292218736E+02 -0.38459102549E+03  0.41136933992E+03  0.12500066618E+03 0.  0.
          2    1    1    2  501    0  0.25974608322E+02  0.47433087924E+02 -0.19215629890E+03  0.19962119455E+03  0.00000000000E+00 0. -1.
          1    1    1    2  502    0  0.31118189524E+02 -0.96725306660E+02  0.15426190349E+03  0.18471833026E+03  0.00000000000E+00 0. -1.
         22    1    3    3    0    0  0.22436691879E+02 -0.14461881501E+02 -0.18838497369E+03  0.19026678499E+03  0.00000000000E+00 0.  1.
         22    1    3    3    0    0 -0.79529489725E+02  0.63754100237E+02 -0.19620605181E+03  0.22110255494E+03  0.00000000000E+00 0.  1.
</event>
<event>
 7    1  0.6152634E-006  0.3094274E+02  0.7818608E-02  0.1627928E+00
          2   -1    0    0  502    0  0.00000000000E+00  0.00000000000E+00  0.69196310328E+02  0.69196310328E+02  0.00000000000E+00 0. -1.
          1   -1    0    0  501    0 -0.00000000000E+00 -0.00000000000E+00 -0.11548063663E+04  0.11548063663E+04  0.00000000000E+00 0. -1.
         25    2    1    2    0    0 -0.79118044207E+01  0.17905408218E+02 -0.23953302147E+02  0.12877077251E+03  0.12499980350E+03 0.  0.
          2    1    1    2  501    0 -0.24017549473E+02 -0.41772513287E+01 -0.10601641038E+04  0.10604443498E+04  0.00000000000E+00 0. -1.
          1    1    1    2  502    0  0.31929353893E+02 -0.13728156889E+02 -0.14926500638E+01  0.34787554324E+02  0.00000000000E+00 0. -1.
         22    1    3    3    0    0 -0.50068936048E+02  0.46912453388E+02 -0.34073138878E+02  0.76607150011E+02  0.00000000000E+00 0. -1.
         22    1    3    3    0    0  0.42157131627E+02 -0.29007045170E+02  0.10119836731E+02  0.52163622497E+02  0.00000000000E+00 0. -1.
</event>
<event>
 7    1  0.6152634E-006  0.4977534E+02  0.7818608E-02  0.1523476E+00
          2   -1    0    0  502    0  0.00000000000E+00  0.00000000000E+00  0.13377500194E+03  0.13377500194E+03  0.00000000000E+00 0. -1.
          1   -1    0    0  501    0 -0.00000000000E+00 -0.00000000000E+00 -0.13805299354E+04  0.13805299354E+04  0.00000000000E+00 0. -1.
         25    2    1    2    0    0 -0.49138245359E+02  0.38471723733E+02 -0.14712912029E+03  0.20289574851E+03  0.12500026418E+03 0.  0.
          2    1    1    2  501    0  0.28271685037E+02  0.64967150727E+01 -0.11995304290E+04  0.11998811381E+04  0.00000000000E+00 0. -1.
          1    1    1    2  502    0  0.20866560323E+02 -0.44968438806E+02  0.99904615839E+02  0.11152805071E+03  0.00000000000E+00 0. -1.
         22    1    3    3    0    0  0.26435407452E+02  0.38366107422E+02 -0.12069185159E+02  0.48129556369E+02  0.00000000000E+00 0. -1.
         22    1    3    3    0    0 -0.75573652812E+02  0.10561631075E+00 -0.13505993513E+03  0.15476619214E+03  0.00000000000E+00 0. -1.
</event>
<event>
 7    1  0.6152634E-006  0.9345093E+02  0.7818608E-02  0.1320324E+00
          2   -1    0    0  502    0  0.00000000000E+00  0.00000000000E+00  0.64333913959E+03  0.64333913959E+03  0.00000000000E+00 0. -1.
          1   -1    0    0  501    0 -0.00000000000E+00 -0.00000000000E+00 -0.57404939417E+03  0.57404939417E+03  0.00000000000E+00 0. -1.
         25    2    1    2    0    0 -0.54280007731E+02  0.51507596598E+02  0.29470335253E+03  0.32874435165E+03  0.12499372383E+03 0.  0.
          2    1    1    2  501    0 -0.64295084303E+01 -0.93815163701E+02 -0.54885190399E+03  0.55684920404E+03  0.00000000000E+00 0. -1.
          1    1    1    2  502    0  0.60709516161E+02  0.42307567103E+02  0.32343829689E+03  0.33179497808E+03  0.00000000000E+00 0. -1.
         22    1    3    3    0    0  0.88646300863E+01  0.74082272216E+02  0.19303399591E+03  0.20695141531E+03  0.00000000000E+00 0. -1.
         22    1    3    3    0    0 -0.63144637817E+02 -0.22574675618E+02  0.10166935662E+03  0.12179293633E+03  0.00000000000E+00 0. -1.
</event>
<event>
 7    1  0.6152634E-006  0.5948813E+02  0.7818608E-02  0.1457134E+00
          2   -1    0    0  502    0  0.00000000000E+00  0.00000000000E+00  0.18655060962E+03  0.18655060962E+03  0.00000000000E+00 0. -1.
          1   -1    0    0  501    0 -0.00000000000E+00 -0.00000000000E+00 -0.92311484837E+03  0.92311484837E+03  0.00000000000E+00 0. -1.
         25    2    1    2    0    0 -0.37100276778E+02 -0.70621077151E+02 -0.91772952231E+02  0.17438555898E+03  0.12499712534E+03 0.  0.
          2    1    1    2  501    0  0.36724808103E+02  0.11668795270E+02 -0.78356037231E+03  0.78450731633E+03  0.00000000000E+00 0. -1.
          1    1    1    2  502    0  0.37546867469E+00  0.58952281881E+02  0.13876908580E+03  0.15077258268E+03  0.00000000000E+00 0. -1.
         22    1    3    3    0    0 -0.19519179014E+02 -0.96806282950E+02 -0.27058458386E+02  0.10239440873E+03  0.00000000000E+00 0. -1.
         22    1    3    3    0    0 -0.17581097764E+02  0.26185205798E+02 -0.64714493845E+02  0.71991150254E+02  0.00000000000E+00 0. -1.
</event>
<event>
 7    1  0.6152634E-006  0.1909321E+03  0.7818608E-02  0.1281310E+00
          2   -1    0    0  502    0  0.00000000000E+00  0.00000000000E+00  0.36194441836E+03  0.36194441836E+03  0.00000000000E+00 0. -1.
          1   -1    0    0  501    0 -0.00000000000E+00 -0.00000000000E+00 -0.16483445217E+04  0.16483445217E+04  0.00000000000E+00 0. -1.
         25    2    1    2    0    0  0.11912094257E+03 -0.17344910516E+03 -0.34749587624E+03  0.42503253536E+03  0.12499952428E+03 0.  0.
          2    1    1    2  501    0 -0.67303548702E+02  0.17584033936E+03 -0.12529185927E+04  0.12669864216E+04  0.00000000000E+00 0. -1.
          1    1    1    2  502    0 -0.51817393868E+02 -0.23912341922E+01  0.31401436562E+03  0.31826998307E+03  0.00000000000E+00 0. -1.
         22    1    3    3    0    0  0.61174596623E+02 -0.32222218669E+02 -0.35566153508E+02  0.77753160214E+02  0.00000000000E+00 0.  1.
         22    1    3    3    0    0  0.57946345946E+02 -0.14122688650E+03 -0.31192972273E+03  0.34727937515E+03  0.00000000000E+00 0.  1.
</event>
<event>
 7    1  0.6152634E-006  0.3329933E+03  0.7818608E-02  0.1132724E+00
          2   -1    0    0  502    0  0.00000000000E+00  0.00000000000E+00  0.22812012601E+04  0.22812012601E+04  0.00000000000E+00 0. -1.
          1   -1    0    0  501    0 -0.00000000000E+00 -0.00000000000E+00 -0.11481147535E+04  0.11481147535E+04  0.00000000000E+00 0. -1.
         25    2    1    2    0    0 -0.18924344039E+03 -0.61375257827E+02 -0.20768071016E+03  0.31358559453E+03  0.12499858286E+03 0.  0.
          2    1    1    2  501    0 -0.11200559459E+03 -0.95849569868E+02 -0.86827719054E+03  0.88070294247E+03  0.00000000000E+00 0. -1.
          1    1    1    2  502    0  0.30124903499E+03  0.15722482769E+03  0.22090444073E+04  0.22350274766E+04  0.00000000000E+00 0. -1.
         22    1    3    3    0    0 -0.58569095599E+02  0.28824422365E+02 -0.21134835211E+02  0.68613901969E+02  0.00000000000E+00 0.  1.
         22    1    3    3    0    0 -0.13067434479E+03 -0.90199680192E+02 -0.18654587495E+03  0.24497169256E+03  0.00000000000E+00 0.  1.
</event>
<event>
 7    1  0.6152634E-006  0.9040698E+02  0.7818608E-02  0.1361333E+00
          2   -1    0    0  502    0  0.00000000000E+00  0.00000000000E+00  0.53449089512E+03  0.53449089512E+03  0.00000000000E+00 0. -1.
          1   -1    0    0  501    0 -0.00000000000E+00 -0.00000000000E+00 -0.60554156648E+03  0.60554156648E+03  0.00000000000E+00 0. -1.
         25    2    1    2    0    0  0.90086387615E+02  0.70926542544E+02  0.25786113960E+03  0.30864804273E+03  0.12500046117E+03 0.  0.
          2    1    1    2  501    0 -0.37613909200E+02 -0.82049198994E+02 -0.57371607064E+03  0.58077276703E+03  0.00000000000E+00 0. -1.
          1    1    1    2  502    0 -0.52472478415E+02  0.11122656451E+02  0.24480425967E+03  0.25061165183E+03  0.00000000000E+00 0. -1.
         22    1    3    3    0    0  0.22879415594E+02  0.58922210044E+02  0.22340584884E+03  0.23217551074E+03  0.00000000000E+00 0. -1.
         22    1    3    3    0    0  0.67206972021E+02  0.12004332500E+02  0.34455290769E+02  0.76472531990E+02  0.00000000000E+00 0. -1.
</event>
<event>
 7    1  0.6152634E-006  0.6688332E+02  0.7818608E-02  0.1425959E+00
          2   -1    0    0  502    0  0.00000000000E+00  0.00000000000E+00  0.21936924829E+04  0.21936924829E+04  0.00000000000E+00 0. -1.
          1   -1    0    0  501    0 -0.00000000000E+00 -0.00000000000E+00 -0.13981681557E+04  0.13981681557E+04  0.00000000000E+00 0. -1.
         25    2    1    2    0    0  0.29542180423E+02 -0.11609435962E+02  0.11828931750E+03  0.17500150616E+03  0.12500258036E+03 0.  0.
          2    1    1    2  501    0  0.12511643324E+02 -0.41393999167E+02 -0.13689114558E+04  0.13695943116E+04  0.00000000000E+00 0. -1.
          1    1    1    2  502    0 -0.42053823747E+02  0.53003435129E+02  0.20461464655E+04  0.20472648208E+04  0.00000000000E+00 0. -1.
         22    1    3    3    0    0  0.72374882733E+02 -0.30402530422E+02  0.93431650545E+02  0.12203241713E+03  0.00000000000E+00 0.  1.
         22    1    3    3    0    0 -0.42832702311E+02  0.18793094460E+02  0.24857666952E+02  0.52969089032E+02  0.00000000000E+00 0.  1.
</event>
<event>
 7    1  0.6274559E-006  0.8680857E+02  0.7818608E-02  0.1358173E+00
          2   -1    0    0  502    0  0.00000000000E+00  0.00000000000E+00  0.14865035649E+04  0.14865035649E+04  0.00000000000E+00 0. -1.
          1   -1    0    0  501    0 -0.00000000000E+00 -0.00000000000E+00 -0.89646561898E+03  0.89646561898E+03  0.00000000000E+00 0. -1.
         25    2    1    2    0    0 -0.44930778890E+02 -0.54505187671E+02 -0.66392236672E+03  0.67926902343E+03  0.12499562711E+03 0.  0.
          2    1    1    2  501    0 -0.40780005181E+02  0.40345651034E+02 -0.21991146534E+03  0.22727039615E+03  0.00000000000E+00 0. -1.
          1    1    1    2  502    0  0.85710784071E+02  0.14159536637E+02  0.14738717779E+04  0.14764297643E+04  0.00000000000E+00 0. -1.
         22    1    3    3    0    0 -0.87133496029E+02 -0.36060498554E+02 -0.37367978789E+03  0.38539484891E+03  0.00000000000E+00 0. -1.
         22    1    3    3    0    0  0.42202717139E+02 -0.18444689117E+02 -0.29024257882E+03  0.29387417452E+03  0.00000000000E+00 0. -1.
</event>
<event>
 7    1  0.6152634E-006  0.1165321E+03  0.7818608E-02  0.1318534E+00
          2   -1    0    0  502    0  0.00000000000E+00  0.00000000000E+00  0.58869746155E+03  0.58869746155E+03  0.00000000000E+00 0. -1.
          1   -1    0    0  501    0 -0.00000000000E+00 -0.00000000000E+00 -0.80297708636E+02  0.80297708636E+02  0.00000000000E+00 0. -1.
         25    2    1    2    0    0 -0.54734920365E+02 -0.83086381355E+02  0.13062769289E+03  0.20636846892E+03  0.12500037016E+03 0.  0.
          2    1    1    2  501    0  0.17867551699E+02  0.13080057778E+03  0.70826669090E+02  0.14981474429E+03  0.00000000000E+00 0. -1.
          1    1    1    2  502    0  0.36867368666E+02 -0.47714196423E+02  0.30694539094E+03  0.31281195698E+03  0.00000000000E+00 0. -1.
         22    1    3    3    0    0  0.78066428463E+01 -0.62886444292E+02  0.12532137784E+03  0.14043182080E+03  0.00000000000E+00 0. -1.
         22    1    3    3    0    0 -0.62541563212E+02 -0.20199937063E+02  0.53063150463E+01  0.65936648123E+02  0.00000000000E+00 0. -1.
</event>
<event>
 7    1  0.6152634E-006  0.1864391E+03  0.7818608E-02  0.1263132E+00
          2   -1    0    0  502    0  0.00000000000E+00  0.00000000000E+00  0.26046881635E+04  0.26046881635E+04  0.00000000000E+00 0. -1.
          1   -1    0    0  501    0 -0.00000000000E+00 -0.00000000000E+00 -0.24898622376E+03  0.24898622376E+03  0.00000000000E+00 0. -1.
         25    2    1    2    0    0  0.16487931388E+03  0.12110721859E+02  0.66403115401E+03  0.69562499906E+03  0.12499963233E+03 0.  0.
          2    1    1    2  501    0 -0.18164236869E+03  0.48920590390E+02 -0.19463374613E+03  0.27068333787E+03  0.00000000000E+00 0. -1.
          1    1    1    2  502    0  0.16763054812E+02 -0.61031312250E+02  0.18863045319E+04  0.18873660504E+04  0.00000000000E+00 0. -1.
         22    1    3    3    0    0  0.84101796277E+02 -0.32323717315E+02  0.49456159808E+03  0.50270180936E+03  0.00000000000E+00 0.  1.
         22    1    3    3    0    0  0.80777517601E+02  0.44434439174E+02  0.16946955593E+03  0.19292318970E+03  0.00000000000E+00 0.  1.
</event>
<event>
 7    1  0.6152634E-006  0.9893556E+02  0.7818608E-02  0.1351616E+00
          2   -1    0    0  502    0  0.00000000000E+00  0.00000000000E+00  0.77593131854E+03  0.77593131854E+03  0.00000000000E+00 0. -1.
          1   -1    0    0  501    0 -0.00000000000E+00 -0.00000000000E+00 -0.62744999527E+02  0.62744999527E+02  0.00000000000E+00 0. -1.
         25    2    1    2    0    0 -0.70771802208E+02 -0.19142515656E+02  0.43160680693E+03  0.45528669515E+03  0.12500582025E+03 0.  0.
          2    1    1    2  501    0 -0.51182374095E+02 -0.14541203868E+02 -0.19609138362E+02  0.56706263633E+02  0.00000000000E+00 0. -1.
          1    1    1    2  502    0  0.12195417630E+03  0.33683719524E+02  0.30118865044E+03  0.32668335928E+03  0.00000000000E+00 0. -1.
         22    1    3    3    0    0 -0.39209857150E+02  0.39722442928E+02  0.32298551062E+03  0.32777267342E+03  0.00000000000E+00 0. -1.
         22    1    3    3    0    0 -0.31561945058E+02 -0.58864958583E+02  0.10862129631E+03  0.12751402173E+03  0.00000000000E+00 0. -1.
</event>
<event>
 7    1  0.6152634E-006  0.6234326E+02  0.7818608E-02  0.1404317E+00
          2   -1    0    0  502    0  0.00000000000E+00  0.00000000000E+00  0.88008756624E+03  0.88008756624E+03  0.00000000000E+00 0. -1.
          1   -1    0    0  501    0 -0.00000000000E+00 -0.00000000000E+00 -0.45388530424E+02  0.45388530424E+02  0.00000000000E+00 0. -1.
         25    2    1    2    0    0 -0.32598500532E+01 -0.43992995531E+01  0.36981065846E+03  0.39040350813E+03  0.12499998235E+03 0.  0.
          2    1    1    2  501    0  0.80507671942E+01 -0.61821255132E+02 -0.30785909684E+01  0.62419229095E+02  0.00000000000E+00 0. -1.
          1    1    1    2  502    0 -0.47909171410E+01  0.66220554685E+02  0.46796696833E+03  0.47265335945E+03  0.00000000000E+00 0. -1.
         22    1    3    3    0    0  0.52225750050E+02 -0.30528335149E+02  0.22820968740E+03  0.23609144338E+03  0.00000000000E+00 0.  1.
         22    1    3    3    0    0 -0.55485600103E+02  0.26129035596E+02  0.14160097106E+03  0.15431206474E+03  0.00000000000E+00 0.  1.
</event>
<event>
 7    1  0.6152634E-006  0.8224380E+02  0.7818608E-02  0.1376817E+00
          2   -1    0    0  502    0  0.00000000000E+00  0.00000000000E+00  0.56997648687E+03  0.56997648687E+03  0.00000000000E+00 0. -1.
          1   -1    0    0  501    0 -0.00000000000E+00 -0.00000000000E+00 -0.29829690922E+03  0.29829690922E+03  0.00000000000E+00 0. -1.
         25    2    1    2    0    0 -0.58673239688E+02 -0.98067384980E+01 -0.89528772788E+02  0.16486087475E+03  0.12499994276E+03 0.  0.
          2    1    1    2  501    0  0.85516004409E+02 -0.34565276927E+02 -0.15728306995E+03  0.18233406010E+03  0.00000000000E+00 0. -1.
          1    1    1    2  502    0 -0.26842764721E+02  0.44372015425E+02  0.51849142038E+03  0.52107846125E+03  0.00000000000E+00 0. -1.
         22    1    3    3    0    0 -0.97298965460E+02  0.32715287844E+01 -0.67963771289E+02  0.11873022272E+03  0.00000000000E+00 0. -1.
         22    1    3    3    0    0  0.38625725772E+02 -0.13078267282E+02 -0.21565001499E+02  0.46130652024E+02  0.00000000000E+00 0. -1.
</event>
<event>
 7    1  0.6152634E-006  0.9722202E+02  0.7818608E-02  0.1435124E+00
          2   -1    0    0  502    0  0.00000000000E+00  0.00000000000E+00  0.64178439333E+03  0.64178439333E+03  0.00000000000E+00 0. -1.
          1   -1    0    0  501    0 -0.00000000000E+00 -0.00000000000E+00 -0.71184098777E+03  0.71184098777E+03  0.00000000000E+00 0. -1.
         25    2    1    2    0    0 -0.80778818953E+02  0.57072297094E+01 -0.36856269398E+03  0.39751901930E+03  0.12500048500E+03 0.  0.
          2    1    1    2  501    0  0.10567581477E+03 -0.17971950616E+02 -0.31974393964E+03  0.33723368125E+03  0.00000000000E+00 0. -1.
          1    1    1    2  502    0 -0.24896995814E+02  0.12264720907E+02  0.61825003918E+03  0.61887268054E+03  0.00000000000E+00 0. -1.
         22    1    3    3    0    0  0.15817186475E+02  0.26531939010E+02 -0.19803755206E+03  0.20043203138E+03  0.00000000000E+00 0. -1.
         22    1    3    3    0    0 -0.96596005427E+02 -0.20824709301E+02 -0.17052514191E+03  0.19708698792E+03  0.00000000000E+00 0. -1.
</event>
<event>
 7    1  0.6152634E-006  0.5523048E+02  0.7818608E-02  0.1456244E+00
          2   -1    0    0  502    0  0.00000000000E+00  0.00000000000E+00  0.39106343250E+04  0.39106343250E+04  0.00000000000E+00 0. -1.
          1   -1    0    0  501    0 -0.00000000000E+00 -0.00000000000E+00 -0.12375098650E+02  0.12375098650E+02  0.00000000000E+00 0. -1.
         25    2    1    2    0    0  0.25516788145E+01 -0.15278182363E+02  0.48078510337E+03  0.49701077320E+03  0.12500183654E+03 0.  0.
          2    1    1    2  501    0  0.52062932328E+02  0.23503121545E+02  0.19862374769E+03  0.20667447542E+03  0.00000000000E+00 0. -1.
          1    1    1    2  502    0 -0.54614611142E+02 -0.82249391813E+01  0.32188503753E+04  0.32193241750E+04  0.00000000000E+00 0. -1.
         22    1    3    3    0    0 -0.20022353821E+02  0.48281156407E+02  0.13616699996E+03  0.14585409352E+03  0.00000000000E+00 0.  1.
         22    1    3    3    0    0  0.22574032635E+02 -0.63559338770E+02  0.34461810341E+03  0.35115667969E+03  0.00000000000E+00 0.  1.
</event>
<event>
 7    1  0.6152634E-006  0.6125030E+02  0.7818608E-02  0.1393595E+00
          2   -1    0    0  502    0  0.00000000000E+00  0.00000000000E+00  0.10830240207E+04  0.10830240207E+04  0.00000000000E+00 0. -1.
          1   -1    0    0  501    0 -0.00000000000E+00 -0.00000000000E+00 -0.17198426418E+03  0.17198426418E+03  0.00000000000E+00 0. -1.
         25    2    1    2    0    0  0.48213781110E+01  0.21745567885E+02  0.40294068913E+03  0.42247165700E+03  0.12499994643E+03 0.  0.
          2    1    1    2  501    0  0.61236667860E+02  0.12921982931E+01 -0.15452922744E+03  0.16622539337E+03  0.00000000000E+00 0. -1.
          1    1    1    2  502    0 -0.66058045971E+02 -0.23037766178E+02  0.66262829484E+03  0.66631123450E+03  0.00000000000E+00 0. -1.
         22    1    3    3    0    0  0.44701342144E+02  0.56891501968E+02  0.26315124447E+03  0.27291652653E+03  0.00000000000E+00 0. -1.
         22    1    3    3    0    0 -0.39879964033E+02 -0.35145934083E+02  0.13978944466E+03  0.14955513048E+03  0.00000000000E+00 0. -1.
</event>
<event>
 7    1  0.6152634E-006  0.1100670E+03  0.7818608E-02  0.1409591E+00
          2   -1    0    0  502    0  0.00000000000E+00  0.00000000000E+00  0.10728325806E+04  0.10728325806E+04  0.00000000000E+00 0. -1.
          1   -1    0    0  501    0 -0.00000000000E+00 -0.00000000000E+00 -0.17686166023E+03  0.17686166023E+03  0.00000000000E+00 0. -1.
         25    2    1    2    0    0  0.85404241522E+02 -0.58900505504E+02  0.17599169626E+03  0.23950523682E+03  0.12500610903E+03 0.  0.
          2    1    1    2  501    0 -0.71294207210E+02  0.85164764410E+02 -0.12354945813E+03  0.16613358987E+03  0.00000000000E+00 0. -1.
          1    1    1    2  502    0 -0.14110034312E+02 -0.26264258906E+02  0.84352868223E+03  0.84405541412E+03  0.00000000000E+00 0. -1.
         22    1    3    3    0    0  0.19855640422E+02 -0.76821388013E+02  0.14396351035E+03  0.16438146010E+03  0.00000000000E+00 0. -1.
         22    1    3    3    0    0  0.65548601100E+02  0.17920882509E+02  0.32028185905E+02  0.75123776719E+02  0.00000000000E+00 0. -1.
</event>
<event>
 7    1  0.6152634E-006  0.6197806E+02  0.7818608E-02  0.1492091E+00
          2   -1    0    0  502    0  0.00000000000E+00  0.00000000000E+00  0.69956486946E+03  0.69956486946E+03  0.00000000000E+00 0. -1.
          1   -1    0    0  501    0 -0.00000000000E+00 -0.00000000000E+00 -0.69905219712E+02  0.69905219712E+02  0.00000000000E+00 0. -1.
         25    2    1    2    0    0  0.27848083306E+02 -0.56799858507E+02  0.86757996709E+02  0.16479103078E+03  0.12500957628E+03 0.  0.
          2    1    1    2  501    0 -0.50006286783E+02  0.38341743194E+02  0.20374641412E+01  0.63046564134E+02  0.00000000000E+00 0. -1.
          1    1    1    2  502    0  0.22158203478E+02  0.18458115313E+02  0.54086418889E+03  0.54163249425E+03  0.00000000000E+00 0. -1.
         22    1    3    3    0    0  0.73651910200E+02 -0.11959937873E+02  0.35062790597E+02  0.82444182781E+02  0.00000000000E+00 0. -1.
         22    1    3    3    0    0 -0.45803826894E+02 -0.44839920634E+02  0.51695206113E+02  0.82346848000E+02  0.00000000000E+00 0. -1.
</event>
<event>
 7    1  0.6152634E-006  0.9221823E+02  0.7818608E-02  0.1406448E+00
          2   -1    0    0  502    0  0.00000000000E+00  0.00000000000E+00  0.68394296968E+03  0.68394296968E+03  0.00000000000E+00 0. -1.
          1   -1    0    0  501    0 -0.00000000000E+00 -0.00000000000E+00 -0.93907667837E+03  0.93907667837E+03  0.00000000000E+00 0. -1.
         25    2    1    2    0    0  0.31632472636E+02  0.47268909545E+02  0.35629392509E+03  0.38185278184E+03  0.12502488875E+03 0.  0.
          2    1    1    2  501    0 -0.59641175123E+02 -0.70628381537E+02 -0.92292433910E+03  0.92754232990E+03  0.00000000000E+00 0. -1.
          1    1    1    2  502    0  0.28008702487E+02  0.23359471992E+02  0.31149670533E+03  0.31362453631E+03  0.00000000000E+00 0. -1.
         22    1    3    3    0    0  0.15746649470E+02  0.61476911047E+02  0.68911562780E+02  0.93681220349E+02  0.00000000000E+00 0.  1.
         22    1    3    3    0    0  0.15885823166E+02 -0.14208001502E+02  0.28738236231E+03  0.28817156149E+03  0.00000000000E+00 0.  1.
</event>
<event>
 7    1  0.6152634E-006  0.6426787E+02  0.7818608E-02  0.1434798E+00
          2   -1    0    0  502    0  0.00000000000E+00  0.00000000000E+00  0.37988963890E+03  0.37988963890E+03  0.00000000000E+00 0. -1.
          1   -1    0    0  501    0 -0.00000000000E+00 -0.00000000000E+00 -0.21660502189E+04  0.21660502189E+04  0.00000000000E+00 0. -1.
         25    2    1    2    0    0 -0.10606644383E+03  0.43302761406E+01  0.14445435474E+03  0.21854024375E+03  0.12499574288E+03 0.  0.
          2    1    1    2  501    0  0.63980401899E+02 -0.47483458000E+01 -0.21262857750E+04  0.21272534489E+04  0.00000000000E+00 0. -1.
          1    1    1    2  502    0  0.42086041929E+02  0.41806965932E+00  0.19567084027E+03  0.20014616519E+03  0.00000000000E+00 0. -1.
         22    1    3    3    0    0 -0.15486940495E+01 -0.11170312013E+02  0.10523169876E+03  0.10583423240E+03  0.00000000000E+00 0. -1.
         22    1    3    3    0    0 -0.10451774978E+03  0.15500588153E+02  0.39222655979E+02  0.11270601135E+03  0.00000000000E+00 0. -1.
</event>
<event>
 7    1  0.7240582E-006  0.4416009E+02  0.7818608E-02  0.1484629E+00
          2   -1    0    0  502    0  0.00000000000E+00  0.00000000000E+00  0.17129343210E+04  0.17129343210E+04  0.00000000000E+00 0. -1.
          1   -1    0    0  501    0 -0.00000000000E+00 -0.00000000000E+00 -0.27450113925E+04  0.27450113925E+04  0.00000000000E+00 0. -1.
         25    2    1    2    0    0 -0.46494229816E+02 -0.59643878904E+02 -0.62854430105E+03  0.64530000718E+03  0.12500022074E+03 0.  0.
          2    1    1    2  501    0  0.39503339188E+02  0.16050704192E+02 -0.21075876721E+04  0.21080189597E+04  0.00000000000E+00 0. -1.
          1    1    1    2  502    0  0.69908906279E+01  0.43593174712E+02  0.17040549017E+04  0.17046267466E+04  0.00000000000E+00 0. -1.
         22    1    3    3    0    0  0.19382316441E+02 -0.74709960281E+02 -0.29131001046E+03  0.30136153463E+03  0.00000000000E+00 0.  1.
         22    1    3    3    0    0 -0.65876546257E+02  0.15066081377E+02 -0.33723429059E+03  0.34393847256E+03  0.00000000000E+00 0.  1.
</event>
<event>
 7    1  0.1040800E-005  0.1434463E+03  0.7818608E-02  0.1234581E+00
          2   -1    0    0  502    0  0.00000000000E+00  0.00000000000E+00  0.14001775899E+04  0.14001775899E+04  0.00000000000E+00 0. -1.
          1   -1    0    0  501    0 -0.00000000000E+00 -0.00000000000E+00 -0.17117239765E+04  0.17117239765E+04  0.00000000000E+00 0. -1.
         25    2    1    2    0    0  0.56754154703E+02  0.38379897666E+02 -0.36441991638E+03  0.39130616972E+03  0.12499836952E+03 0.  0.
          2    1    1    2  501    0 -0.12717852345E+03 -0.12219158397E+03 -0.13258519191E+04  0.13375307366E+04  0.00000000000E+00 0. -1.
          1    1    1    2  502    0  0.70424368748E+02  0.83811686302E+02  0.13787254489E+04  0.13830646601E+04  0.00000000000E+00 0. -1.
         22    1    3    3    0    0 -0.39844252050E+02  0.50727114469E+01 -0.11233794758E+03  0.11930260386E+03  0.00000000000E+00 0. -1.
         22    1    3    3    0    0  0.96598406753E+02  0.33307186219E+02 -0.25208196881E+03  0.27200356586E+03  0.00000000000E+00 0. -1.
</event>
<event>
 7    1  0.6152634E-006  0.1084872E+03  0.7818608E-02  0.1268246E+00
          2   -1    0    0  502    0  0.00000000000E+00  0.00000000000E+00  0.68046597093E+03  0.68046597093E+03  0.00000000000E+00 0. -1.
          1   -1    0    0  501    0 -0.00000000000E+00 -0.00000000000E+00 -0.13552781185E+04  0.13552781185E+04  0.00000000000E+00 0. -1.
         25    2    1    2    0    0 -0.44068562975E+02 -0.92051813788E+02 -0.34250336452E+03  0.37861464666E+03  0.12499968520E+03 0.  0.
          2    1    1    2  501    0  0.11163160167E+03  0.71712164580E+01 -0.98709687126E+03  0.99341495564E+03  0.00000000000E+00 0. -1.
          1    1    1    2  502    0 -0.67563038692E+02  0.84880597330E+02  0.65478808820E+03  0.66371448714E+03  0.00000000000E+00 0. -1.
         22    1    3    3    0    0  0.10073031049E+02 -0.10499618116E+03 -0.21453490722E+03  0.23906252410E+03  0.00000000000E+00 0. -1.
         22    1    3    3    0    0 -0.54141594024E+02  0.12944367368E+02 -0.12796845730E+03  0.13955212257E+03  0.00000000000E+00 0. -1.
</event>
<event>
 7    1  0.6152634E-006  0.7070120E+02  0.7818608E-02  0.1520842E+00
          2   -1    0    0  502    0  0.00000000000E+00  0.00000000000E+00  0.32613738705E+03  0.32613738705E+03  0.00000000000E+00 0. -1.
          1   -1    0    0  501    0 -0.00000000000E+00 -0.00000000000E+00 -0.10897124776E+03  0.10897124776E+03  0.00000000000E+00 0. -1.
         25    2    1    2    0    0  0.31345019619E+02  0.41818446684E+02  0.77229695420E+00  0.13548712864E+03  0.12499949138E+03 0.  0.
          2    1    1    2  501    0  0.17464463951E+02  0.11269066966E+02 -0.33558566252E+02  0.39473747482E+02  0.00000000000E+00 0. -1.
          1    1    1    2  502    0 -0.48809483570E+02 -0.53087513651E+02  0.24995240859E+03  0.26014775869E+03  0.00000000000E+00 0. -1.
         22    1    3    3    0    0  0.24750504018E+02  0.67247991379E+02  0.44589171163E+02  0.84398305544E+02  0.00000000000E+00 0. -1.
         22    1    3    3    0    0  0.65945156006E+01 -0.25429544695E+02 -0.43816874209E+02  0.51088823091E+02  0.00000000000E+00 0. -1.
</event>
<event>
 7    1  0.6152634E-006  0.2512991E+03  0.7818608E-02  0.1205875E+00
          2   -1    0    0  502    0  0.00000000000E+00  0.00000000000E+00  0.21314964961E+04  0.21314964961E+04  0.00000000000E+00 0. -1.
          1   -1    0    0  501    0 -0.00000000000E+00 -0.00000000000E+00 -0.43507886472E+03  0.43507886472E+03  0.00000000000E+00 0. -1.
         25    2    1    2    0    0 -0.10591580769E+03  0.15056587844E+03  0.12765472839E+03  0.25653331380E+03  0.12500147736E+03 0.  0.
          2    1    1    2  501    0 -0.76518100677E+02  0.35755812907E+02 -0.35692345961E+03  0.36678038921E+03  0.00000000000E+00 0. -1.
          1    1    1    2  502    0  0.18243390836E+03 -0.18632169134E+03  0.19256863626E+04  0.19432616578E+04  0.00000000000E+00 0. -1.
         22    1    3    3    0    0 -0.41694923367E+01  0.79017751787E+02  0.11705798012E+01  0.79136338182E+02  0.00000000000E+00 0. -1.
         22    1    3    3    0    0 -0.10174631535E+03  0.71548126650E+02  0.12648414859E+03  0.17739697562E+03  0.00000000000E+00 0. -1.
</event>
<event>
 7    1  0.6152634E-006  0.2480398E+03  0.7818608E-02  0.1305279E+00
          2   -1    0    0  502    0  0.00000000000E+00  0.00000000000E+00  0.80417591101E+03  0.80417591101E+03  0.00000000000E+00 0. -1.
          1   -1    0    0  501    0 -0.00000000000E+00 -0.00000000000E+00 -0.11330876823E+04  0.11330876823E+04  0.00000000000E+00 0. -1.
         25    2    1    2    0    0 -0.26431176214E+03  0.26640877822E+01 -0.97644239636E+02  0.30827464091E+03  0.12502420456E+03 0.  0.
          2    1    1    2  501    0  0.24417244932E+03 -0.27452076226E+02 -0.91352087295E+03  0.94598847076E+03  0.00000000000E+00 0. -1.
          1    1    1    2  502    0  0.20139312819E+02  0.24787988444E+02  0.68225334127E+03  0.68300048167E+03  0.00000000000E+00 0. -1.
         22    1    3    3    0    0 -0.13381667699E+03 -0.24433786706E+01  0.16468124499E+02  0.13484833060E+03  0.00000000000E+00 0. -1.
         22    1    3    3    0    0 -0.13049508515E+03  0.51074664528E+01 -0.11411236414E+03  0.17342631032E+03  0.00000000000E+00 0. -1.
</event>
<event>
 7    1  0.6152634E-006  0.4350810E+02  0.7818608E-02  0.1556308E+00
          2   -1    0    0  502    0  0.00000000000E+00  0.00000000000E+00  0.25432612217E+04  0.25432612217E+04  0.00000000000E+00 0. -1.
          1   -1    0    0  501    0 -0.00000000000E+00 -0.00000000000E+00 -0.51841188599E+03  0.51841188599E+03  0.00000000000E+00 0. -1.
         25    2    1    2    0    0 -0.17656728877E+02 -0.67626845447E+02  0.97331508677E+02  0.17315910812E+03  0.12500201536E+03 0.  0.
          2    1    1    2  501    0  0.96660515980E+01  0.24996228514E+02 -0.47992889818E+03  0.48067659742E+03  0.00000000000E+00 0. -1.
          1    1    1    2  502    0  0.79906772788E+01  0.42630616933E+02  0.24074467252E+04  0.24078374022E+04  0.00000000000E+00 0. -1.
         22    1    3    3    0    0  0.44640239026E+02  0.45199229809E+01  0.15314947417E+02  0.47410212596E+02  0.00000000000E+00 0. -1.
         22    1    3    3    0    0 -0.62296967903E+02 -0.72146768428E+02  0.82016561260E+02  0.12574889552E+03  0.00000000000E+00 0. -1.
</event>
<event>
 7    1  0.6152634E-006  0.9864734E+02  0.7818608E-02  0.1296849E+00
          2   -1    0    0  502    0  0.00000000000E+00  0.00000000000E+00  0.30485335695E+03  0.30485335695E+03  0.00000000000E+00 0. -1.
          1   -1    0    0  501    0 -0.00000000000E+00 -0.00000000000E+00 -0.17880147354E+04  0.17880147354E+04  0.00000000000E+00 0. -1.
         25    2    1    2    0    0 -0.10049126861E+02  0.61810334053E+02 -0.60139694797E+03  0.61743414348E+03  0.12500052065E+03 0.  0.
          2    1    1    2  501    0  0.96634752103E+02 -0.67661139275E+02 -0.11692241085E+04  0.11751601256E+04  0.00000000000E+00 0. -1.
          1    1    1    2  502    0 -0.86585625242E+02  0.58508052224E+01  0.28745967801E+03  0.30027382321E+03  0.00000000000E+00 0. -1.
         22    1    3    3    0    0  0.33212805452E+02 -0.17939533408E+02 -0.83310486945E+02  0.91463405469E+02  0.00000000000E+00 0. -1.
         22    1    3    3    0    0 -0.43261932313E+02  0.79749867461E+02 -0.51808646103E+03  0.52597073801E+03  0.00000000000E+00 0. -1.
</event>
<event>
 7    1  0.6152634E-006  0.3587047E+02  0.7818608E-02  0.1595673E+00
          2   -1    0    0  502    0  0.00000000000E+00  0.00000000000E+00  0.47069169729E+02  0.47069169729E+02  0.00000000000E+00 0. -1.
          1   -1    0    0  501    0 -0.00000000000E+00 -0.00000000000E+00 -0.12133266838E+04  0.12133266838E+04  0.00000000000E+00 0. -1.
         25    2    1    2    0    0  0.24933080261E+02  0.10744896677E+01 -0.27387752646E+03  0.30208711749E+03  0.12499965614E+03 0.  0.
          2    1    1    2  501    0  0.13048194893E+00  0.25458667657E+02 -0.91500948544E+03  0.91536359947E+03  0.00000000000E+00 0. -1.
          1    1    1    2  502    0 -0.25063562210E+02 -0.26533157324E+02  0.22629497790E+02  0.42945136610E+02  0.00000000000E+00 0. -1.
         22    1    3    3    0    0 -0.30143925361E+02  0.17181041409E+02 -0.22210907843E+03  0.22480277387E+03  0.00000000000E+00 0.  1.
         22    1    3    3    0    0  0.55077005622E+02 -0.16106551741E+02 -0.51768448034E+02  0.77284343622E+02  0.00000000000E+00 0.  1.
</event>
<event>
 7    1  0.6152634E-006  0.1237399E+03  0.7818608E-02  0.1281812E+00
          2   -1    0    0  502    0  0.00000000000E+00  0.00000000000E+00  0.76939409076E+03  0.76939409076E+03  0.00000000000E+00 0. -1.
          1   -1    0    0  501    0 -0.00000000000E+00 -0.00000000000E+00 -0.15423334753E+03  0.15423334753E+03  0.00000000000E+00 0. -1.
         25    2    1    2    0    0  0.35802950211E+02  0.44692652374E+02  0.59963594701E+02  0.14999733703E+03  0.12499713599E+03 0.  0.
          2    1    1    2  501    0  0.70229849322E+02  0.37595073056E+02 -0.86765221440E+02  0.11778720179E+03  0.00000000000E+00 0. -1.
          1    1    1    2  502    0 -0.10603279953E+03 -0.82287725431E+02  0.64196236997E+03  0.65584289947E+03  0.00000000000E+00 0. -1.
         22    1    3    3    0    0 -0.44170654974E+02  0.28886039444E+02  0.81472346897E+01  0.53402504330E+02  0.00000000000E+00 0. -1.
         22    1    3    3    0    0  0.79973605186E+02  0.15806612930E+02  0.51816360011E+02  0.96594832696E+02  0.00000000000E+00 0. -1.
</event>
<event>
 7    1  0.6152634E-006  0.2220574E+03  0.7818608E-02  0.1280124E+00
          2   -1    0    0  502    0  0.00000000000E+00  0.00000000000E+00  0.49546349076E+03  0.49546349076E+03  0.00000000000E+00 0. -1.
          1   -1    0    0  501    0 -0.00000000000E+00 -0.00000000000E+00 -0.10212480510E+04  0.10212480510E+04  0.00000000000E+00 0. -1.
         25    2    1    2    0    0 -0.10409239251E+03 -0.23311301002E+03 -0.35048977912E+03  0.45127026812E+03  0.12499947200E+03 0.  0.
          2    1    1    2  501    0  0.88144470572E+02  0.19091940452E+03 -0.60132319971E+03  0.63703159829E+03  0.00000000000E+00 0. -1.
          1    1    1    2  502    0  0.15947921941E+02  0.42193605508E+02  0.42602841855E+03  0.42840967539E+03  0.00000000000E+00 0. -1.
         22    1    3    3    0    0 -0.78490435262E+02 -0.10333640632E+03 -0.26125467739E+03  0.29170733237E+03  0.00000000000E+00 0.  1.
         22    1    3    3    0    0 -0.25601957251E+02 -0.12977660371E+03 -0.89235101727E+02  0.15956293575E+03  0.00000000000E+00 0.  1.
</event>
<event>
 7    1  0.6152634E-006  0.1032595E+03  0.7818608E-02  0.1353507E+00
          2   -1    0    0  502    0  0.00000000000E+00  0.00000000000E+00  0.30295380026E+03  0.30295380026E+03  0.00000000000E+00 0. -1.
          1   -1    0    0  501    0 -0.00000000000E+00 -0.00000000000E+00 -0.64582101704E+03  0.64582101704E+03  0.00000000000E+00 0. -1.
         25    2    1    2    0    0  0.29145706938E+02 -0.78460125520E+02 -0.32534113848E+03  0.35843600287E+03  0.12499619288E+03 0.  0.
          2    1    1    2  501    0  0.49176995261E+02  0.99167012687E+01 -0.29226858070E+03  0.29654281494E+03  0.00000000000E+00 0. -1.
          1    1    1    2  502    0 -0.78322702198E+02  0.68543424251E+02  0.27474250240E+03  0.29379599948E+03  0.00000000000E+00 0. -1.
         22    1    3    3    0    0 -0.44408873297E+02 -0.30931700486E+02 -0.69912935174E+02  0.88412310382E+02  0.00000000000E+00 0.  1.
         22    1    3    3    0    0  0.73554580235E+02 -0.47528425034E+02 -0.25542820331E+03  0.27002369249E+03  0.00000000000E+00 0.  1.
</event>
<event>
 7    1  0.6152634E-006  0.6714026E+02  0.7818608E-02  0.1456023E+00
          2   -1    0    0  502    0  0.00000000000E+00  0.00000000000E+00  0.21514396147E+04  0.21514396147E+04  0.00000000000E+00 0. -1.
          1   -1    0    0  501    0 -0.00000000000E+00 -0.00000000000E+00 -0.13890744932E+04  0.13890744932E+04  0.00000000000E+00 0. -1.
         25    2    1    2    0    0 -0.37496247007E+02 -0.54530310208E+02  0.33408299542E+03  0.36278859160E+03  0.12499836439E+03 0.  0.
          2    1    1    2  501    0 -0.23385097457E+02  0.25256352278E+02 -0.13738733044E+04  0.13743044068E+04  0.00000000000E+00 0. -1.
          1    1    1    2  502    0  0.60881344463E+02  0.29273957930E+02  0.18021554305E+04  0.18034211095E+04  0.00000000000E+00 0. -1.
         22    1    3    3    0    0  0.35191343057E+02 -0.57847904858E+02  0.14001471338E+03  0.15552790966E+03  0.00000000000E+00 0.  1.
         22    1    3    3    0    0 -0.72687590064E+02  0.33175946499E+01  0.19406828204E+03  0.20726068194E+03  0.00000000000E+00 0.  1.
</event>
<event>
 7    1  0.6152634E-006  0.1051893E+03  0.7818608E-02  0.1327421E+00
          2   -1    0    0  502    0  0.00000000000E+00  0.00000000000E+00  0.14020463129E+04  0.14020463129E+04  0.00000000000E+00 0. -1.
          1   -1    0    0  501    0 -0.00000000000E+00 -0.00000000000E+00 -0.61225405912E+03  0.61225405912E+03  0.00000000000E+00 0. -1.
         25    2    1    2    0    0 -0.30088606942E+02  0.46383716006E+02 -0.23172072654E+02  0.13863081141E+03  0.12499913416E+03 0.  0.
          2    1    1    2  501    0  0.16729194912E+02  0.59413757782E+02 -0.52743533013E+03  0.53103473337E+03  0.00000000000E+00 0. -1.
          1    1    1    2  502    0  0.13359412030E+02 -0.10579747379E+03  0.13403996566E+04  0.13446348272E+04  0.00000000000E+00 0. -1.
         22    1    3    3    0    0  0.36575297127E+02  0.17351739761E+02  0.28431314817E+02  0.49468928581E+02  0.00000000000E+00 0. -1.
         22    1    3    3    0    0 -0.66663904069E+02  0.29031976245E+02 -0.51603387471E+02  0.89161882825E+02  0.00000000000E+00 0. -1.
</event>
<event>
 7    1  0.6152634E-006  0.1044980E+03  0.7818608E-02  0.1450304E+00
          2   -1    0    0  502    0  0.00000000000E+00  0.00000000000E+00  0.91303177081E+03  0.91303177081E+03  0.00000000000E+00 0. -1.
          1   -1    0    0  501    0 -0.00000000000E+00 -0.00000000000E+00 -0.10279048589E+04  0.10279048589E+04  0.00000000000E+00 0. -1.
         25    2    1    2    0    0  0.63202216852E+02 -0.94684077355E+02  0.48463418339E+02  0.17587739232E+03  0.12499823795E+03 0.  0.
          2    1    1    2  501    0  0.10083322650E+02  0.20741258494E+02 -0.96067556656E+03  0.96095234918E+03  0.00000000000E+00 0. -1.
          1    1    1    2  502    0 -0.73285539502E+02  0.73942818861E+02  0.79733906016E+03  0.80410688818E+03  0.00000000000E+00 0. -1.
         22    1    3    3    0    0  0.47960830733E+02  0.71943118346E+01  0.54169664373E+02  0.72707303248E+02  0.00000000000E+00 0.  1.
         22    1    3    3    0    0  0.15241386119E+02 -0.10187838919E+03 -0.57062460339E+01  0.10317008907E+03  0.00000000000E+00 0.  1.
</event>
<event>
 7    1  0.6152634E-006  0.5853686E+02  0.7818608E-02  0.1428992E+00
          2   -1    0    0  502    0  0.00000000000E+00  0.00000000000E+00  0.24492509012E+04  0.24492509012E+04  0.00000000000E+00 0. -1.
          1   -1    0    0  501    0 -0.00000000000E+00 -0.00000000000E+00 -0.24489403952E+04  0.24489403952E+04  0.00000000000E+00 0. -1.
         25    2    1    2    0    0  0.17776956863E+02  0.88383644409E+01  0.66816174518E+03  0.68004247833E+03  0.12499407081E+03 0.  0.
          2    1    1    2  501    0 -0.53647144650E+02  0.23480628388E+02 -0.24423206708E+04  0.24430226391E+04  0.00000000000E+00 0. -1.
          1    1    1    2  502    0  0.35870187788E+02 -0.32318992829E+02  0.17744694316E+04  0.17751261790E+04  0.00000000000E+00 0. -1.
         22    1    3    3    0    0 -0.46574154429E+02  0.24889280629E+02  0.41463661658E+03  0.41798582746E+03  0.00000000000E+00 0. -1.
         22    1    3    3    0    0  0.64351111292E+02 -0.16050916188E+02  0.25352512860E+03  0.26205665087E+03  0.00000000000E+00 0. -1.
</event>
<event>
 7    1  0.6152634E-006  0.1714110E+03  0.7818608E-02  0.1390274E+00
          2   -1    0    0  502    0  0.00000000000E+00  0.00000000000E+00  0.21332681859E+03  0.21332681859E+03  0.00000000000E+00 0. -1.
          1   -1    0    0  501    0 -0.00000000000E+00 -0.00000000000E+00 -0.14504714419E+04  0.14504714419E+04  0.00000000000E+00 0. -1.
         25    2    1    2    0    0  0.12700897613E+03 -0.91387164747E+02 -0.11105440799E+03  0.22899977628E+03  0.12499968841E+03 0.  0.
          2    1    1    2  501    0 -0.13057747776E+03  0.11340896844E+03 -0.12737625403E+04  0.12854505362E+04  0.00000000000E+00 0. -1.
          1    1    1    2  502    0  0.35685016294E+01 -0.22021803692E+02  0.14767232495E+03  0.14934794809E+03  0.00000000000E+00 0. -1.
         22    1    3    3    0    0  0.95277361658E+02 -0.80182165915E+02 -0.12848306567E+02  0.12518799606E+03  0.00000000000E+00 0. -1.
         22    1    3    3    0    0  0.31731614475E+02 -0.11204998831E+02 -0.98206101424E+02  0.10381178022E+03  0.00000000000E+00 0. -1.
</event>
<event>
 7    1  0.6152634E-006  0.6150746E+02  0.7818608E-02  0.1429777E+00
          2   -1    0    0  502    0  0.00000000000E+00  0.00000000000E+00  0.85454909419E+02  0.85454909419E+02  0.00000000000E+00 0. -1.
          1   -1    0    0  501    0 -0.00000000000E+00 -0.00000000000E+00 -0.48739109630E+03  0.48739109630E+03  0.00000000000E+00 0. -1.
         25    2    1    2    0    0  0.57896174188E+02 -0.66360835475E+02 -0.22030998468E+03  0.26815004809E+03  0.12494891543E+03 0.  0.
          2    1    1    2  501    0 -0.45095981314E+02  0.72648047222E+01 -0.22544225740E+03  0.23002312132E+03  0.00000000000E+00 0. -1.
          1    1    1    2  502    0 -0.12800192874E+02  0.59096030753E+02  0.43816055208E+02  0.74672836309E+02  0.00000000000E+00 0. -1.
         22    1    3    3    0    0  0.36778950346E+00 -0.36883408013E+02 -0.19543971752E+03  0.19888992996E+03  0.00000000000E+00 0. -1.
         22    1    3    3    0    0  0.57528384684E+02 -0.29477427462E+02 -0.24870267164E+02  0.69260118127E+02  0.00000000000E+00 0. -1.
</event>
<event>
 7    1  0.6152634E-006  0.1315770E+03  0.7818608E-02  0.1330818E+00
          2   -1    0    0  502    0  0.00000000000E+00  0.00000000000E+00  0.23133133022E+03  0.23133133022E+03  0.00000000000E+00 0. -1.
          1   -1    0    0  501    0 -0.00000000000E+00 -0.00000000000E+00 -0.93193513256E+03  0.93193513256E+03  0.00000000000E+00 0. -1.
         25    2    1    2    0    0 -0.14280838103E+03 -0.31686286462E+02 -0.50339133131E+03  0.53891275805E+03  0.12500349558E+03 0.  0.
          2    1    1    2  501    0  0.30739667565E+02 -0.36723285951E+02 -0.38899509150E+03  0.39193201975E+03  0.00000000000E+00 0. -1.
          1    1    1    2  502    0  0.11206871346E+03  0.68409572414E+02  0.19178262047E+03  0.23242168498E+03  0.00000000000E+00 0. -1.
         22    1    3    3    0    0 -0.44391592990E+02  0.14673860491E+02 -0.33625194204E+03  0.33948682484E+03  0.00000000000E+00 0.  1.
         22    1    3    3    0    0 -0.98416788035E+02 -0.46360146953E+02 -0.16713938927E+03  0.19942593321E+03  0.00000000000E+00 0.  1.
</event>
<event>
 7    1  0.6152634E-006  0.5975291E+02  0.7818608E-02  0.1405542E+00
          2   -1    0    0  502    0  0.00000000000E+00  0.00000000000E+00  0.13774982137E+04  0.13774982137E+04  0.00000000000E+00 0. -1.
          1   -1    0    0  501    0 -0.00000000000E+00 -0.00000000000E+00 -0.11643516978E+03  0.11643516978E+03  0.00000000000E+00 0. -1.
         25    2    1    2    0    0 -0.36111240480E+02  0.24603309791E+02  0.10433501499E+04  0.10517187845E+04  0.12499408718E+03 0.  0.
          2    1    1    2  501    0  0.19104320812E+02  0.56616557832E+02 -0.98548213777E+02  0.11524825436E+03  0.00000000000E+00 0. -1.
          1    1    1    2  502    0  0.17006919668E+02 -0.81219867623E+02  0.31626110777E+03  0.32696634460E+03  0.00000000000E+00 0. -1.
         22    1    3    3    0    0  0.42940929333E+02  0.22579426939E+02  0.54241489231E+03  0.54458026895E+03  0.00000000000E+00 0. -1.
         22    1    3    3    0    0 -0.79052169813E+02  0.20238828519E+01  0.50093525757E+03  0.50713851553E+03  0.00000000000E+00 0. -1.
</event>
<event>
 7    1  0.6152634E-006  0.1148612E+03  0.7818608E-02  0.1422718E+00
          2   -1    0    0  502    0  0.00000000000E+00  0.00000000000E+00  0.13001927436E+04  0.13001927436E+04  0.00000000000E+00 0. -1.
          1   -1    0    0  501    0 -0.00000000000E+00 -0.00000000000E+00 -0.33297212214E+03  0.33297212214E+03  0.00000000000E+00 0. -1.
         25    2    1    2    0    0  0.23279806477E+02  0.89127448418E+02  0.41846524034E+03  0.44634456398E+03  0.12499864386E+03 0.  0.
          2    1    1    2  501    0 -0.17001545195E+02 -0.11416430636E+03 -0.30839201709E+03  0.32928434155E+03  0.00000000000E+00 0. -1.
          1    1    1    2  502    0 -0.62782612824E+01  0.25036857940E+02  0.85714739824E+03  0.85753596026E+03  0.00000000000E+00 0. -1.
         22    1    3    3    0    0  0.26432375897E+00 -0.31980979372E+02  0.88892667676E+02  0.94470944079E+02  0.00000000000E+00 0.  1.
         22    1    3    3    0    0  0.23015482718E+02  0.12110842779E+03  0.32957257266E+03  0.35187361990E+03  0.00000000000E+00 0.  1.
</event>
<event>
 7    1  0.6152634E-006  0.8531856E+02  0.7818608E-02  0.1465523E+00
          2   -1    0    0  502    0  0.00000000000E+00  0.00000000000E+00  0.78980436932E+02  0.78980436932E+02  0.00000000000E+00 0. -1.
          1   -1    0    0  501    0 -0.00000000000E+00 -0.00000000000E+00 -0.39422946835E+03  0.39422946835E+03  0.00000000000E+00 0. -1.
         25    2    1    2    0    0  0.49656622559E+02 -0.52138308812E+02 -0.87945031074E+02  0.16894787843E+03  0.12499949490E+03 0.  0.
          2    1    1    2  501    0 -0.74440411436E+02  0.47142117377E+02 -0.25318650433E+03  0.26808051041E+03  0.00000000000E+00 0. -1.
          1    1    1    2  502    0  0.24783788877E+02  0.49961914352E+01  0.25882503983E+02  0.36181516447E+02  0.00000000000E+00 0. -1.
         22    1    3    3    0    0  0.33957260228E+02  0.29335688995E+02  0.40573987654E+01  0.45057082193E+02  0.00000000000E+00 0.  1.
         22    1    3    3    0    0  0.15699362331E+02 -0.81473997807E+02 -0.92002429839E+02  0.12389079624E+03  0.00000000000E+00 0.  1.
</event>
<event>
 7    1  0.6152634E-006  0.5319355E+02  0.7818608E-02  0.1531021E+00
          2   -1    0    0  502    0  0.00000000000E+00  0.00000000000E+00  0.91389976017E+03  0.91389976017E+03  0.00000000000E+00 0. -1.
          1   -1    0    0  501    0 -0.00000000000E+00 -0.00000000000E+00 -0.31211511460E+02  0.31211511460E+02  0.00000000000E+00 0. -1.
         25    2    1    2    0    0 -0.17040412366E+02  0.44379741182E+02  0.69273754740E+03  0.70552672101E+03  0.12499082928E+03 0.  0.
          2    1    1    2  501    0 -0.72311698054E+01 -0.53191642773E+02  0.62106872856E+01  0.54038998087E+02  0.00000000000E+00 0. -1.
          1    1    1    2  502    0  0.24271582172E+02  0.88119015915E+01  0.18374001402E+03  0.18554555253E+03  0.00000000000E+00 0. -1.
         22    1    3    3    0    0 -0.39992941601E+02  0.79008669664E+02  0.54122076858E+03  0.54841747383E+03  0.00000000000E+00 0.  1.
         22    1    3    3    0    0  0.22952529234E+02 -0.34628928482E+02  0.15151677882E+03  0.15710924719E+03  0.00000000000E+00 0.  1.
</event>
<event>
 7    1  0.6152634E-006  0.1389554E+03  0.7818608E-02  0.1350700E+00
          2   -1    0    0  502    0  0.00000000000E+00  0.00000000000E+00  0.21080875803E+04  0.21080875803E+04  0.00000000000E+00 0. -1.
          1   -1    0    0  501    0 -0.00000000000E+00 -0.00000000000E+00 -0.90258764790E+02  0.90258764790E+02  0.00000000000E+00 0. -1.
         25    2    1    2    0    0  0.12062694763E+03  0.77128960503E+02  0.20847283673E+03  0.28210961102E+03  0.12500068772E+03 0.  0.
          2    1    1    2  501    0 -0.92763997606E+02 -0.10323243587E+03  0.37223515132E+02  0.14369302400E+03  0.00000000000E+00 0. -1.
          1    1    1    2  502    0 -0.27862950028E+02  0.26103475367E+02  0.17721324637E+04  0.17725437101E+04  0.00000000000E+00 0. -1.
         22    1    3    3    0    0 -0.62920854099E+01  0.44850423782E+02  0.10779839830E+03  0.11692581207E+03  0.00000000000E+00 0. -1.
         22    1    3    3    0    0  0.12691903304E+03  0.32278536721E+02  0.10067443844E+03  0.16518379895E+03  0.00000000000E+00 0. -1.
</event>
<event>
 7    1  0.6152634E-006  0.8921743E+02  0.7818608E-02  0.1316911E+00
          2   -1    0    0  502    0  0.00000000000E+00  0.00000000000E+00  0.15108987948E+03  0.15108987948E+03  0.00000000000E+00 0. -1.
          1   -1    0    0  501    0 -0.00000000000E+00 -0.00000000000E+00 -0.57652307162E+03  0.57652307162E+03  0.00000000000E+00 0. -1.
         25    2    1    2    0    0  0.11008106153E+02 -0.14233924582E+03 -0.25522615213E+03  0.31803720729E+03  0.12500254874E+03 0.  0.
          2    1    1    2  501    0 -0.42915005498E+02  0.69072253462E+02 -0.26985573387E+03  0.28184178362E+03  0.00000000000E+00 0. -1.
          1    1    1    2  502    0  0.31906899345E+02  0.73266992360E+02  0.99648693862E+02  0.12773396018E+03  0.00000000000E+00 0. -1.
         22    1    3    3    0    0 -0.28413451039E+02 -0.10651952207E+03 -0.23760285141E+03  0.26193290702E+03  0.00000000000E+00 0.  1.
         22    1    3    3    0    0  0.39421557192E+02 -0.35819723747E+02 -0.17623300720E+02  0.56104300272E+02  0.00000000000E+00 0.  1.
</event>
<event>
 7    1  0.6152634E-006  0.9083055E+02  0.7818608E-02  0.1327017E+00
          2   -1    0    0  502    0  0.00000000000E+00  0.00000000000E+00  0.10183567381E+04  0.10183567381E+04  0.00000000000E+00 0. -1.
          1   -1    0    0  501    0 -0.00000000000E+00 -0.00000000000E+00 -0.23273117010E+03  0.23273117010E+03  0.00000000000E+00 0. -1.
         25    2    1    2    0    0  0.33814659393E+02  0.16589819594E+02 -0.43190593436E+02  0.13750860941E+03  0.12499814797E+03 0.  0.
          2    1    1    2  501    0 -0.56433374794E+02  0.71379388882E+02 -0.12546355343E+03  0.15498660002E+03  0.00000000000E+00 0. -1.
          1    1    1    2  502    0  0.22618715401E+02 -0.87969208477E+02  0.95427971489E+03  0.95859269879E+03  0.00000000000E+00 0. -1.
         22    1    3    3    0    0  0.12413901722E+02 -0.23699470512E+02 -0.76486103571E+02  0.81030203615E+02  0.00000000000E+00 0. -1.
         22    1    3    3    0    0  0.21400757671E+02  0.40289290106E+02  0.33295510134E+02  0.56478405796E+02  0.00000000000E+00 0. -1.
</event>
<event>
 7    1  0.6152634E-006  0.7388664E+02  0.7818608E-02  0.1355528E+00
          2   -1    0    0  502    0  0.00000000000E+00  0.00000000000E+00  0.76944296091E+03  0.76944296091E+03  0.00000000000E+00 0. -1.
          1   -1    0    0  501    0 -0.00000000000E+00 -0.00000000000E+00 -0.53143682668E+03  0.53143682668E+03  0.00000000000E+00 0. -1.
         25    2    1    2    0    0 -0.10609621625E+03  0.44607160939E+02  0.43759304380E+02  0.17546174972E+03  0.12500297191E+03 0.  0.
          2    1    1    2  501    0  0.39369062414E+02 -0.61852956068E+02 -0.46088020988E+03  0.46667577514E+03  0.00000000000E+00 0. -1.
          1    1    1    2  502    0  0.66727153832E+02  0.17245795129E+02  0.65512703973E+03  0.65874226272E+03  0.00000000000E+00 0. -1.
         22    1    3    3    0    0  0.23478106183E+01 -0.34584377633E+02  0.16718537420E+02  0.38485073528E+02  0.00000000000E+00 0. -1.
         22    1    3    3    0    0 -0.10844402686E+03  0.79191538572E+02  0.27040766960E+02  0.13697667620E+03  0.00000000000E+00 0. -1.
</event>
<event>
 7    1  0.6152634E-006  0.6669509E+02  0.7818608E-02  0.1415806E+00
          2   -1    0    0  502    0  0.00000000000E+00  0.00000000000E+00  0.22066345508E+04  0.22066345508E+04  0.00000000000E+00 0. -1.
          1   -1    0    0  501    0 -0.00000000000E+00 -0.00000000000E+00 -0.30213312572E+02  0.30213312572E+02  0.00000000000E+00 0. -1.
         25    2    1    2    0    0 -0.93586753197E+02 -0.41318980021E+02  0.11785999780E+04  0.11896142051E+04  0.12497323902E+03 0.  0.
          2    1    1    2  501    0  0.65476225719E+02  0.37986826143E+01  0.20395776470E+02  0.68684451092E+02  0.00000000000E+00 0. -1.
          1    1    1    2  502    0  0.28110527478E+02  0.37520297406E+02  0.97742548379E+03  0.97854920716E+03  0.00000000000E+00 0. -1.
         22    1    3    3    0    0 -0.10666318479E+02 -0.56592564189E+02  0.78371819769E+03  0.78583121729E+03  0.00000000000E+00 0.  1.
         22    1    3    3    0    0 -0.82920434719E+02  0.15273584168E+02  0.39488178027E+03  0.40378298783E+03  0.00000000000E+00 0.  1.
</event>
<event>
 7    1  0.6152634E-006  0.3363843E+02  0.7818608E-02  0.1577913E+00
          2   -1    0    0  502    0  0.00000000000E+00  0.00000000000E+00  0.92101115755E+02  0.92101115755E+02  0.00000000000E+00 0. -1.
          1   -1    0    0  501    0 -0.00000000000E+00 -0.00000000000E+00 -0.56150649824E+03  0.56150649824E+03  0.00000000000E+00 0. -1.
         25    2    1    2    0    0 -0.44044067478E+02  0.83303852477E+01 -0.27178448698E+03  0.30249270137E+03  0.12500300726E+03 0.  0.
          2    1    1    2  501    0  0.23876783752E+02  0.18598576597E+02 -0.26979357322E+03  0.27148587441E+03  0.00000000000E+00 0. -1.
          1    1    1    2  502    0  0.20167283726E+02 -0.26928961845E+02  0.72172677710E+02  0.79629038213E+02  0.00000000000E+00 0. -1.
         22    1    3    3    0    0  0.53521184640E+01 -0.26166661625E+01  0.12443820339E+02  0.13796404550E+02  0.00000000000E+00 0.  1.
         22    1    3    3    0    0 -0.49396185942E+02  0.10947051410E+02 -0.28422830732E+03  0.28869629682E+03  0.00000000000E+00 0.  1.
</event>
<event>
 7    1  0.6152634E-006  0.2185014E+03  0.7818608E-02  0.1312679E+00
          2   -1    0    0  502    0  0.00000000000E+00  0.00000000000E+00  0.19613390100E+03  0.19613390100E+03  0.00000000000E+00 0. -1.
          1   -1    0    0  501    0 -0.00000000000E+00 -0.00000000000E+00 -0.10847962018E+04  0.10847962018E+04  0.00000000000E+00 0. -1.
         25    2    1    2    0    0 -0.15098263006E+02  0.20738180822E+03 -0.70023431930E+01  0.24271327789E+03  0.12500212208E+03 0.  0.
          2    1    1    2  501    0  0.21079288639E+02  0.26545978830E+02 -0.78386784432E+03  0.78460042236E+03  0.00000000000E+00 0. -1.
          1    1    1    2  502    0 -0.59810256329E+01 -0.23392778705E+03 -0.97792113278E+02  0.25361640255E+03  0.00000000000E+00 0. -1.
         22    1    3    3    0    0 -0.13011804725E+02  0.10255337777E+03  0.58797706152E+02  0.11892717353E+03  0.00000000000E+00 0.  1.
         22    1    3    3    0    0 -0.20864582815E+01  0.10482843045E+03 -0.65800049345E+02  0.12378610436E+03  0.00000000000E+00 0.  1.
</event>
<event>
 7    1  0.6152634E-006  0.1021740E+03  0.7818608E-02  0.1356443E+00
          2   -1    0    0  502    0  0.00000000000E+00  0.00000000000E+00  0.23581617207E+03  0.23581617207E+03  0.00000000000E+00 0. -1.
          1   -1    0    0  501    0 -0.00000000000E+00 -0.00000000000E+00 -0.96708427203E+03  0.96708427203E+03  0.00000000000E+00 0. -1.
         25    2    1    2    0    0  0.14141189925E+02  0.59970171197E+02 -0.38627644200E+02  0.14461587235E+03  0.12500104380E+03 0.  0.
          2    1    1    2  501    0  0.26336603441E+02  0.41859061473E+02 -0.85826664675E+03  0.85969031321E+03  0.00000000000E+00 0. -1.
          1    1    1    2  502    0 -0.40477793366E+02 -0.10182923267E+03  0.16562619099E+03  0.19859425854E+03  0.00000000000E+00 0. -1.
         22    1    3    3    0    0  0.64078921462E+02  0.45963511363E+02  0.17629836465E+01  0.78878771947E+02  0.00000000000E+00 0.  1.
         22    1    3    3    0    0 -0.49937731538E+02  0.14006659834E+02 -0.40390627847E+02  0.65737100398E+02  0.00000000000E+00 0.  1.
</event>
<event>
 7    1  0.6152634E-006  0.5531548E+02  0.7818608E-02  0.1521652E+00
          2   -1    0    0  502    0  0.00000000000E+00  0.00000000000E+00  0.19897769042E+04  0.19897769042E+04  0.00000000000E+00 0. -1.
          1   -1    0    0  501    0 -0.00000000000E+00 -0.00000000000E+00 -0.81274305775E+03  0.81274305775E+03  0.00000000000E+00 0. -1.
         25    2    1    2    0    0 -0.48170713739E+02  0.39678902652E+02  0.40173531909E+02  0.14537901026E+03  0.12500524381E+03 0.  0.
          2    1    1    2  501    0  0.24358410603E+02  0.10237890850E+02 -0.75950743838E+03  0.75996690423E+03  0.00000000000E+00 0. -1.
          1    1    1    2  502    0  0.23812303136E+02 -0.49916793503E+02  0.18963677529E+04  0.18971740475E+04  0.00000000000E+00 0. -1.
         22    1    3    3    0    0 -0.37941393271E+02  0.84940939235E+02  0.31149950884E+02  0.98106227740E+02  0.00000000000E+00 0.  1.
         22    1    3    3    0    0 -0.10229320468E+02 -0.45262036582E+02  0.90235810255E+01  0.47272782522E+02  0.00000000000E+00 0.  1.
</event>
<event>
 7    1  0.6152634E-006  0.6617927E+02  0.7818608E-02  0.1493538E+00
          2   -1    0    0  502    0  0.00000000000E+00  0.00000000000E+00  0.66577510618E+03  0.66577510618E+03  0.00000000000E+00 0. -1.
          1   -1    0    0  501    0 -0.00000000000E+00 -0.00000000000E+00 -0.22832913045E+03  0.22832913045E+03  0.00000000000E+00 0. -1.
         25    2    1    2    0    0  0.29106014284E+02  0.51740652791E+02 -0.10420793137E+02  0.13878675702E+03  0.12501566212E+03 0.  0.
          2    1    1    2  501    0 -0.72101594118E+01 -0.67086920147E+02 -0.14600617241E+03  0.16084291602E+03  0.00000000000E+00 0. -1.
          1    1    1    2  502    0 -0.21895854872E+02  0.15346267356E+02  0.59387294127E+03  0.59447456359E+03  0.00000000000E+00 0. -1.
         22    1    3    3    0    0  0.16378173998E+02  0.84738668333E+02  0.23847101481E+02  0.89540888668E+02  0.00000000000E+00 0.  1.
         22    1    3    3    0    0  0.12727840286E+02 -0.32998015543E+02 -0.34267894618E+02  0.49245868351E+02  0.00000000000E+00 0.  1.
</event>
<event>
 7    1  0.6152634E-006  0.9733961E+02  0.7818608E-02  0.1318982E+00
          2   -1    0    0  502    0  0.00000000000E+00  0.00000000000E+00  0.22577182323E+04  0.22577182323E+04  0.00000000000E+00 0. -1.
          1   -1    0    0  501    0 -0.00000000000E+00 -0.00000000000E+00 -0.16041878716E+03  0.16041878716E+03  0.00000000000E+00 0. -1.
         25    2    1    2    0    0 -0.26124274599E+02  0.67554040071E+01  0.84526086884E+03  0.85488029936E+03  0.12500510645E+03 0.  0.
          2    1    1    2  501    0  0.97680319074E+02 -0.13757898206E+02 -0.13895350155E+03  0.17040774657E+03  0.00000000000E+00 0. -1.
          1    1    1    2  502    0 -0.71556044475E+02  0.70024941988E+01  0.13909920779E+04  0.13928489735E+04  0.00000000000E+00 0. -1.
         22    1    3    3    0    0  0.60085578652E+01 -0.16941220800E+02  0.14323065973E+02  0.22983862789E+02  0.00000000000E+00 0. -1.
         22    1    3    3    0    0 -0.32132832464E+02  0.23696624807E+02  0.83093780287E+03  0.83189643657E+03  0.00000000000E+00 0. -1.
</event>
<event>
 7    1  0.6152634E-006  0.7423852E+02  0.7818608E-02  0.1389119E+00
          2   -1    0    0  502    0  0.00000000000E+00  0.00000000000E+00  0.13583392473E+04  0.13583392473E+04  0.00000000000E+00 0. -1.
          1   -1    0    0  501    0 -0.00000000000E+00 -0.00000000000E+00 -0.32930780406E+03  0.32930780406E+03  0.00000000000E+00 0. -1.
         25    2    1    2    0    0 -0.11094269107E+03  0.48979662696E+02  0.39356587793E+03  0.43037815080E+03  0.12499585735E+03 0.  0.
          2    1    1    2  501    0  0.59188448253E+02 -0.44030161363E+02 -0.30579825313E+03  0.31457034052E+03  0.00000000000E+00 0. -1.
          1    1    1    2  502    0  0.51754242818E+02 -0.49495013336E+01  0.94126381840E+03  0.94269856001E+03  0.00000000000E+00 0. -1.
         22    1    3    3    0    0 -0.13893062589E+03  0.43918659597E+02  0.33095603534E+03  0.36161093014E+03  0.00000000000E+00 0.  1.
         22    1    3    3    0    0  0.27987934817E+02  0.50610030998E+01  0.62609842591E+02  0.68767220657E+02  0.00000000000E+00 0.  1.
</event>
<event>
 7    1  0.6152634E-006  0.7091144E+02  0.7818608E-02  0.1383901E+00
          2   -1    0    0  502    0  0.00000000000E+00  0.00000000000E+00  0.66671380887E+02  0.66671380887E+02  0.00000000000E+00 0. -1.
          1   -1    0    0  501    0 -0.00000000000E+00 -0.00000000000E+00 -0.53624173294E+03  0.53624173294E+03  0.00000000000E+00 0. -1.
         25    2    1    2    0    0 -0.24239252269E+02 -0.29869812262E+01 -0.31074296059E+03  0.33583138246E+03  0.12500026593E+03 0.  0.
          2    1    1    2  501    0 -0.42973572800E+02  0.37099811897E+02 -0.18004045773E+03  0.18877947564E+03  0.00000000000E+00 0. -1.
          1    1    1    2  502    0  0.67212825069E+02 -0.34112830671E+02  0.21213066275E+02  0.78302255721E+02  0.00000000000E+00 0. -1.
         22    1    3    3    0    0 -0.15118601041E+00  0.49016559127E+02 -0.23916436271E+03  0.24413569652E+03  0.00000000000E+00 0.  1.
         22    1    3    3    0    0 -0.24088066259E+02 -0.52003540353E+02 -0.71578597883E+02  0.91695685941E+02  0.00000000000E+00 0.  1.
</event>
<event>
 7    1  0.6152634E-006  0.1287422E+03  0.7818608E-02  0.1342804E+00
          2   -1    0    0  502    0  0.00000000000E+00  0.00000000000E+00  0.70591086915E+03  0.70591086915E+03  0.00000000000E+00 0. -1.
          1   -1    0    0  501    0 -0.00000000000E+00 -0.00000000000E+00 -0.39462007453E+03  0.39462007453E+03  0.00000000000E+00 0. -1.
         25    2    1    2    0    0  0.11115823730E+03 -0.90610796389E+02 -0.91879009742E+02  0.21126393415E+03  0.12499690916E+03 0.  0.
          2    1    1    2  501    0 -0.40780238371E+02 -0.16775161453E+02 -0.23459673653E+03  0.23870496994E+03  0.00000000000E+00 0. -1.
          1    1    1    2  502    0 -0.70377998928E+02  0.10738595784E+03  0.63776654089E+03  0.65056203959E+03  0.00000000000E+00 0. -1.
         22    1    3    3    0    0  0.90003086250E+02 -0.12158068749E+03 -0.62718801718E+02  0.16375612109E+03  0.00000000000E+00 0.  1.
         22    1    3    3    0    0  0.21155151050E+02  0.30969891096E+02 -0.29160208023E+02  0.47507813067E+02  0.00000000000E+00 0.  1.
</event>
<event>
 7    1  0.6152634E-006  0.8645056E+02  0.7818608E-02  0.1451103E+00
          2   -1    0    0  502    0  0.00000000000E+00  0.00000000000E+00  0.65077091832E+03  0.65077091832E+03  0.00000000000E+00 0. -1.
          1   -1    0    0  501    0 -0.00000000000E+00 -0.00000000000E+00 -0.13357847490E+04  0.13357847490E+04  0.00000000000E+00 0. -1.
         25    2    1    2    0    0 -0.11346187368E+03 -0.88272672606E+00  0.56814217895E+03  0.59270007850E+03  0.12503388168E+03 0.  0.
          2    1    1    2  501    0  0.86189756961E+02  0.58091767252E+01 -0.13193079516E+04  0.13221330840E+04  0.00000000000E+00 0. -1.
          1    1    1    2  502    0  0.27272116717E+02 -0.49264499992E+01  0.66151941995E+02  0.71722504763E+02  0.00000000000E+00 0. -1.
         22    1    3    3    0    0  0.27163870605E+02 -0.46143983831E+01  0.75688537823E+02  0.80547646126E+02  0.00000000000E+00 0.  1.
         22    1    3    3    0    0 -0.14062574428E+03  0.37316716570E+01  0.49245364113E+03  0.51215243238E+03  0.00000000000E+00 0.  1.
</event>
<event>
 7    1  0.6152634E-006  0.1029834E+03  0.7818608E-02  0.1418731E+00
          2   -1    0    0  502    0  0.00000000000E+00  0.00000000000E+00  0.40764995296E+03  0.40764995296E+03  0.00000000000E+00 0. -1.
          1   -1    0    0  501    0 -0.00000000000E+00 -0.00000000000E+00 -0.48416746259E+03  0.48416746259E+03  0.00000000000E+00 0. -1.
         25    2    1    2    0    0  0.42817626917E+02  0.77072566211E+02  0.31773954136E+02  0.15622988932E+03  0.12499865807E+03 0.  0.
          2    1    1    2  501    0 -0.16102987466E+02  0.24937174946E+02 -0.41252791577E+03  0.41359454807E+03  0.00000000000E+00 0. -1.
          1    1    1    2  502    0 -0.26714639451E+02 -0.10200974116E+03  0.30423645201E+03  0.32199297816E+03  0.00000000000E+00 0. -1.
         22    1    3    3    0    0 -0.21208966573E+02 -0.15665990614E+02 -0.19126800166E+02  0.32574192386E+02  0.00000000000E+00 0. -1.
         22    1    3    3    0    0  0.64026593490E+02  0.92738556825E+02  0.50900754302E+02  0.12365569693E+03  0.00000000000E+00 0. -1.
</event>
<event>
 7    1  0.6152634E-006  0.8496689E+02  0.7818608E-02  0.1342645E+00
          2   -1    0    0  502    0  0.00000000000E+00  0.00000000000E+00  0.42844763651E+04  0.42844763651E+04  0.00000000000E+00 0. -1.
          1   -1    0    0  501    0 -0.00000000000E+00 -0.00000000000E+00 -0.14001788359E+03  0.14001788359E+03  0.00000000000E+00 0. -1.
         25    2    1    2    0    0 -0.11290011906E+03  0.37444893356E+02  0.10432483730E+04  0.10574215907E+04  0.12499878346E+03 0.  0.
          2    1    1    2  501    0  0.81911527041E+02  0.21851576133E+02 -0.11903200704E+03  0.14613558206E+03  0.00000000000E+00 0. -1.
          1    1    1    2  502    0  0.30988592023E+02 -0.59296469489E+02  0.32202421155E+04  0.32209370759E+04  0.00000000000E+00 0. -1.
         22    1    3    3    0    0 -0.11169738495E+03  0.22374613739E+02  0.10327547639E+04  0.10390184462E+04  0.00000000000E+00 0. -1.
         22    1    3    3    0    0 -0.12027341112E+01  0.15070279617E+02  0.10493609063E+02  0.18403144520E+02  0.00000000000E+00 0. -1.
</event>
<event>
 7    1  0.6152634E-006  0.6551719E+02  0.7818608E-02  0.1434041E+00
          2   -1    0    0  502    0  0.00000000000E+00  0.00000000000E+00  0.71669144912E+03  0.71669144912E+03  0.00000000000E+00 0. -1.
          1   -1    0    0  501    0 -0.00000000000E+00 -0.00000000000E+00 -0.11836494928E+03  0.11836494928E+03  0.00000000000E+00 0. -1.
         25    2    1    2    0    0 -0.12100656158E+00  0.31934779466E+02  0.17163131516E+03  0.21471363308E+03  0.12499916441E+03 0.  0.
          2    1    1    2  501    0  0.25865214219E+02  0.32481397651E+02 -0.89944873943E+02  0.99066295219E+02  0.00000000000E+00 0. -1.
          1    1    1    2  502    0 -0.25744207657E+02 -0.64416177117E+02  0.51664005862E+03  0.52127647009E+03  0.00000000000E+00 0. -1.
         22    1    3    3    0    0 -0.10092573234E+01  0.29105494425E+02 -0.11680336793E+02  0.31377996648E+02  0.00000000000E+00 0.  1.
         22    1    3    3    0    0  0.88825076186E+00  0.28292850417E+01  0.18331165196E+03  0.18333563643E+03  0.00000000000E+00 0.  1.
</event>
<event>
 7    1  0.6152634E-006  0.4383641E+02  0.7818608E-02  0.1554077E+00
          2   -1    0    0  502    0  0.00000000000E+00  0.00000000000E+00  0.84754284699E+03  0.84754284699E+03  0.00000000000E+00 0. -1.
          1   -1    0    0  501    0 -0.00000000000E+00 -0.00000000000E+00 -0.16453823143E+04  0.16453823143E+04  0.00000000000E+00 0. -1.
         25    2    1    2    0    0  0.43396322092E+02 -0.36621336080E+02 -0.10862371411E+04  0.10948796637E+04  0.12500395257E+03 0.  0.
          2    1    1    2  501    0 -0.63836648473E+00  0.26973148304E+02 -0.55392569978E+03  0.55458240065E+03  0.00000000000E+00 0. -1.
          1    1    1    2  502    0 -0.42757955607E+02  0.96481877763E+01  0.84232337357E+03  0.84346309698E+03  0.00000000000E+00 0. -1.
         22    1    3    3    0    0 -0.30866135215E+02 -0.12790480645E+02 -0.97393851857E+02  0.10296541690E+03  0.00000000000E+00 0.  1.
         22    1    3    3    0    0  0.74262457307E+02 -0.23830855436E+02 -0.98884328924E+03  0.99191424675E+03  0.00000000000E+00 0.  1.
</event>
<event>
 7    1  0.6152634E-006  0.7460235E+02  0.7818608E-02  0.1369803E+00
          2   -1    0    0  502    0  0.00000000000E+00  0.00000000000E+00  0.97814369642E+03  0.97814369642E+03  0.00000000000E+00 0. -1.
          1   -1    0    0  501    0 -0.00000000000E+00 -0.00000000000E+00 -0.63878274319E+03  0.63878274319E+03  0.00000000000E+00 0. -1.
         25    2    1    2    0    0 -0.68701204915E+01 -0.85308572334E+02  0.28213866778E+03  0.32023824023E+03  0.12500220629E+03 0.  0.
          2    1    1    2  501    0  0.54506979709E+02  0.26418030042E+02 -0.61612435472E+03  0.61909461606E+03  0.00000000000E+00 0. -1.
          1    1    1    2  502    0 -0.47636859217E+02  0.58890542291E+02  0.67334664018E+03  0.67759358333E+03  0.00000000000E+00 0. -1.
         22    1    3    3    0    0  0.19150476076E+02 -0.11182747795E+03  0.22664030900E+03  0.25345207678E+03  0.00000000000E+00 0. -1.
         22    1    3    3    0    0 -0.26020596567E+02  0.26518905618E+02  0.55498358783E+02  0.66786163451E+02  0.00000000000E+00 0. -1.
</event>
<event>
 7    1  0.6195382E-006  0.1383901E+03  0.7818608E-02  0.1374836E+00
          2   -1    0    0  502    0  0.00000000000E+00  0.00000000000E+00  0.20338720033E+04  0.20338720033E+04  0.00000000000E+00 0. -1.
          1   -1    0    0  501    0 -0.00000000000E+00 -0.00000000000E+00 -0.20068166743E+04  0.20068166743E+04  0.00000000000E+00 0. -1.
         25    2    1    2    0    0 -0.63953425824E+02 -0.11002510131E+03 -0.15884399194E+03  0.23885706037E+03  0.12500287165E+03 0.  0.
          2    1    1    2  501    0 -0.30189386282E+02  0.83565888743E+01 -0.18054228183E+04  0.18056945435E+04  0.00000000000E+00 0. -1.
          1    1    1    2  502    0  0.94142812105E+02  0.10166851243E+03  0.19913221392E+04  0.19961370738E+04  0.00000000000E+00 0. -1.
         22    1    3    3    0    0 -0.24182032301E+02 -0.56570973718E+02 -0.16083540641E+03  0.17220067860E+03  0.00000000000E+00 0. -1.
         22    1    3    3    0    0 -0.39771393523E+02 -0.53454127587E+02  0.19914144756E+01  0.66656381768E+02  0.00000000000E+00 0. -1.
</event>
<event>
 7    1  0.6152634E-006  0.1090149E+03  0.7818608E-02  0.1412688E+00
          2   -1    0    0  502    0  0.00000000000E+00  0.00000000000E+00  0.60204749470E+03  0.60204749470E+03  0.00000000000E+00 0. -1.
          1   -1    0    0  501    0 -0.00000000000E+00 -0.00000000000E+00 -0.18683107762E+03  0.18683107762E+03  0.00000000000E+00 0. -1.
         25    2    1    2    0    0  0.80929658541E+02 -0.23346335538E+02  0.66373871658E+01  0.15087514011E+03  0.12499836791E+03 0.  0.
          2    1    1    2  501    0  0.21228614586E+02 -0.20317645505E+02 -0.10680883142E+03  0.11077719651E+03  0.00000000000E+00 0. -1.
          1    1    1    2  502    0 -0.10215827313E+03  0.43663981043E+02  0.51538786133E+03  0.52722623571E+03  0.00000000000E+00 0. -1.
         22    1    3    3    0    0  0.30021646969E+02  0.51359409788E+02 -0.51262365389E+01  0.59710690513E+02  0.00000000000E+00 0. -1.
         22    1    3    3    0    0  0.50908011573E+02 -0.74705745326E+02  0.11763623705E+02  0.91164449594E+02  0.00000000000E+00 0. -1.
</event>
<event>
 7    1  0.6152634E-006  0.5085790E+02  0.7818608E-02  0.1495668E+00
          2   -1    0    0  502    0  0.00000000000E+00  0.00000000000E+00  0.16642265187E+04  0.16642265187E+04  0.00000000000E+00 0. -1.
          1   -1    0    0  501    0 -0.00000000000E+00 -0.00000000000E+00 -0.10524539646E+03  0.10524539646E+03  0.00000000000E+00 0. -1.
         25    2    1    2    0    0  0.33022419690E+02  0.43429048902E+01  0.26091288832E+03  0.29122180734E+03  0.12500105901E+03 0.  0.
          2    1    1    2  501    0 -0.34147968572E+02 -0.38608637932E+02 -0.82488360192E+02  0.97267878807E+02  0.00000000000E+00 0. -1.
          1    1    1    2  502    0  0.11255488822E+01  0.34265733041E+02  0.13805565942E+04  0.13809822291E+04  0.00000000000E+00 0. -1.
         22    1    3    3    0    0  0.18943648234E+02  0.61034112834E+02  0.88347739515E+02  0.10903828601E+03  0.00000000000E+00 0.  1.
         22    1    3    3    0    0  0.14078771456E+02 -0.56691207944E+02  0.17256514880E+03  0.18218352133E+03  0.00000000000E+00 0.  1.
</event>
<event>
 7    1  0.6152634E-006  0.9299368E+02  0.7818608E-02  0.1346589E+00
          2   -1    0    0  502    0  0.00000000000E+00  0.00000000000E+00  0.40713640682E+03  0.40713640682E+03  0.00000000000E+00 0. -1.
          1   -1    0    0  501    0 -0.00000000000E+00 -0.00000000000E+00 -0.50393464250E+03  0.50393464250E+03  0.00000000000E+00 0. -1.
         25    2    1    2    0    0 -0.24419467404E+02  0.28784966463E+02  0.42308664064E+02  0.13726218831E+03  0.12500400235E+03 0.  0.
          2    1    1    2  501    0  0.72417983885E+02 -0.63251993531E+02 -0.44856748475E+03  0.45875698082E+03  0.00000000000E+00 0. -1.
          1    1    1    2  502    0 -0.47998516480E+02  0.34467027068E+02  0.30946058501E+03  0.31505188019E+03  0.00000000000E+00 0. -1.
         22    1    3    3    0    0  0.23038971453E+02  0.17583160992E+02  0.73751162781E+02  0.79241376614E+02  0.00000000000E+00 0. -1.
         22    1    3    3    0    0 -0.47458438858E+02  0.11201805471E+02 -0.31442498718E+02  0.58020811699E+02  0.00000000000E+00 0. -1.
</event>
<event>
 7    1  0.6152634E-006  0.2292769E+03  0.7818608E-02  0.1211532E+00
          2   -1    0    0  502    0  0.00000000000E+00  0.00000000000E+00  0.10312768776E+04  0.10312768776E+04  0.00000000000E+00 0. -1.
          1   -1    0    0  501    0 -0.00000000000E+00 -0.00000000000E+00 -0.23180055749E+04  0.23180055749E+04  0.00000000000E+00 0. -1.
         25    2    1    2    0    0 -0.15430673737E+03  0.93741800152E+02 -0.17760772902E+03  0.28243253515E+03  0.12500214883E+03 0.  0.
          2    1    1    2  501    0 -0.73670312978E+02 -0.46532847775E+02 -0.20732141938E+04  0.20750445090E+04  0.00000000000E+00 0. -1.
          1    1    1    2  502    0  0.22797705035E+03 -0.47208952377E+02  0.96409322546E+03  0.99180540836E+03  0.00000000000E+00 0. -1.
         22    1    3    3    0    0 -0.28110641104E+02  0.36642833626E+02 -0.12671064464E+03  0.13486472061E+03  0.00000000000E+00 0. -1.
         22    1    3    3    0    0 -0.12619609627E+03  0.57098966526E+02 -0.50897084375E+02  0.14756781455E+03  0.00000000000E+00 0. -1.
</event>
<event>
 7    1  0.6152634E-006  0.7422620E+02  0.7818608E-02  0.1414578E+00
          2   -1    0    0  502    0  0.00000000000E+00  0.00000000000E+00  0.72503047083E+03  0.72503047083E+03  0.00000000000E+00 0. -1.
          1   -1    0    0  501    0 -0.00000000000E+00 -0.00000000000E+00 -0.18539819050E+04  0.18539819050E+04  0.00000000000E+00 0. -1.
         25    2    1    2    0    0 -0.81504339240E+02 -0.80181803641E+02  0.82864140442E+02  0.18858173139E+03  0.12499809875E+03 0.  0.
          2    1    1    2  501    0  0.34401354938E+02  0.25004061240E+02 -0.17986379778E+04  0.17991406925E+04  0.00000000000E+00 0. -1.
          1    1    1    2  502    0  0.47102984302E+02  0.55177742401E+02  0.58682240318E+03  0.59128995194E+03  0.00000000000E+00 0. -1.
         22    1    3    3    0    0 -0.50469194712E+02 -0.23637305385E+02 -0.26425148880E+02  0.61677794335E+02  0.00000000000E+00 0.  1.
         22    1    3    3    0    0 -0.31035144528E+02 -0.56544498255E+02  0.10928928932E+03  0.12690393705E+03  0.00000000000E+00 0.  1.
</event>
<event>
 7    1  0.7203699E-006  0.5553362E+02  0.7818608E-02  0.1435338E+00
          2   -1    0    0  502    0  0.00000000000E+00  0.00000000000E+00  0.13117509330E+04  0.13117509330E+04  0.00000000000E+00 0. -1.
          1   -1    0    0  501    0 -0.00000000000E+00 -0.00000000000E+00 -0.20565832229E+04  0.20565832229E+04  0.00000000000E+00 0. -1.
         25    2    1    2    0    0 -0.33304661461E+02  0.19121988490E+02 -0.70578020497E+02  0.14859732924E+03  0.12500023345E+03 0.  0.
          2    1    1    2  501    0 -0.15542816208E+02 -0.45952911614E+02 -0.19460830488E+04  0.19466875666E+04  0.00000000000E+00 0. -1.
          1    1    1    2  502    0  0.48847477669E+02  0.26830923123E+02  0.12718287794E+04  0.12730492601E+04  0.00000000000E+00 0. -1.
         22    1    3    3    0    0 -0.23822456095E+02  0.57405362746E+02  0.60187429820E+01  0.62442856705E+02  0.00000000000E+00 0.  1.
         22    1    3    3    0    0 -0.94822053661E+01 -0.38283374256E+02 -0.76596763479E+02  0.86154472539E+02  0.00000000000E+00 0.  1.
</event>
<event>
 7    1  0.6152634E-006  0.1086484E+03  0.7818608E-02  0.1275503E+00
          2   -1    0    0  502    0  0.00000000000E+00  0.00000000000E+00  0.17141200183E+04  0.17141200183E+04  0.00000000000E+00 0. -1.
          1   -1    0    0  501    0 -0.00000000000E+00 -0.00000000000E+00 -0.89985993166E+03  0.89985993166E+03  0.00000000000E+00 0. -1.
         25    2    1    2    0    0  0.71459340816E+02 -0.46440280792E+02  0.24458277660E+03  0.28758928662E+03  0.12499490430E+03 0.  0.
          2    1    1    2  501    0  0.34801125090E+02  0.89845451085E+02 -0.87342870579E+03  0.87872693568E+03  0.00000000000E+00 0. -1.
          1    1    1    2  502    0 -0.10626046591E+03 -0.43405170294E+02  0.14431060158E+04  0.14476637276E+04  0.00000000000E+00 0. -1.
         22    1    3    3    0    0 -0.31749464003E+01  0.28270986637E+02  0.96968828831E+01  0.30055923006E+02  0.00000000000E+00 0.  1.
         22    1    3    3    0    0  0.74634287216E+02 -0.74711267429E+02  0.23488589371E+03  0.25753336361E+03  0.00000000000E+00 0.  1.
</event>
<event>
 7    1  0.6152634E-006  0.7415739E+02  0.7818608E-02  0.1357594E+00
          2   -1    0    0  502    0  0.00000000000E+00  0.00000000000E+00  0.93777218691E+03  0.93777218691E+03  0.00000000000E+00 0. -1.
          1   -1    0    0  501    0 -0.00000000000E+00 -0.00000000000E+00 -0.12278608971E+03  0.12278608971E+03  0.00000000000E+00 0. -1.
         25    2    1    2    0    0  0.47170283487E+02  0.95798855516E+01  0.16696829527E+03  0.21405637571E+03  0.12499964202E+03 0.  0.
          2    1    1    2  501    0 -0.26046265052E+02 -0.73668836285E+02 -0.82060753721E+02  0.11331139688E+03  0.00000000000E+00 0. -1.
          1    1    1    2  502    0 -0.21124018435E+02  0.64088950733E+02  0.73007855565E+03  0.73319050402E+03  0.00000000000E+00 0. -1.
         22    1    3    3    0    0  0.75086396558E+02  0.10053564108E+02  0.43263088895E+02  0.87239532095E+02  0.00000000000E+00 0. -1.
         22    1    3    3    0    0 -0.27916113071E+02 -0.47367855668E+00  0.12370520638E+03  0.12681684362E+03  0.00000000000E+00 0. -1.
</event>
<event>
 7    1  0.6152634E-006  0.9326571E+02  0.7818608E-02  0.1352988E+00
          2   -1    0    0  502    0  0.00000000000E+00  0.00000000000E+00  0.16044076548E+03  0.16044076548E+03  0.00000000000E+00 0. -1.
          1   -1    0    0  501    0 -0.00000000000E+00 -0.00000000000E+00 -0.13462252093E+04  0.13462252093E+04  0.00000000000E+00 0. -1.
         25    2    1    2    0    0 -0.14763640939E+02  0.65855892996E+02 -0.58277284447E+03  0.59983612705E+03  0.12499690925E+03 0.  0.
          2    1    1    2  501    0  0.67743358627E+02 -0.83333207040E+02 -0.74581943771E+03  0.75351192406E+03  0.00000000000E+00 0. -1.
          1    1    1    2  502    0 -0.52979717688E+02  0.17477314044E+02  0.14280783842E+03  0.15331792363E+03  0.00000000000E+00 0. -1.
         22    1    3    3    0    0  0.14519806101E+02 -0.27625598763E+02 -0.56712352234E+02  0.64732444510E+02  0.00000000000E+00 0. -1.
         22    1    3    3    0    0 -0.29283447041E+02  0.93481491759E+02 -0.52606049224E+03  0.53510368254E+03  0.00000000000E+00 0. -1.
</event>
<event>
 7    1  0.6152634E-006  0.7588052E+02  0.7818608E-02  0.1482726E+00
          2   -1    0    0  502    0  0.00000000000E+00  0.00000000000E+00  0.32144632069E+04  0.32144632069E+04  0.00000000000E+00 0. -1.
          1   -1    0    0  501    0 -0.00000000000E+00 -0.00000000000E+00 -0.37862397201E+02  0.37862397201E+02  0.00000000000E+00 0. -1.
         25    2    1    2    0    0 -0.34013700972E+02 -0.41675473493E+02  0.55246766330E+03  0.56898062034E+03  0.12499860152E+03 0.  0.
          2    1    1    2  501    0 -0.22485684657E+02 -0.11263617119E+02 -0.23595155409E+02  0.34484872682E+02  0.00000000000E+00 0. -1.
          1    1    1    2  502    0  0.56499385629E+02  0.52939090612E+02  0.26477283018E+04  0.26488601111E+04  0.00000000000E+00 0. -1.
         22    1    3    3    0    0 -0.48075226269E+01 -0.65158224302E+02  0.13652566765E+03  0.15135377232E+03  0.00000000000E+00 0. -1.
         22    1    3    3    0    0 -0.29206178345E+02  0.23482750809E+02  0.41594199565E+03  0.41762684802E+03  0.00000000000E+00 0. -1.
</event>
<event>
 7    1  0.6152634E-006  0.2397819E+03  0.7818608E-02  0.1231536E+00
          2   -1    0    0  502    0  0.00000000000E+00  0.00000000000E+00  0.28823646590E+03  0.28823646590E+03  0.00000000000E+00 0. -1.
          1   -1    0    0  501    0 -0.00000000000E+00 -0.00000000000E+00 -0.11579196151E+04  0.11579196151E+04  0.00000000000E+00 0. -1.
         25    2    1    2    0    0  0.19591391374E+03  0.73054600612E+01 -0.32377072462E+03  0.39860917580E+03  0.12500464618E+03 0.  0.
          2    1    1    2  501    0  0.45107012321E+02  0.50310513349E+02 -0.73358508580E+03  0.73669048346E+03  0.00000000000E+00 0. -1.
          1    1    1    2  502    0 -0.24102092606E+03 -0.57615973411E+02  0.18767266119E+03  0.31085642176E+03  0.00000000000E+00 0. -1.
         22    1    3    3    0    0  0.15447880666E+03  0.57442394461E+02 -0.25768894469E+03  0.30588710762E+03  0.00000000000E+00 0.  1.
         22    1    3    3    0    0  0.41435107082E+02 -0.50136934400E+02 -0.66081779929E+02  0.92722068185E+02  0.00000000000E+00 0.  1.
</event>
<event>
 7    1  0.6152634E-006  0.3668410E+02  0.7818608E-02  0.1558774E+00
          2   -1    0    0  502    0  0.00000000000E+00  0.00000000000E+00  0.44059237575E+03  0.44059237575E+03  0.00000000000E+00 0. -1.
          1   -1    0    0  501    0 -0.00000000000E+00 -0.00000000000E+00 -0.82948064701E+03  0.82948064701E+03  0.00000000000E+00 0. -1.
         25    2    1    2    0    0 -0.37393373587E+01  0.46677934079E+02 -0.12805457770E+03  0.18497255346E+03  0.12499623390E+03 0.  0.
          2    1    1    2  501    0  0.25956383353E+02 -0.17475386063E+02 -0.67178546581E+03  0.67251381773E+03  0.00000000000E+00 0. -1.
          1    1    1    2  502    0 -0.22217045995E+02 -0.29202548016E+02  0.41095177225E+03  0.41258665158E+03  0.00000000000E+00 0. -1.
         22    1    3    3    0    0  0.43215481824E+02  0.56960466273E+02 -0.11456992381E+03  0.13504939848E+03  0.00000000000E+00 0. -1.
         22    1    3    3    0    0 -0.46954819183E+02 -0.10282532194E+02 -0.13484653893E+02  0.49923154983E+02  0.00000000000E+00 0. -1.
</event>
<event>
 7    1  0.6152634E-006  0.1365452E+03  0.7818608E-02  0.1243178E+00
          2   -1    0    0  502    0  0.00000000000E+00  0.00000000000E+00  0.35410470257E+03  0.35410470257E+03  0.00000000000E+00 0. -1.
          1   -1    0    0  501    0 -0.00000000000E+00 -0.00000000000E+00 -0.14797398560E+04  0.14797398560E+04  0.00000000000E+00 0. -1.
         25    2    1    2    0    0  0.73299480196E+02 -0.94875572594E+02 -0.54149774999E+03  0.56852380766E+03  0.12500127423E+03 0.  0.
          2    1    1    2  501    0  0.64178838916E+02  0.83574389175E+02 -0.90758776005E+03  0.91368437881E+03  0.00000000000E+00 0. -1.
          1    1    1    2  502    0 -0.13747831911E+03  0.11301183419E+02  0.32345035663E+03  0.35163637209E+03  0.00000000000E+00 0. -1.
         22    1    3    3    0    0 -0.17579378763E+02 -0.23951915129E+02 -0.29398212078E+03  0.29547963742E+03  0.00000000000E+00 0.  1.
         22    1    3    3    0    0  0.90878858959E+02 -0.70923657465E+02 -0.24751562921E+03  0.27304417023E+03  0.00000000000E+00 0.  1.
</event>
<event>
 7    1  0.6152634E-006  0.9461859E+02  0.7818608E-02  0.1379698E+00
          2   -1    0    0  502    0  0.00000000000E+00  0.00000000000E+00  0.12061315845E+04  0.12061315845E+04  0.00000000000E+00 0. -1.
          1   -1    0    0  501    0 -0.00000000000E+00 -0.00000000000E+00 -0.78325200670E+02  0.78325200670E+02  0.00000000000E+00 0. -1.
         25    2    1    2    0    0  0.50059922528E+02  0.12628613633E+03  0.77263353738E+03  0.79438121911E+03  0.12499901646E+03 0.  0.
          2    1    1    2  501    0 -0.41640393711E+02 -0.83071111677E+02 -0.33604692914E+02  0.98812991906E+02  0.00000000000E+00 0. -1.
          1    1    1    2  502    0 -0.84195288168E+01 -0.43215024649E+02  0.38877753942E+03  0.39126257421E+03  0.00000000000E+00 0. -1.
         22    1    3    3    0    0 -0.43709678315E+00 -0.20486640667E+02  0.20125135080E+03  0.20229186760E+03  0.00000000000E+00 0.  1.
         22    1    3    3    0    0  0.50497019311E+02  0.14677277699E+03  0.57138218658E+03  0.59208935151E+03  0.00000000000E+00 0.  1.
</event>
<event>
 7    1  0.6152634E-006  0.3972481E+02  0.7818608E-02  0.1541377E+00
          2   -1    0    0  502    0  0.00000000000E+00  0.00000000000E+00  0.25127332338E+04  0.25127332338E+04  0.00000000000E+00 0. -1.
          1   -1    0    0  501    0 -0.00000000000E+00 -0.00000000000E+00 -0.11968629899E+03  0.11968629899E+03  0.00000000000E+00 0. -1.
         25    2    1    2    0    0  0.31550801086E+02 -0.64461132964E+02  0.66469260673E+03  0.68014016213E+03  0.12499475186E+03 0.  0.
          2    1    1    2  501    0 -0.15662787134E+02  0.36325650889E+02 -0.10832178711E+03  0.11531905903E+03  0.00000000000E+00 0. -1.
          1    1    1    2  502    0 -0.15888013952E+02  0.28135482075E+02  0.18366761152E+04  0.18369603116E+04  0.00000000000E+00 0. -1.
         22    1    3    3    0    0  0.70349547007E+01 -0.10999009803E+02  0.20833865583E+00  0.13058032367E+02  0.00000000000E+00 0.  1.
         22    1    3    3    0    0  0.24515846386E+02 -0.53462123161E+02  0.66448426807E+03  0.66708212976E+03  0.00000000000E+00 0.  1.
</event>
<event>
 7    1  0.6152634E-006  0.6645797E+02  0.7818608E-02  0.1495663E+00
          2   -1    0    0  502    0  0.00000000000E+00  0.00000000000E+00  0.33229528120E+04  0.33229528120E+04  0.00000000000E+00 0. -1.
          1   -1    0    0  501    0 -0.00000000000E+00 -0.00000000000E+00 -0.74883564500E+02  0.74883564500E+02  0.00000000000E+00 0. -1.
         25    2    1    2    0    0  0.80092142080E+02 -0.22322279295E+01  0.14553157725E+04  0.14628699849E+04  0.12499944382E+03 0.  0.
          2    1    1    2  501    0 -0.17570542290E+02  0.19485239664E+02 -0.68101790286E+02  0.72981178130E+02  0.00000000000E+00 0. -1.
          1    1    1    2  502    0 -0.62521599790E+02 -0.17253011734E+02  0.18608552653E+04  0.18619852135E+04  0.00000000000E+00 0. -1.
         22    1    3    3    0    0  0.10510846971E+03  0.20367201609E+02  0.86639481483E+03  0.87298487299E+03  0.00000000000E+00 0.  1.
         22    1    3    3    0    0 -0.25016327632E+02 -0.22599429539E+02  0.58892095768E+03  0.58988511192E+03  0.00000000000E+00 0.  1.
</event>
<event>
 7    1  0.6152634E-006  0.5988767E+02  0.7818608E-02  0.1529054E+00
          2   -1    0    0  502    0  0.00000000000E+00  0.00000000000E+00  0.19211921351E+03  0.19211921351E+03  0.00000000000E+00 0. -1.
          1   -1    0    0  501    0 -0.00000000000E+00 -0.00000000000E+00 -0.29759314523E+04  0.29759314523E+04  0.00000000000E+00 0. -1.
         25    2    1    2    0    0  0.14977809419E+02  0.79655656929E+02 -0.80392227728E+02  0.16927525378E+03  0.12498737059E+03 0.  0.
          2    1    1    2  501    0 -0.31424259607E+01 -0.59660888459E+02 -0.28498687658E+04  0.28504949182E+04  0.00000000000E+00 0. -1.
          1    1    1    2  502    0 -0.11835383459E+02 -0.19994768470E+02  0.14644875477E+03  0.14828049379E+03  0.00000000000E+00 0. -1.
         22    1    3    3    0    0  0.10057306703E+02 -0.32248566178E+02 -0.47466523200E+01  0.34112316645E+02  0.00000000000E+00 0. -1.
         22    1    3    3    0    0  0.49205027161E+01  0.11190422311E+03 -0.75645575408E+02  0.13516293714E+03  0.00000000000E+00 0. -1.
</event>
<event>
 7    1  0.6152634E-006  0.2037761E+03  0.7818608E-02  0.1206808E+00
          2   -1    0    0  502    0  0.00000000000E+00  0.00000000000E+00  0.15647572247E+04  0.15647572247E+04  0.00000000000E+00 0. -1.
          1   -1    0    0  501    0 -0.00000000000E+00 -0.00000000000E+00 -0.23335748081E+03  0.23335748081E+03  0.00000000000E+00 0. -1.
         25    2    1    2    0    0  0.56380878729E+02  0.18644415815E+03  0.68064787353E+02  0.24124181135E+03  0.12499827467E+03 0.  0.
          2    1    1    2  501    0  0.43369553883E+02 -0.21258260448E+03 -0.63479506924E+02  0.22605735938E+03  0.00000000000E+00 0. -1.
          1    1    1    2  502    0 -0.99750432612E+02  0.26138446328E+02  0.13268144635E+04  0.13308155348E+04  0.00000000000E+00 0. -1.
         22    1    3    3    0    0  0.73900431355E+02  0.13156590753E+03 -0.15173686924E+01  0.15090780028E+03  0.00000000000E+00 0.  1.
         22    1    3    3    0    0 -0.17519552627E+02  0.54878250618E+02  0.69582156045E+02  0.90334011065E+02  0.00000000000E+00 0.  1.
</event>
<event>
 7    1  0.6152634E-006  0.1341181E+03  0.7818608E-02  0.1350941E+00
          2   -1    0    0  502    0  0.00000000000E+00  0.00000000000E+00  0.50062717894E+03  0.50062717894E+03  0.00000000000E+00 0. -1.
          1   -1    0    0  501    0 -0.00000000000E+00 -0.00000000000E+00 -0.59653074358E+03  0.59653074358E+03  0.00000000000E+00 0. -1.
         25    2    1    2    0    0  0.10175719331E+03 -0.94117953409E+02  0.33535552560E+03  0.38379778722E+03  0.12499878952E+03 0.  0.
          2    1    1    2  501    0 -0.68476176735E+02  0.11534850828E+03 -0.56148288981E+03  0.57728441924E+03  0.00000000000E+00 0. -1.
          1    1    1    2  502    0 -0.33281016580E+02 -0.21230554874E+02  0.13022379958E+03  0.13607571606E+03  0.00000000000E+00 0. -1.
         22    1    3    3    0    0  0.50229996545E+02  0.16230664487E+02  0.46611368756E+02  0.70420925299E+02  0.00000000000E+00 0. -1.
         22    1    3    3    0    0  0.51527196769E+02 -0.11034861790E+03  0.28874415684E+03  0.31337686192E+03  0.00000000000E+00 0. -1.
</event>
<event>
 7    1  0.6152634E-006  0.6812977E+02  0.7818608E-02  0.1421346E+00
          2   -1    0    0  502    0  0.00000000000E+00  0.00000000000E+00  0.29618051205E+02  0.29618051205E+02  0.00000000000E+00 0. -1.
          1   -1    0    0  501    0 -0.00000000000E+00 -0.00000000000E+00 -0.86492122733E+03  0.86492122733E+03  0.00000000000E+00 0. -1.
         25    2    1    2    0    0 -0.51715449827E+02  0.73848852009E+02 -0.43787973816E+03  0.46421093493E+03  0.12499994532E+03 0.  0.
          2    1    1    2  501    0  0.57644060090E+02 -0.30273079493E+02 -0.37565978557E+03  0.38126050346E+03  0.00000000000E+00 0. -1.
          1    1    1    2  502    0 -0.59286102630E+01 -0.43575772516E+02 -0.21763652393E+02  0.49067840135E+02  0.00000000000E+00 0. -1.
         22    1    3    3    0    0  0.22624934446E+02  0.68502726992E+02 -0.28697172491E+03  0.29590079784E+03  0.00000000000E+00 0.  1.
         22    1    3    3    0    0 -0.74340384273E+02  0.53461250173E+01 -0.15090801325E+03  0.16831013710E+03  0.00000000000E+00 0.  1.
</event>
<event>
 7    1  0.6152634E-006  0.6301054E+02  0.7818608E-02  0.1441772E+00
          2   -1    0    0  502    0  0.00000000000E+00  0.00000000000E+00  0.48655707176E+03  0.48655707176E+03  0.00000000000E+00 0. -1.
          1   -1    0    0  501    0 -0.00000000000E+00 -0.00000000000E+00 -0.29343908661E+04  0.29343908661E+04  0.00000000000E+00 0. -1.
         25    2    1    2    0    0 -0.21638180327E+02 -0.12181573521E+02 -0.54830686858E+03  0.56292291042E+03  0.12500071745E+03 0.  0.
          2    1    1    2  501    0  0.59938920659E+02  0.26075267854E+02 -0.23774600394E+04  0.23783584323E+04  0.00000000000E+00 0. -1.
          1    1    1    2  502    0 -0.38300740331E+02 -0.13893694334E+02  0.47793311358E+03  0.47966659515E+03  0.00000000000E+00 0. -1.
         22    1    3    3    0    0  0.97447113190E+01  0.40697298160E+02 -0.40264693402E+03  0.40481573951E+03  0.00000000000E+00 0. -1.
         22    1    3    3    0    0 -0.31382891646E+02 -0.52878871681E+02 -0.14565993455E+03  0.15810717091E+03  0.00000000000E+00 0. -1.
</event>
<event>
 7    1  0.6152634E-006  0.9244617E+02  0.7818608E-02  0.1343825E+00
          2   -1    0    0  502    0  0.00000000000E+00  0.00000000000E+00  0.79944902882E+03  0.79944902882E+03  0.00000000000E+00 0. -1.
          1   -1    0    0  501    0 -0.00000000000E+00 -0.00000000000E+00 -0.12567181879E+03  0.12567181879E+03  0.00000000000E+00 0. -1.
         25    2    1    2    0    0 -0.43048092801E+02 -0.85184904491E+02  0.82020857139E+02  0.17737529403E+03  0.12499987072E+03 0.  0.
          2    1    1    2  501    0 -0.17198497899E+02  0.93875305119E+02 -0.46799770746E+02  0.10629477778E+03  0.00000000000E+00 0. -1.
          1    1    1    2  502    0  0.60246590700E+02 -0.86904006276E+01  0.63855612363E+03  0.64145077580E+03  0.00000000000E+00 0. -1.
         22    1    3    3    0    0  0.19472360449E+02  0.10712643895E+02  0.55615511122E+02  0.59891724287E+02  0.00000000000E+00 0. -1.
         22    1    3    3    0    0 -0.62520453250E+02 -0.95897548386E+02  0.26405346017E+02  0.11748356974E+03  0.00000000000E+00 0. -1.
</event>
<event>
 7    1  0.6152634E-006  0.8900556E+02  0.7818608E-02  0.1312944E+00
          2   -1    0    0  502    0  0.00000000000E+00  0.00000000000E+00  0.26292099420E+03  0.26292099420E+03  0.00000000000E+00 0. -1.
          1   -1    0    0  501    0 -0.00000000000E+00 -0.00000000000E+00 -0.58636458584E+03  0.58636458584E+03  0.00000000000E+00 0. -1.
         25    2    1    2    0    0 -0.48993457331E+02 -0.46556768384E+02 -0.95181444960E+02  0.17103320116E+03  0.12499982757E+03 0.  0.
          2    1    1    2  501    0 -0.31936363160E+02  0.83602066089E+02 -0.43976801957E+03  0.44878184877E+03  0.00000000000E+00 0. -1.
          1    1    1    2  502    0  0.80929820491E+02 -0.37045297705E+02  0.21150587289E+03  0.22947053012E+03  0.00000000000E+00 0. -1.
         22    1    3    3    0    0  0.17202549727E+02 -0.69653238488E+02 -0.53165582008E+02  0.89297706909E+02  0.00000000000E+00 0.  1.
         22    1    3    3    0    0 -0.66196007058E+02  0.23096470104E+02 -0.42015862952E+02  0.81735494256E+02  0.00000000000E+00 0.  1.
</event>
<event>
 7    1  0.6152634E-006  0.5026929E+02  0.7818608E-02  0.1529819E+00
          2   -1    0    0  502    0  0.00000000000E+00  0.00000000000E+00  0.87884599602E+03  0.87884599602E+03  0.00000000000E+00 0. -1.
          1   -1    0    0  501    0 -0.00000000000E+00 -0.00000000000E+00 -0.18425987375E+04  0.18425987375E+04  0.00000000000E+00 0. -1.
         25    2    1    2    0    0 -0.62003162434E+02  0.15255558325E+02  0.12530685804E+03  0.18815799291E+03  0.12499798964E+03 0.  0.
          2    1    1    2  501    0  0.39474079079E+02 -0.31097170337E+02 -0.18105618261E+04  0.18112590547E+04  0.00000000000E+00 0. -1.
          1    1    1    2  502    0  0.22529083354E+02  0.15841612012E+02  0.72150222660E+03  0.72202768593E+03  0.00000000000E+00 0. -1.
         22    1    3    3    0    0 -0.97171956075E+02 -0.38728836673E+01  0.10552754590E+03  0.14350418537E+03  0.00000000000E+00 0. -1.
         22    1    3    3    0    0  0.35168793642E+02  0.19128441992E+02  0.19779312140E+02  0.44653807542E+02  0.00000000000E+00 0. -1.
</event>
<event>
 7    1  0.6152634E-006  0.4748770E+02  0.7818608E-02  0.1532536E+00
          2   -1    0    0  502    0  0.00000000000E+00  0.00000000000E+00  0.22353943751E+02  0.22353943751E+02  0.00000000000E+00 0. -1.
          1   -1    0    0  501    0 -0.00000000000E+00 -0.00000000000E+00 -0.13127526509E+04  0.13127526509E+04  0.00000000000E+00 0. -1.
         25    2    1    2    0    0  0.64536656760E+02  0.11677767711E+02 -0.28389346036E+03  0.31705362408E+03  0.12500461345E+03 0.  0.
          2    1    1    2  501    0 -0.26982122981E+02  0.95952588415E+01 -0.92819028489E+03  0.92863195558E+03  0.00000000000E+00 0. -1.
          1    1    1    2  502    0 -0.37554533780E+02 -0.21273026553E+02 -0.78314961925E+02  0.89421015021E+02  0.00000000000E+00 0. -1.
         22    1    3    3    0    0  0.36030925691E+02  0.57910117358E+02 -0.23243089669E+03  0.24223115208E+03  0.00000000000E+00 0.  1.
         22    1    3    3    0    0  0.28505731069E+02 -0.46232349646E+02 -0.51462563665E+02  0.74822472003E+02  0.00000000000E+00 0.  1.
</event>
<event>
 7    1  0.6152634E-006  0.5298454E+02  0.7818608E-02  0.1514742E+00
          2   -1    0    0  502    0  0.00000000000E+00  0.00000000000E+00  0.21788794713E+04  0.21788794713E+04  0.00000000000E+00 0. -1.
          1   -1    0    0  501    0 -0.00000000000E+00 -0.00000000000E+00 -0.23536195999E+03  0.23536195999E+03  0.00000000000E+00 0. -1.
         25    2    1    2    0    0 -0.59878413453E+02 -0.38463244181E+02  0.39792484685E+03  0.42313218333E+03  0.12502725814E+03 0.  0.
          2    1    1    2  501    0  0.51781579396E+02  0.10728436012E+02 -0.21949998438E+03  0.22578014626E+03  0.00000000000E+00 0. -1.
          1    1    1    2  502    0  0.80968340570E+01  0.27734808169E+02  0.17650926488E+04  0.17653291016E+04  0.00000000000E+00 0. -1.
         22    1    3    3    0    0 -0.38170136112E+02 -0.83294987671E+02  0.21877938749E+03  0.23719071367E+03  0.00000000000E+00 0. -1.
         22    1    3    3    0    0 -0.21708277342E+02  0.44831743490E+02  0.17914545936E+03  0.18594146966E+03  0.00000000000E+00 0. -1.
</event>
<event>
 7    1  0.6152634E-006  0.1072416E+03  0.7818608E-02  0.1322785E+00
          2   -1    0    0  502    0  0.00000000000E+00  0.00000000000E+00  0.72889986592E+03  0.72889986592E+03  0.00000000000E+00 0. -1.
          1   -1    0    0  501    0 -0.00000000000E+00 -0.00000000000E+00 -0.11403815896E+03  0.11403815896E+03  0.00000000000E+00 0. -1.
         25    2    1    2    0    0 -0.46054106667E+02 -0.15081542537E+03  0.15806034251E+03  0.25588030350E+03  0.12500153829E+03 0.  0.
          2    1    1    2  501    0  0.40119900833E+02  0.48680644337E+02 -0.43355370274E+02  0.76544756238E+02  0.00000000000E+00 0. -1.
          1    1    1    2  502    0  0.59342058341E+01  0.10213478103E+03  0.50015673472E+03  0.51051296515E+03  0.00000000000E+00 0. -1.
         22    1    3    3    0    0 -0.74219443136E+02 -0.56137238794E+02  0.38281531749E+02  0.10062500182E+03  0.00000000000E+00 0.  1.
         22    1    3    3    0    0  0.28165336469E+02 -0.94678186572E+02  0.11977881076E+03  0.15525530168E+03  0.00000000000E+00 0.  1.
</event>
<event>
 7    1  0.6152634E-006  0.5444876E+02  0.7818608E-02  0.1490205E+00
          2   -1    0    0  502    0  0.00000000000E+00  0.00000000000E+00  0.76513138694E+03  0.76513138694E+03  0.00000000000E+00 0. -1.
          1   -1    0    0  501    0 -0.00000000000E+00 -0.00000000000E+00 -0.16221522195E+04  0.16221522195E+04  0.00000000000E+00 0. -1.
         25    2    1    2    0    0 -0.61006070543E+01  0.28205661592E+02  0.55743003638E+01  0.12839769060E+03  0.12498846897E+03 0.  0.
          2    1    1    2  501    0  0.22883820890E+02  0.24136647658E+02 -0.15594809918E+04  0.15598356359E+04  0.00000000000E+00 0. -1.
          1    1    1    2  502    0 -0.16783213836E+02 -0.52342309250E+02  0.69688585890E+03  0.69905027998E+03  0.00000000000E+00 0. -1.
         22    1    3    3    0    0 -0.51276584427E+02 -0.25624374237E+02  0.90708614863E+01  0.58035999118E+02  0.00000000000E+00 0.  1.
         22    1    3    3    0    0  0.45175977372E+02  0.53830035829E+02 -0.34965611224E+01  0.70361691485E+02  0.00000000000E+00 0.  1.
</event>
<event>
 7    1  0.6152634E-006  0.1148548E+03  0.7818608E-02  0.1295682E+00
          2   -1    0    0  502    0  0.00000000000E+00  0.00000000000E+00  0.14052446788E+04  0.14052446788E+04  0.00000000000E+00 0. -1.
          1   -1    0    0  501    0 -0.00000000000E+00 -0.00000000000E+00 -0.42977514016E+03  0.42977514016E+03  0.00000000000E+00 0. -1.
         25    2    1    2    0    0  0.93536458351E+02 -0.56588405882E+02  0.93798203694E+03  0.95256782381E+03  0.12499536238E+03 0.  0.
          2    1    1    2  501    0 -0.11399698860E+03 -0.15928482118E+02 -0.41144393260E+03  0.42724131311E+03  0.00000000000E+00 0. -1.
          1    1    1    2  502    0  0.20460530250E+02  0.72516888000E+02  0.44893143432E+03  0.45521068207E+03  0.00000000000E+00 0. -1.
         22    1    3    3    0    0  0.33673174398E+02 -0.90967640320E+02  0.53985218682E+03  0.54849738183E+03  0.00000000000E+00 0. -1.
         22    1    3    3    0    0  0.59863283953E+02  0.34379234438E+02  0.39812985012E+03  0.40407044198E+03  0.00000000000E+00 0. -1.
</event>
<event>
 7    1  0.6152634E-006  0.9049319E+02  0.7818608E-02  0.1450386E+00
          2   -1    0    0  502    0  0.00000000000E+00  0.00000000000E+00  0.22140107281E+03  0.22140107281E+03  0.00000000000E+00 0. -1.
          1   -1    0    0  501    0 -0.00000000000E+00 -0.00000000000E+00 -0.96388301530E+02  0.96388301530E+02  0.00000000000E+00 0. -1.
         25    2    1    2    0    0  0.71358923256E+02  0.24466927563E+02  0.25199367036E+02  0.14815655407E+03  0.12499851976E+03 0.  0.
          2    1    1    2  501    0  0.23308152567E+02 -0.12849926085E+02 -0.58904780843E+01  0.27259646155E+02  0.00000000000E+00 0. -1.
          1    1    1    2  502    0 -0.94667075822E+02 -0.11617001478E+02  0.10570388233E+03  0.14237317411E+03  0.00000000000E+00 0. -1.
         22    1    3    3    0    0  0.83403992637E+02 -0.70696964484E+00 -0.28083330016E+02  0.88007949747E+02  0.00000000000E+00 0.  1.
         22    1    3    3    0    0 -0.12045069381E+02  0.25173897207E+02  0.53282697052E+02  0.60148604324E+02  0.00000000000E+00 0.  1.
</event>
<event>
 7    1  0.6152634E-006  0.1156433E+03  0.7818608E-02  0.1335772E+00
          2   -1    0    0  502    0  0.00000000000E+00  0.00000000000E+00  0.16507019509E+04  0.16507019509E+04  0.00000000000E+00 0. -1.
          1   -1    0    0  501    0 -0.00000000000E+00 -0.00000000000E+00 -0.79647434054E+03  0.79647434054E+03  0.00000000000E+00 0. -1.
         25    2    1    2    0    0  0.49176696397E+02 -0.52987494517E+02  0.20438684014E+03  0.25026042342E+03  0.12502110647E+03 0.  0.
          2    1    1    2  501    0 -0.10111755197E+03  0.57945137376E+02 -0.76866547928E+03  0.77745033108E+03  0.00000000000E+00 0. -1.
          1    1    1    2  502    0  0.51940855576E+02 -0.49576428584E+01  0.14185062494E+04  0.14194655369E+04  0.00000000000E+00 0. -1.
         22    1    3    3    0    0 -0.19653569363E+02  0.78701039496E+01  0.13092559282E+03  0.13262621226E+03  0.00000000000E+00 0. -1.
         22    1    3    3    0    0  0.68830265760E+02 -0.60857598467E+02  0.73461247326E+02  0.11763421116E+03  0.00000000000E+00 0. -1.
</event>
<event>
 7    1  0.6152634E-006  0.5860706E+02  0.7818608E-02  0.1421162E+00
          2   -1    0    0  502    0  0.00000000000E+00  0.00000000000E+00  0.16246305858E+02  0.16246305858E+02  0.00000000000E+00 0. -1.
          1   -1    0    0  501    0 -0.00000000000E+00 -0.00000000000E+00 -0.27836758435E+04  0.27836758435E+04  0.00000000000E+00 0. -1.
         25    2    1    2    0    0 -0.60534385956E+02  0.39528116831E+02 -0.49055631762E+03  0.51136799134E+03  0.12499935163E+03 0.  0.
          2    1    1    2  501    0  0.57694543827E+02  0.11587998453E+02 -0.21618684311E+04  0.21626691970E+04  0.00000000000E+00 0. -1.
          1    1    1    2  502    0  0.28398421287E+01 -0.51116115284E+02 -0.11500478893E+03  0.12588496106E+03  0.00000000000E+00 0. -1.
         22    1    3    3    0    0  0.26740420929E+02  0.48583065760E+02 -0.15880383570E+03  0.16820827157E+03  0.00000000000E+00 0.  1.
         22    1    3    3    0    0 -0.87274806885E+02 -0.90549489289E+01 -0.33175248191E+03  0.34315971977E+03  0.00000000000E+00 0.  1.
</event>
<event>
 7    1  0.6152634E-006  0.4466532E+02  0.7818608E-02  0.1591686E+00
          2   -1    0    0  502    0  0.00000000000E+00  0.00000000000E+00  0.25893935939E+03  0.25893935939E+03  0.00000000000E+00 0. -1.
          1   -1    0    0  501    0 -0.00000000000E+00 -0.00000000000E+00 -0.24607496248E+03  0.24607496248E+03  0.00000000000E+00 0. -1.
         25    2    1    2    0    0  0.39940623076E+02 -0.55559929202E+00 -0.42165811821E+01  0.13129701009E+03  0.12500225293E+03 0.  0.
          2    1    1    2  501    0 -0.38862485117E+00 -0.20942883457E+02 -0.17509279355E+03  0.17634126503E+03  0.00000000000E+00 0. -1.
          1    1    1    2  502    0 -0.39551998225E+02  0.21498482749E+02  0.19217377165E+03  0.19737604676E+03  0.00000000000E+00 0. -1.
         22    1    3    3    0    0  0.15222500397E+02  0.43690945375E+02  0.42162623870E+02  0.62596406268E+02  0.00000000000E+00 0.  1.
         22    1    3    3    0    0  0.24718122680E+02 -0.44246544667E+02 -0.46379205052E+02  0.68700603818E+02  0.00000000000E+00 0.  1.
</event>
<event>
 7    1  0.6152634E-006  0.6530759E+02  0.7818608E-02  0.1449367E+00
          2   -1    0    0  502    0  0.00000000000E+00  0.00000000000E+00  0.66868068620E+03  0.66868068620E+03  0.00000000000E+00 0. -1.
          1   -1    0    0  501    0 -0.00000000000E+00 -0.00000000000E+00 -0.54648115510E+02  0.54648115510E+02  0.00000000000E+00 0. -1.
         25    2    1    2    0    0 -0.12312731804E+02  0.91010393858E+02  0.33510486901E+03  0.36926314668E+03  0.12500201241E+03 0.  0.
          2    1    1    2  501    0 -0.11505279673E+02 -0.62490259174E+02 -0.86239755410E+01  0.64123138617E+02  0.00000000000E+00 0. -1.
          1    1    1    2  502    0  0.23818011477E+02 -0.28520134684E+02  0.28755167722E+03  0.28994251642E+03  0.00000000000E+00 0. -1.
         22    1    3    3    0    0 -0.80137542151E+01  0.12089240401E+03  0.29618161300E+03  0.32000428354E+03  0.00000000000E+00 0.  1.
         22    1    3    3    0    0 -0.42989775890E+01 -0.29882010157E+02  0.38923256017E+02  0.49258863145E+02  0.00000000000E+00 0.  1.
</event>
<event>
 7    1  0.6152634E-006  0.1727869E+03  0.7818608E-02  0.1363425E+00
          2   -1    0    0  502    0  0.00000000000E+00  0.00000000000E+00  0.92973896500E+03  0.92973896500E+03  0.00000000000E+00 0. -1.
          1   -1    0    0  501    0 -0.00000000000E+00 -0.00000000000E+00 -0.69239626092E+03  0.69239626092E+03  0.00000000000E+00 0. -1.
         25    2    1    2    0    0 -0.13709973233E+02  0.15006125946E+03  0.50113551908E+03  0.53802228242E+03  0.12499929176E+03 0.  0.
          2    1    1    2  501    0  0.32561976075E+02 -0.17018917047E+03 -0.66233098049E+03  0.68462176693E+03  0.00000000000E+00 0. -1.
          1    1    1    2  502    0 -0.18852002842E+02  0.20127911017E+02  0.39853816548E+03  0.39949117657E+03  0.00000000000E+00 0. -1.
         22    1    3    3    0    0  0.15694971033E+02 -0.16845679794E+02  0.33723448583E+02  0.40833564966E+02  0.00000000000E+00 0. -1.
         22    1    3    3    0    0 -0.29404944266E+02  0.16690693925E+03  0.46741207050E+03  0.49718871746E+03  0.00000000000E+00 0. -1.
</event>
<event>
 7    1  0.6152634E-006  0.6912717E+02  0.7818608E-02  0.1392464E+00
          2   -1    0    0  502    0  0.00000000000E+00  0.00000000000E+00  0.48323715844E+03  0.48323715844E+03  0.00000000000E+00 0. -1.
          1   -1    0    0  501    0 -0.00000000000E+00 -0.00000000000E+00 -0.53287072555E+03  0.53287072555E+03  0.00000000000E+00 0. -1.
         25    2    1    2    0    0 -0.40884403298E+02 -0.95788851139E+01 -0.54754934393E+02  0.14277904307E+03  0.12499785129E+03 0.  0.
          2    1    1    2  501    0  0.58480194389E+02 -0.41849806265E+02 -0.42942071180E+03  0.43540037568E+03  0.00000000000E+00 0. -1.
          1    1    1    2  502    0 -0.17595791090E+02  0.51428691379E+02  0.43454207909E+03  0.43792846524E+03  0.00000000000E+00 0. -1.
         22    1    3    3    0    0 -0.56805806262E+02 -0.56567369556E+02 -0.45915770768E+02  0.92385198645E+02  0.00000000000E+00 0.  1.
         22    1    3    3    0    0  0.15921402963E+02  0.46988484442E+02 -0.88391636250E+01  0.50393844426E+02  0.00000000000E+00 0.  1.
</event>
<event>
 7    1  0.6152634E-006  0.1136892E+03  0.7818608E-02  0.1394545E+00
          2   -1    0    0  502    0  0.00000000000E+00  0.00000000000E+00  0.18028141319E+04  0.18028141319E+04  0.00000000000E+00 0. -1.
          1   -1    0    0  501    0 -0.00000000000E+00 -0.00000000000E+00 -0.63865526069E+02  0.63865526069E+02  0.00000000000E+00 0. -1.
         25    2    1    2    0    0 -0.13635733730E+03  0.44471469865E+02  0.17286733213E+03  0.25705921037E+03  0.12500115219E+03 0.  0.
          2    1    1    2  501    0  0.32449501516E+02 -0.18955760935E+01 -0.64049888766E+01  0.33129854208E+02  0.00000000000E+00 0. -1.
          1    1    1    2  502    0  0.10390783579E+03 -0.42575893771E+02  0.15724862625E+04  0.15764905933E+04  0.00000000000E+00 0. -1.
         22    1    3    3    0    0 -0.99502577985E+02 -0.27252433400E+02  0.63378071972E+02  0.12107947043E+03  0.00000000000E+00 0.  1.
         22    1    3    3    0    0 -0.36854759316E+02  0.71723903265E+02  0.10948926016E+03  0.13597973994E+03  0.00000000000E+00 0.  1.
</event>
<event>
 7    1  0.6152634E-006  0.2397630E+03  0.7818608E-02  0.1251568E+00
          2   -1    0    0  502    0  0.00000000000E+00  0.00000000000E+00  0.12905090331E+04  0.12905090331E+04  0.00000000000E+00 0. -1.
          1   -1    0    0  501    0 -0.00000000000E+00 -0.00000000000E+00 -0.79539085700E+03  0.79539085700E+03  0.00000000000E+00 0. -1.
         25    2    1    2    0    0  0.25576057886E+03  0.11921354970E+03  0.40402734860E+03  0.50841769210E+03  0.12500042837E+03 0.  0.
          2    1    1    2  501    0 -0.51531045094E+02 -0.19692714918E+02 -0.72666425061E+03  0.72875522966E+03  0.00000000000E+00 0. -1.
          1    1    1    2  502    0 -0.20422953377E+03 -0.99520834785E+02  0.81775507811E+03  0.84872696835E+03  0.00000000000E+00 0. -1.
         22    1    3    3    0    0  0.22490401608E+03  0.61220495764E+02  0.25456747229E+03  0.34515846143E+03  0.00000000000E+00 0.  1.
         22    1    3    3    0    0  0.30856562781E+02  0.57993053938E+02  0.14945987631E+03  0.16325923066E+03  0.00000000000E+00 0.  1.
</event>
<event>
 7    1  0.6152634E-006  0.7757605E+02  0.7818608E-02  0.1365191E+00
          2   -1    0    0  502    0  0.00000000000E+00  0.00000000000E+00  0.69589805099E+03  0.69589805099E+03  0.00000000000E+00 0. -1.
          1   -1    0    0  501    0 -0.00000000000E+00 -0.00000000000E+00 -0.36854279505E+03  0.36854279505E+03  0.00000000000E+00 0. -1.
         25    2    1    2    0    0 -0.49583246777E+02 -0.12550569503E+03  0.39531692652E+03  0.43601322068E+03  0.12498751285E+03 0.  0.
          2    1    1    2  501    0  0.15632162074E+02  0.75399583602E+02 -0.34057739718E+03  0.34917391823E+03  0.00000000000E+00 0. -1.
          1    1    1    2  502    0  0.33951084703E+02  0.50106111430E+02  0.27261572661E+03  0.27925370714E+03  0.00000000000E+00 0. -1.
         22    1    3    3    0    0 -0.73101495478E+02 -0.30049552033E+02  0.12018492548E+03  0.14384443170E+03  0.00000000000E+00 0. -1.
         22    1    3    3    0    0  0.23518248701E+02 -0.95456142998E+02  0.27513200104E+03  0.29216878898E+03  0.00000000000E+00 0. -1.
</event>
<event>
 7    1  0.6152634E-006  0.1506578E+03  0.7818608E-02  0.1223628E+00
          2   -1    0    0  502    0  0.00000000000E+00  0.00000000000E+00  0.10883330094E+04  0.10883330094E+04  0.00000000000E+00 0. -1.
          1   -1    0    0  501    0 -0.00000000000E+00 -0.00000000000E+00 -0.40936830317E+03  0.40936830317E+03  0.00000000000E+00 0. -1.
         25    2    1    2    0    0  0.98910914488E+01  0.15020076796E+03  0.84914548455E+02  0.21328052576E+03  0.12497998938E+03 0.  0.
          2    1    1    2  501    0 -0.11175550875E+03 -0.33717362907E+02 -0.32868645449E+03  0.34879928278E+03  0.00000000000E+00 0. -1.
          1    1    1    2  502    0  0.10186441731E+03 -0.11648340505E+03  0.92273661232E+03  0.93562150407E+03  0.00000000000E+00 0. -1.
         22    1    3    3    0    0 -0.36647736596E+02  0.78646012584E+01  0.44479118294E+02  0.58166145779E+02  0.00000000000E+00 0.  1.
         22    1    3    3    0    0  0.46538828045E+02  0.14233616670E+03  0.40435430161E+02  0.15511437998E+03  0.00000000000E+00 0.  1.
</event>
<event>
 7    1  0.6152634E-006  0.1751437E+03  0.7818608E-02  0.1299939E+00
          2   -1    0    0  502    0  0.00000000000E+00  0.00000000000E+00  0.72693137366E+02  0.72693137366E+02  0.00000000000E+00 0. -1.
          1   -1    0    0  501    0 -0.00000000000E+00 -0.00000000000E+00 -0.21347359668E+04  0.21347359668E+04  0.00000000000E+00 0. -1.
         25    2    1    2    0    0  0.85626526112E+02 -0.17933752094E+03 -0.98774079271E+03  0.10152589262E+04  0.12499986137E+03 0.  0.
          2    1    1    2  501    0 -0.98118905205E+02  0.13350605709E+03 -0.11164421353E+04  0.11286692289E+04  0.00000000000E+00 0. -1.
          1    1    1    2  502    0  0.12492379092E+02  0.45831463854E+02  0.42140098585E+02  0.63500948994E+02  0.00000000000E+00 0. -1.
         22    1    3    3    0    0  0.15513784343E+02  0.12902448423E+02 -0.31792829529E+02  0.37655473566E+02  0.00000000000E+00 0.  1.
         22    1    3    3    0    0  0.70112741769E+02 -0.19223996936E+03 -0.95594796318E+03  0.97760345268E+03  0.00000000000E+00 0.  1.
</event>
<event>
 7    1  0.6152634E-006  0.4743403E+03  0.7818608E-02  0.1233491E+00
          2   -1    0    0  502    0  0.00000000000E+00  0.00000000000E+00  0.64327467836E+03  0.64327467836E+03  0.00000000000E+00 0. -1.
          1   -1    0    0  501    0 -0.00000000000E+00 -0.00000000000E+00 -0.78257377110E+03  0.78257377110E+03  0.00000000000E+00 0. -1.
         25    2    1    2    0    0  0.46194024810E+03  0.82999579728E+01  0.19746473905E+03  0.51775933181E+03  0.12499888156E+03 0.  0.
          2    1    1    2  501    0  0.28758514921E+02 -0.17138091903E+02 -0.41044728896E+03  0.41181032453E+03  0.00000000000E+00 0. -1.
          1    1    1    2  502    0 -0.49069876302E+03  0.88381339304E+01  0.73683457177E+02  0.49627879312E+03  0.00000000000E+00 0. -1.
         22    1    3    3    0    0  0.15430242184E+03  0.62025938870E+02  0.71345762750E+02  0.18096041650E+03  0.00000000000E+00 0. -1.
         22    1    3    3    0    0  0.30763782626E+03 -0.53725980897E+02  0.12611897630E+03  0.33679891531E+03  0.00000000000E+00 0. -1.
</event>
<event>
 7    1  0.6152634E-006  0.4131606E+03  0.7818608E-02  0.1117146E+00
          2   -1    0    0  502    0  0.00000000000E+00  0.00000000000E+00  0.75822836210E+03  0.75822836210E+03  0.00000000000E+00 0. -1.
          1   -1    0    0  501    0 -0.00000000000E+00 -0.00000000000E+00 -0.95268675763E+03  0.95268675763E+03  0.00000000000E+00 0. -1.
         25    2    1    2    0    0  0.31226721306E+03 -0.90441570658E+02 -0.19510453038E+02  0.34884947928E+03  0.12499924544E+03 0.  0.
          2    1    1    2  501    0 -0.44858190642E+03  0.43660202617E+02 -0.69170773115E+03  0.82558556515E+03  0.00000000000E+00 0. -1.
          1    1    1    2  502    0  0.13631469336E+03  0.46781368041E+02  0.51675978865E+03  0.53648007529E+03  0.00000000000E+00 0. -1.
         22    1    3    3    0    0  0.62704091080E+02 -0.66219647213E+02 -0.34888610531E+02  0.97642510517E+02  0.00000000000E+00 0. -1.
         22    1    3    3    0    0  0.24956312198E+03 -0.24221923445E+02  0.15378157493E+02  0.25120696877E+03  0.00000000000E+00 0. -1.
</event>
<event>
 7    1  0.6152634E-006  0.6802587E+02  0.7818608E-02  0.1519691E+00
          2   -1    0    0  502    0  0.00000000000E+00  0.00000000000E+00  0.16669416221E+04  0.16669416221E+04  0.00000000000E+00 0. -1.
          1   -1    0    0  501    0 -0.00000000000E+00 -0.00000000000E+00 -0.12591043427E+03  0.12591043427E+03  0.00000000000E+00 0. -1.
         25    2    1    2    0    0 -0.37693778715E+02 -0.57678616052E+02  0.28819034200E+02  0.14561218613E+03  0.12499891324E+03 0.  0.
          2    1    1    2  501    0  0.53478830761E+02  0.42688214721E+02 -0.50080358687E+02  0.84795703557E+02  0.00000000000E+00 0. -1.
          1    1    1    2  502    0 -0.15785052046E+02  0.14990401331E+02  0.15622925123E+04  0.15624441667E+04  0.00000000000E+00 0. -1.
         22    1    3    3    0    0 -0.70334952074E+02 -0.63890407845E+02 -0.87913221867E+01  0.95426815118E+02  0.00000000000E+00 0.  1.
         22    1    3    3    0    0  0.32641173359E+02  0.62117917927E+01  0.37610356386E+02  0.50185371007E+02  0.00000000000E+00 0.  1.
</event>
<event>
 7    1  0.6152634E-006  0.1777322E+03  0.7818608E-02  0.1277857E+00
          2   -1    0    0  502    0  0.00000000000E+00  0.00000000000E+00  0.97405101594E+03  0.97405101594E+03  0.00000000000E+00 0. -1.
          1   -1    0    0  501    0 -0.00000000000E+00 -0.00000000000E+00 -0.19674393948E+04  0.19674393948E+04  0.00000000000E+00 0. -1.
         25    2    1    2    0    0 -0.15398568025E+03 -0.47734621910E+02 -0.19136484343E+03  0.27970446313E+03  0.12499559808E+03 0.  0.
          2    1    1    2  501    0  0.18024969412E+03 -0.35147811762E+01 -0.17263144973E+04  0.17357027538E+04  0.00000000000E+00 0. -1.
          1    1    1    2  502    0 -0.26264013867E+02  0.51249403087E+02  0.92429096186E+03  0.92608319384E+03  0.00000000000E+00 0. -1.
         22    1    3    3    0    0 -0.17066211595E+03 -0.22261476715E+02 -0.14971845636E+03  0.22811564467E+03  0.00000000000E+00 0.  1.
         22    1    3    3    0    0  0.16676435699E+02 -0.25473145195E+02 -0.41646387073E+02  0.51588818459E+02  0.00000000000E+00 0.  1.
</event>
<event>
 7    1  0.1090984E-005  0.4879276E+02  0.7818608E-02  0.1511816E+00
          2   -1    0    0  502    0  0.00000000000E+00  0.00000000000E+00  0.25218953307E+04  0.25218953307E+04  0.00000000000E+00 0. -1.
          1   -1    0    0  501    0 -0.00000000000E+00 -0.00000000000E+00 -0.17355507947E+04  0.17355507947E+04  0.00000000000E+00 0. -1.
         25    2    1    2    0    0  0.61375405345E+02  0.50777042788E+02 -0.24472663206E+03  0.28611411911E+03  0.12499966504E+03 0.  0.
          2    1    1    2  501    0 -0.28294844287E+02 -0.14947226628E+02 -0.14697185414E+04  0.14700668722E+04  0.00000000000E+00 0. -1.
          1    1    1    2  502    0 -0.33080561059E+02 -0.35829816160E+02  0.25007897096E+04  0.25012651340E+04  0.00000000000E+00 0. -1.
         22    1    3    3    0    0  0.53211411433E+02  0.21722155489E+02 -0.24907700329E+03  0.25562210373E+03  0.00000000000E+00 0. -1.
         22    1    3    3    0    0  0.81639939124E+01  0.29054887299E+02  0.43503712268E+01  0.30492015387E+02  0.00000000000E+00 0. -1.
</event>
<event>
 7    1  0.6152634E-006  0.7901642E+02  0.7818608E-02  0.1469549E+00
          2   -1    0    0  502    0  0.00000000000E+00  0.00000000000E+00  0.45718187305E+03  0.45718187305E+03  0.00000000000E+00 0. -1.
          1   -1    0    0  501    0 -0.00000000000E+00 -0.00000000000E+00 -0.96221934973E+03  0.96221934973E+03  0.00000000000E+00 0. -1.
         25    2    1    2    0    0  0.11150351228E+02 -0.56385234753E+02 -0.78273960117E+02  0.15828757468E+03  0.12499807372E+03 0.  0.
          2    1    1    2  501    0  0.73765570628E+00  0.80091713933E+02 -0.84161383664E+03  0.84541651084E+03  0.00000000000E+00 0. -1.
          1    1    1    2  502    0 -0.11888006935E+02 -0.23706479180E+02  0.41485032007E+03  0.41569713726E+03  0.00000000000E+00 0. -1.
         22    1    3    3    0    0  0.27862714761E+02 -0.53071979762E+02 -0.10829025519E+03  0.12377295859E+03  0.00000000000E+00 0. -1.
         22    1    3    3    0    0 -0.16712363532E+02 -0.33132549906E+01  0.30016295075E+02  0.34514616085E+02  0.00000000000E+00 0. -1.
</event>
<event>
 7    1  0.6152634E-006  0.1448697E+03  0.7818608E-02  0.1289644E+00
          2   -1    0    0  502    0  0.00000000000E+00  0.00000000000E+00  0.89695085175E+03  0.89695085175E+03  0.00000000000E+00 0. -1.
          1   -1    0    0  501    0 -0.00000000000E+00 -0.00000000000E+00 -0.10029740507E+04  0.10029740507E+04  0.00000000000E+00 0. -1.
         25    2    1    2    0    0 -0.10392572453E+03 -0.82645793732E+02  0.42621937403E+03  0.46359148432E+03  0.12499290417E+03 0.  0.
          2    1    1    2  501    0  0.62992353588E+02  0.13079474416E+03 -0.97668757836E+03  0.98741780794E+03  0.00000000000E+00 0. -1.
          1    1    1    2  502    0  0.40933370945E+02 -0.48148950423E+02  0.44444500537E+03  0.44891561020E+03  0.00000000000E+00 0. -1.
         22    1    3    3    0    0 -0.55289959468E+02 -0.82546464689E+01  0.43907546599E+02  0.71084396703E+02  0.00000000000E+00 0. -1.
         22    1    3    3    0    0 -0.48635765066E+02 -0.74391147264E+02  0.38231182743E+03  0.39250708762E+03  0.00000000000E+00 0. -1.
</event>
<event>
 7    1  0.6152634E-006  0.1784686E+03  0.7818608E-02  0.1279056E+00
          2   -1    0    0  502    0  0.00000000000E+00  0.00000000000E+00  0.20897916256E+04  0.20897916256E+04  0.00000000000E+00 0. -1.
          1   -1    0    0  501    0 -0.00000000000E+00 -0.00000000000E+00 -0.47293095739E+03  0.47293095739E+03  0.00000000000E+00 0. -1.
         25    2    1    2    0    0  0.20993992437E+03  0.96989668474E+02  0.10781982584E+03  0.28413496619E+03  0.12500318609E+03 0.  0.
          2    1    1    2  501    0 -0.55152611136E+02 -0.13145996020E+02 -0.37856690037E+03  0.38278914010E+03  0.00000000000E+00 0. -1.
          1    1    1    2  502    0 -0.15478731324E+03 -0.83843672454E+02  0.18876077428E+04  0.18957984767E+04  0.00000000000E+00 0. -1.
         22    1    3    3    0    0  0.93390927135E+02  0.10612893262E+03  0.85205038467E+02  0.16506094084E+03  0.00000000000E+00 0.  1.
         22    1    3    3    0    0  0.11654899724E+03 -0.91392641451E+01  0.22614787370E+02  0.11907402535E+03  0.00000000000E+00 0.  1.
</event>
<event>
 7    1  0.6152634E-006  0.7422566E+02  0.7818608E-02  0.1399767E+00
          2   -1    0    0  502    0  0.00000000000E+00  0.00000000000E+00  0.94330122136E+03  0.94330122136E+03  0.00000000000E+00 0. -1.
          1   -1    0    0  501    0 -0.00000000000E+00 -0.00000000000E+00 -0.11602976377E+04  0.11602976377E+04  0.00000000000E+00 0. -1.
         25    2    1    2    0    0 -0.69986058046E+01 -0.67366321299E+02  0.19718249861E+03  0.24308873838E+03  0.12499598090E+03 0.  0.
          2    1    1    2  501    0  0.52449429170E+02  0.52688973480E+02 -0.11353388219E+04  0.11377703244E+04  0.00000000000E+00 0. -1.
          1    1    1    2  502    0 -0.45450823365E+02  0.14677347818E+02  0.72115990690E+03  0.72273979634E+03  0.00000000000E+00 0. -1.
         22    1    3    3    0    0  0.87639789124E+01 -0.31580096887E+01 -0.16753695039E+02  0.19169419632E+02  0.00000000000E+00 0. -1.
         22    1    3    3    0    0 -0.15762584717E+02 -0.64208311610E+02  0.21393619364E+03  0.22391931875E+03  0.00000000000E+00 0. -1.
</event>
<event>
 7    1  0.6152634E-006  0.1237676E+03  0.7818608E-02  0.1319882E+00
          2   -1    0    0  502    0  0.00000000000E+00  0.00000000000E+00  0.20077544409E+02  0.20077544409E+02  0.00000000000E+00 0. -1.
          1   -1    0    0  501    0 -0.00000000000E+00 -0.00000000000E+00 -0.18720279271E+04  0.18720279271E+04  0.00000000000E+00 0. -1.
         25    2    1    2    0    0  0.14224586108E+03  0.25105242063E+02 -0.62809046929E+03  0.65649588039E+03  0.12500018070E+03 0.  0.
          2    1    1    2  501    0 -0.50535061652E+02 -0.24342224153E+02 -0.20203631636E+03  0.20967834762E+03  0.00000000000E+00 0. -1.
          1    1    1    2  502    0 -0.91710799430E+02 -0.76301791016E+00 -0.10218235970E+04  0.10259312435E+04  0.00000000000E+00 0. -1.
         22    1    3    3    0    0  0.33958886405E+02  0.94168344858E+01 -0.41924492879E+03  0.42072341633E+03  0.00000000000E+00 0.  1.
         22    1    3    3    0    0  0.10828697468E+03  0.15688407578E+02 -0.20884554051E+03  0.23577246406E+03  0.00000000000E+00 0.  1.
</event>
<event>
 7    1  0.6152634E-006  0.1043090E+03  0.7818608E-02  0.1312563E+00
          2   -1    0    0  502    0  0.00000000000E+00  0.00000000000E+00  0.12343043615E+04  0.12343043615E+04  0.00000000000E+00 0. -1.
          1   -1    0    0  501    0 -0.00000000000E+00 -0.00000000000E+00 -0.49013749120E+03  0.49013749120E+03  0.00000000000E+00 0. -1.
         25    2    1    2    0    0  0.51374708657E+02 -0.59823003692E+02 -0.14450980002E+03  0.20670140785E+03  0.12499694894E+03 0.  0.
          2    1    1    2  501    0 -0.96216079983E+01  0.11734871905E+03 -0.30241611175E+03  0.32452858402E+03  0.00000000000E+00 0. -1.
          1    1    1    2  502    0 -0.41753100659E+02 -0.57525715355E+02  0.11910927820E+04  0.11932118608E+04  0.00000000000E+00 0. -1.
         22    1    3    3    0    0 -0.38034226023E+02  0.26458576504E+01 -0.45839883249E+02  0.59622963766E+02  0.00000000000E+00 0.  1.
         22    1    3    3    0    0  0.89408934680E+02 -0.62468861342E+02 -0.98669916772E+02  0.14707844408E+03  0.00000000000E+00 0.  1.
</event>
<event>
 7    1  0.6152634E-006  0.1207923E+03  0.7818608E-02  0.1292294E+00
          2   -1    0    0  502    0  0.00000000000E+00  0.00000000000E+00  0.12336664593E+04  0.12336664593E+04  0.00000000000E+00 0. -1.
          1   -1    0    0  501    0 -0.00000000000E+00 -0.00000000000E+00 -0.51610246090E+02  0.51610246090E+02  0.00000000000E+00 0. -1.
         25    2    1    2    0    0 -0.56113504849E+02 -0.10672431665E+03  0.37786351976E+03  0.41586626418E+03  0.12500041971E+03 0.  0.
          2    1    1    2  501    0 -0.15434690008E+02  0.12537503122E+03  0.99374792566E+02  0.16072485031E+03  0.00000000000E+00 0. -1.
          1    1    1    2  502    0  0.71548194857E+02 -0.18650714573E+02  0.70481790090E+03  0.70868559091E+03  0.00000000000E+00 0. -1.
         22    1    3    3    0    0  0.29477595019E+02 -0.48004605960E+02  0.21877354278E+03  0.22590979134E+03  0.00000000000E+00 0. -1.
         22    1    3    3    0    0 -0.85591099868E+02 -0.58719710689E+02  0.15908997698E+03  0.18995647284E+03  0.00000000000E+00 0. -1.
</event>
<event>
 7    1  0.6152634E-006  0.1013207E+03  0.7818608E-02  0.1412957E+00
          2   -1    0    0  502    0  0.00000000000E+00  0.00000000000E+00  0.99487796161E+01  0.99487796161E+01  0.00000000000E+00 0. -1.
          1   -1    0    0  501    0 -0.00000000000E+00 -0.00000000000E+00 -0.25024900790E+04  0.25024900790E+04  0.00000000000E+00 0. -1.
         25    2    1    2    0    0 -0.51232120257E+02  0.79542947037E+02 -0.10043007625E+04  0.10164653217E+04  0.12501967136E+03 0.  0.
          2    1    1    2  501    0 -0.30552892294E+02 -0.78699115062E+01 -0.64193795551E+03  0.64271280791E+03  0.00000000000E+00 0. -1.
          1    1    1    2  502    0  0.81785012552E+02 -0.71673035531E+02 -0.84630258135E+03  0.85326072891E+03  0.00000000000E+00 0. -1.
         22    1    3    3    0    0  0.21573486694E+02 -0.22646905032E+02 -0.20912427578E+03  0.21145037327E+03  0.00000000000E+00 0. -1.
         22    1    3    3    0    0 -0.72805606951E+02  0.10218985207E+03 -0.79517648670E+03  0.80501494848E+03  0.00000000000E+00 0. -1.
</event>
<event>
 7    1  0.6152634E-006  0.6794279E+02  0.7818608E-02  0.1396632E+00
          2   -1    0    0  502    0  0.00000000000E+00  0.00000000000E+00  0.76098361234E+03  0.76098361234E+03  0.00000000000E+00 0. -1.
          1   -1    0    0  501    0 -0.00000000000E+00 -0.00000000000E+00 -0.33775056824E+03  0.33775056824E+03  0.00000000000E+00 0. -1.
         25    2    1    2    0    0  0.60216120082E+02  0.63470989671E+02  0.21276045250E+03  0.26181350074E+03  0.12499900548E+03 0.  0.
          2    1    1    2  501    0 -0.53354750399E+02  0.38511424249E+01 -0.30872825115E+03  0.31332841197E+03  0.00000000000E+00 0. -1.
          1    1    1    2  502    0 -0.68613696834E+01 -0.67322132096E+02  0.51920084275E+03  0.52359226788E+03  0.00000000000E+00 0. -1.
         22    1    3    3    0    0 -0.20022940984E+02 -0.23700255071E+02  0.25219375068E+02  0.39982960557E+02  0.00000000000E+00 0. -1.
         22    1    3    3    0    0  0.80239061066E+02  0.87171244742E+02  0.18754107744E+03  0.22183054018E+03  0.00000000000E+00 0. -1.
</event>
<event>
 7    1  0.6152634E-006  0.3393968E+03  0.7818608E-02  0.1157759E+00
          2   -1    0    0  502    0  0.00000000000E+00  0.00000000000E+00  0.17293453723E+04  0.17293453723E+04  0.00000000000E+00 0. -1.
          1   -1    0    0  501    0 -0.00000000000E+00 -0.00000000000E+00 -0.35169115890E+03  0.35169115890E+03  0.00000000000E+00 0. -1.
         25    2    1    2    0    0  0.12539577897E+03  0.25899205661E+03  0.14558535310E+03  0.34586273169E+03  0.12499978945E+03 0.  0.
          2    1    1    2  501    0 -0.22705289626E+03 -0.29314565151E+03 -0.11160683347E+03  0.38722535555E+03  0.00000000000E+00 0. -1.
          1    1    1    2  502    0  0.10165711729E+03  0.34153594896E+02  0.13436756937E+04  0.13479484439E+04  0.00000000000E+00 0. -1.
         22    1    3    3    0    0  0.11989635134E+03  0.15025076859E+03  0.13816931658E+03  0.23673020207E+03  0.00000000000E+00 0. -1.
         22    1    3    3    0    0  0.54994276384E+01  0.10874128802E+03  0.74160365200E+01  0.10913252963E+03  0.00000000000E+00 0. -1.
</event>
<event>
 7    1  0.6152634E-006  0.5711688E+02  0.7818608E-02  0.1487358E+00
          2   -1    0    0  502    0  0.00000000000E+00  0.00000000000E+00  0.90280738231E+03  0.90280738231E+03  0.00000000000E+00 0. -1.
          1   -1    0    0  501    0 -0.00000000000E+00 -0.00000000000E+00 -0.75798472565E+02  0.75798472565E+02  0.00000000000E+00 0. -1.
         25    2    1    2    0    0  0.23349143583E+02  0.21411528478E+02  0.15158424572E+03  0.19901420566E+03  0.12500093779E+03 0.  0.
          2    1    1    2  501    0 -0.26594021157E+02 -0.53591162715E+02 -0.34412570990E+02  0.69017966679E+02  0.00000000000E+00 0. -1.
          1    1    1    2  502    0  0.32448775737E+01  0.32179634237E+02  0.70983723502E+03  0.71057368253E+03  0.00000000000E+00 0. -1.
         22    1    3    3    0    0  0.39816495467E+00  0.66592645736E+02  0.43229743559E+02  0.79394897378E+02  0.00000000000E+00 0. -1.
         22    1    3    3    0    0  0.22950978629E+02 -0.45181117258E+02  0.10835450216E+03  0.11961930828E+03  0.00000000000E+00 0. -1.
</event>
<event>
 7    1  0.6152634E-006  0.9857738E+02  0.7818608E-02  0.1304786E+00
          2   -1    0    0  502    0  0.00000000000E+00  0.00000000000E+00  0.78369914590E+02  0.78369914590E+02  0.00000000000E+00 0. -1.
          1   -1    0    0  501    0 -0.00000000000E+00 -0.00000000000E+00 -0.20127956480E+04  0.20127956480E+04  0.00000000000E+00 0. -1.
         25    2    1    2    0    0  0.33652488213E+02  0.81517499616E+02 -0.71944819629E+03  0.73553310008E+03  0.12500256585E+03 0.  0.
          2    1    1    2  501    0  0.45278491335E+02 -0.98443522820E+02 -0.12590199377E+04  0.12636741956E+04  0.00000000000E+00 0. -1.
          1    1    1    2  502    0 -0.78930979548E+02  0.16926023204E+02  0.44042400651E+02  0.91958266888E+02  0.00000000000E+00 0. -1.
         22    1    3    3    0    0 -0.33103447838E+02  0.37029626585E+02 -0.48909827860E+03  0.49161382978E+03  0.00000000000E+00 0.  1.
         22    1    3    3    0    0  0.66755936051E+02  0.44487873030E+02 -0.23034991769E+03  0.24391927030E+03  0.00000000000E+00 0.  1.
</event>
<event>
 7    1  0.6152634E-006  0.3772587E+02  0.7818608E-02  0.1594081E+00
          2   -1    0    0  502    0  0.00000000000E+00  0.00000000000E+00  0.12978282721E+03  0.12978282721E+03  0.00000000000E+00 0. -1.
          1   -1    0    0  501    0 -0.00000000000E+00 -0.00000000000E+00 -0.48904116555E+03  0.48904116555E+03  0.00000000000E+00 0. -1.
         25    2    1    2    0    0 -0.14832358997E+02  0.19056892485E+02 -0.67090264036E+02  0.14390953119E+03  0.12500274243E+03 0.  0.
          2    1    1    2  501    0  0.14887632678E+02  0.19384130374E+02 -0.37908714697E+03  0.37987425698E+03  0.00000000000E+00 0. -1.
          1    1    1    2  502    0 -0.55273681023E-01 -0.38441022859E+02  0.86919072669E+02  0.95040204584E+02  0.00000000000E+00 0. -1.
         22    1    3    3    0    0  0.44025397038E+01 -0.37691756084E+02 -0.74426203281E+02  0.83542268149E+02  0.00000000000E+00 0. -1.
         22    1    3    3    0    0 -0.19234898701E+02  0.56748648569E+02  0.73359392453E+01  0.60367263041E+02  0.00000000000E+00 0. -1.
</event>
<event>
 7    1  0.6152634E-006  0.2151302E+03  0.7818608E-02  0.1149838E+00
          2   -1    0    0  502    0  0.00000000000E+00  0.00000000000E+00  0.18142644839E+03  0.18142644839E+03  0.00000000000E+00 0. -1.
          1   -1    0    0  501    0 -0.00000000000E+00 -0.00000000000E+00 -0.77313536045E+03  0.77313536045E+03  0.00000000000E+00 0. -1.
         25    2    1    2    0    0 -0.80121757926E+02 -0.63868207750E+02  0.49680243386E+02  0.16908743945E+03  0.12499516608E+03 0.  0.
          2    1    1    2  501    0  0.25515208105E+03  0.17805641203E+01 -0.45911499150E+03  0.52525453858E+03  0.00000000000E+00 0. -1.
          1    1    1    2  502    0 -0.17503032312E+03  0.62087643630E+02 -0.18227416395E+03  0.26021983081E+03  0.00000000000E+00 0. -1.
         22    1    3    3    0    0 -0.10212614987E+03 -0.79869207931E+02  0.24353019351E+02  0.13191630079E+03  0.00000000000E+00 0. -1.
         22    1    3    3    0    0  0.22004391949E+02  0.16001000181E+02  0.25327224035E+02  0.37171138658E+02  0.00000000000E+00 0. -1.
</event>
<event>
 7    1  0.6152634E-006  0.2679087E+03  0.7818608E-02  0.1296917E+00
          2   -1    0    0  502    0  0.00000000000E+00  0.00000000000E+00  0.21735784127E+04  0.21735784127E+04  0.00000000000E+00 0. -1.
          1   -1    0    0  501    0 -0.00000000000E+00 -0.00000000000E+00 -0.23212098999E+04  0.23212098999E+04  0.00000000000E+00 0. -1.
         25    2    1    2    0    0 -0.70427429255E+02  0.26534608458E+03  0.55434788264E+03  0.63110622729E+03  0.12499971097E+03 0.  0.
          2    1    1    2  501    0  0.38494090387E+02 -0.26506408271E+03 -0.22748115300E+04  0.22905257606E+04  0.00000000000E+00 0. -1.
          1    1    1    2  502    0  0.31933338868E+02 -0.28200187173E+00  0.15728321602E+04  0.15731563247E+04  0.00000000000E+00 0. -1.
         22    1    3    3    0    0  0.19962111804E+02  0.11006063828E+03  0.29591354229E+03  0.31634894423E+03  0.00000000000E+00 0. -1.
         22    1    3    3    0    0 -0.90389541059E+02  0.15528544630E+03  0.25843434035E+03  0.31475728306E+03  0.00000000000E+00 0. -1.
</event>
<event>
 7    1  0.6152634E-006  0.4853638E+02  0.7818608E-02  0.1568882E+00
          2   -1    0    0  502    0  0.00000000000E+00  0.00000000000E+00  0.26870807344E+04  0.26870807344E+04  0.00000000000E+00 0. -1.
          1   -1    0    0  501    0 -0.00000000000E+00 -0.00000000000E+00 -0.70604426203E+01  0.70604426203E+01  0.00000000000E+00 0. -1.
         25    2    1    2    0    0 -0.44446891108E+02  0.34693502294E+02  0.10198722048E+04  0.10290499057E+04  0.12500091585E+03 0.  0.
          2    1    1    2  501    0 -0.21137038419E+01 -0.22088483031E+02  0.56256266912E+02  0.60474262239E+02  0.00000000000E+00 0. -1.
          1    1    1    2  502    0  0.46560594950E+02 -0.12605019263E+02  0.16038918201E+04  0.16046170091E+04  0.00000000000E+00 0. -1.
         22    1    3    3    0    0  0.33911614850E+02 -0.15492684040E+02  0.16670408329E+03  0.17082234124E+03  0.00000000000E+00 0.  1.
         22    1    3    3    0    0 -0.78358505958E+02  0.50186186334E+02  0.85316812153E+03  0.85822756443E+03  0.00000000000E+00 0.  1.
</event>
<event>
 7    1  0.6152634E-006  0.2954821E+03  0.7818608E-02  0.1280365E+00
          2   -1    0    0  502    0  0.00000000000E+00  0.00000000000E+00  0.73501198109E+03  0.73501198109E+03  0.00000000000E+00 0. -1.
          1   -1    0    0  501    0 -0.00000000000E+00 -0.00000000000E+00 -0.66407422165E+03  0.66407422165E+03  0.00000000000E+00 0. -1.
         25    2    1    2    0    0  0.10213505949E+02  0.26721174454E+03 -0.93692157994E+02  0.30969052733E+03  0.12499428036E+03 0.  0.
          2    1    1    2  501    0 -0.60705870686E+01  0.33271550578E+02 -0.42566658818E+03  0.42700807064E+03  0.00000000000E+00 0. -1.
          1    1    1    2  502    0 -0.41429188805E+01 -0.30048329512E+03  0.59029650560E+03  0.66238760477E+03  0.00000000000E+00 0. -1.
         22    1    3    3    0    0 -0.51034478434E+02  0.60183787964E+02 -0.18256144564E+02  0.80993167224E+02  0.00000000000E+00 0. -1.
         22    1    3    3    0    0  0.61247984383E+02  0.20702795658E+03 -0.75436013430E+02  0.22869736010E+03  0.00000000000E+00 0. -1.
</event>
<event>
 7    1  0.6152634E-006  0.1147434E+03  0.7818608E-02  0.1281212E+00
          2   -1    0    0  502    0  0.00000000000E+00  0.00000000000E+00  0.44456358731E+03  0.44456358731E+03  0.00000000000E+00 0. -1.
          1   -1    0    0  501    0 -0.00000000000E+00 -0.00000000000E+00 -0.70062495128E+03  0.70062495128E+03  0.00000000000E+00 0. -1.
         25    2    1    2    0    0  0.17656209343E+03 -0.14524601180E+02 -0.11665699096E+02  0.21713289931E+03  0.12500188219E+03 0.  0.
          2    1    1    2  501    0 -0.78274833385E+02 -0.36568797604E+02 -0.57393238629E+03  0.58039866517E+03  0.00000000000E+00 0. -1.
          1    1    1    2  502    0 -0.98287260049E+02  0.51093398784E+02  0.32953672141E+03  0.34765697411E+03  0.00000000000E+00 0. -1.
         22    1    3    3    0    0  0.16645866827E+03 -0.31520473845E+02 -0.47723281878E+02  0.17601005695E+03  0.00000000000E+00 0. -1.
         22    1    3    3    0    0  0.10103425161E+02  0.16995872664E+02  0.36057582782E+02  0.41122842359E+02  0.00000000000E+00 0. -1.
</event>
<event>
 7    1  0.6152634E-006  0.4491113E+02  0.7818608E-02  0.1528273E+00
          2   -1    0    0  502    0  0.00000000000E+00  0.00000000000E+00  0.24248851321E+03  0.24248851321E+03  0.00000000000E+00 0. -1.
          1   -1    0    0  501    0 -0.00000000000E+00 -0.00000000000E+00 -0.54137450188E+03  0.54137450188E+03  0.00000000000E+00 0. -1.
         25    2    1    2    0    0  0.41942961702E+02 -0.17580975492E+02 -0.29203178061E+03  0.32089850345E+03  0.12499994359E+03 0.  0.
          2    1    1    2  501    0 -0.21431932020E+02  0.41016412724E+02 -0.23154559799E+03  0.23612504690E+03  0.00000000000E+00 0. -1.
          1    1    1    2  502    0 -0.20511029682E+02 -0.23435437232E+02  0.22469138993E+03  0.22683946474E+03  0.00000000000E+00 0. -1.
         22    1    3    3    0    0 -0.26691268956E+02  0.50117796473E+01 -0.20930098970E+03  0.21105555207E+03  0.00000000000E+00 0. -1.
         22    1    3    3    0    0  0.68634230658E+02 -0.22592755139E+02 -0.82730790913E+02  0.10984295138E+03  0.00000000000E+00 0. -1.
</event>
<event>
 7    1  0.6152634E-006  0.6113209E+02  0.7818608E-02  0.1522219E+00
          2   -1    0    0  502    0  0.00000000000E+00  0.00000000000E+00  0.11052792894E+04  0.11052792894E+04  0.00000000000E+00 0. -1.
          1   -1    0    0  501    0 -0.00000000000E+00 -0.00000000000E+00 -0.11660108623E+04  0.11660108623E+04  0.00000000000E+00 0. -1.
         25    2    1    2    0    0  0.55051172960E+00 -0.82422633838E+02  0.17217525468E+03  0.22817326146E+03  0.12499970115E+03 0.  0.
          2    1    1    2  501    0  0.75728046683E+01  0.22582300911E+02 -0.11368796814E+04  0.11371291561E+04  0.00000000000E+00 0. -1.
          1    1    1    2  502    0 -0.81233163979E+01  0.59840332927E+02  0.90397285391E+03  0.90598773409E+03  0.00000000000E+00 0. -1.
         22    1    3    3    0    0 -0.12854826691E+02  0.31617451991E+02  0.30180194003E+02  0.45560442818E+02  0.00000000000E+00 0.  1.
         22    1    3    3    0    0  0.13405338420E+02 -0.11404008583E+03  0.14199506068E+03  0.18261281864E+03  0.00000000000E+00 0.  1.
</event>
<event>
 7    1  0.6152634E-006  0.1852237E+03  0.7818608E-02  0.1319148E+00
          2   -1    0    0  502    0  0.00000000000E+00  0.00000000000E+00  0.19356398794E+04  0.19356398794E+04  0.00000000000E+00 0. -1.
          1   -1    0    0  501    0 -0.00000000000E+00 -0.00000000000E+00 -0.29478657697E+03  0.29478657697E+03  0.00000000000E+00 0. -1.
         25    2    1    2    0    0 -0.16105944001E+03  0.96413495579E+02  0.15333399205E+04  0.15498364349E+04  0.12500383091E+03 0.  0.
          2    1    1    2  501    0  0.13659521802E+03 -0.12513462693E+03 -0.25551727197E+03  0.31560418996E+03  0.00000000000E+00 0. -1.
          1    1    1    2  502    0  0.24464221994E+02  0.28721131346E+02  0.36303065387E+03  0.36498583150E+03  0.00000000000E+00 0. -1.
         22    1    3    3    0    0 -0.35055329172E+02 -0.60548913759E+01  0.81305256385E+02  0.88747295896E+02  0.00000000000E+00 0.  1.
         22    1    3    3    0    0 -0.12600411084E+03  0.10246838695E+03  0.14520346641E+04  0.14610891390E+04  0.00000000000E+00 0.  1.
</event>
<event>
 7    1  0.6152634E-006  0.1782232E+03  0.7818608E-02  0.1332075E+00
          2   -1    0    0  502    0  0.00000000000E+00  0.00000000000E+00  0.84266158269E+03  0.84266158269E+03  0.00000000000E+00 0. -1.
          1   -1    0    0  501    0 -0.00000000000E+00 -0.00000000000E+00 -0.24300446166E+03  0.24300446166E+03  0.00000000000E+00 0. -1.
         25    2    1    2    0    0 -0.18581626282E+03 -0.16900685888E+01  0.13175653334E+03  0.25983707219E+03  0.12499992058E+03 0.  0.
          2    1    1    2  501    0  0.17431282596E+03 -0.31331877871E+02 -0.13451574932E+03  0.22239859415E+03  0.00000000000E+00 0. -1.
          1    1    1    2  502    0  0.11503436862E+02  0.33021946460E+02  0.60241633701E+03  0.60343037801E+03  0.00000000000E+00 0. -1.
         22    1    3    3    0    0 -0.19206062232E+03  0.73621539968E+01  0.82142399577E+02  0.20901879764E+03  0.00000000000E+00 0.  1.
         22    1    3    3    0    0  0.62443594998E+01 -0.90522225856E+01  0.49614133761E+02  0.50818274549E+02  0.00000000000E+00 0.  1.
</event>
<event>
 7    1  0.6152634E-006  0.7785687E+02  0.7818608E-02  0.1440347E+00
          2   -1    0    0  502    0  0.00000000000E+00  0.00000000000E+00  0.65054472366E+03  0.65054472366E+03  0.00000000000E+00 0. -1.
          1   -1    0    0  501    0 -0.00000000000E+00 -0.00000000000E+00 -0.13543356199E+03  0.13543356199E+03  0.00000000000E+00 0. -1.
         25    2    1    2    0    0  0.43513466931E+02  0.26816437394E+02  0.30912092863E+03  0.33733419660E+03  0.12500427414E+03 0.  0.
          2    1    1    2  501    0 -0.76264507466E+02 -0.20651830627E+02 -0.10748580838E+03  0.13340154501E+03  0.00000000000E+00 0. -1.
          1    1    1    2  502    0  0.32751040535E+02 -0.61646067665E+01  0.31347604142E+03  0.31524254405E+03  0.00000000000E+00 0. -1.
         22    1    3    3    0    0  0.63392625763E+02  0.39904660709E+02  0.30386275991E+03  0.31295939642E+03  0.00000000000E+00 0. -1.
         22    1    3    3    0    0 -0.19879158832E+02 -0.13088223316E+02  0.52581687284E+01  0.24374800180E+02  0.00000000000E+00 0. -1.
</event>
<event>
 7    1  0.6152634E-006  0.9879058E+02  0.7818608E-02  0.1436930E+00
          2   -1    0    0  502    0  0.00000000000E+00  0.00000000000E+00  0.86268966380E+03  0.86268966380E+03  0.00000000000E+00 0. -1.
          1   -1    0    0  501    0 -0.00000000000E+00 -0.00000000000E+00 -0.56483054896E+03  0.56483054896E+03  0.00000000000E+00 0. -1.
         25    2    1    2    0    0 -0.63122619552E+02 -0.51035727753E+02 -0.77321832196E+02  0.16790824923E+03  0.12500161527E+03 0.  0.
          2    1    1    2  501    0  0.89739833327E+02  0.46844940216E+02 -0.43619555477E+03  0.44778817326E+03  0.00000000000E+00 0. -1.
          1    1    1    2  502    0 -0.26617213775E+02  0.41907875376E+01  0.81137650181E+03  0.81182379027E+03  0.00000000000E+00 0. -1.
         22    1    3    3    0    0 -0.53374226290E+02  0.11915233145E+02  0.14105186822E+02  0.56477757642E+02  0.00000000000E+00 0.  1.
         22    1    3    3    0    0 -0.97483932615E+01 -0.62950960898E+02 -0.91427019018E+02  0.11143049159E+03  0.00000000000E+00 0.  1.
</event>
<event>
 7    1  0.6152634E-006  0.1561325E+03  0.7818608E-02  0.1356617E+00
          2   -1    0    0  502    0  0.00000000000E+00  0.00000000000E+00  0.19164203704E+04  0.19164203704E+04  0.00000000000E+00 0. -1.
          1   -1    0    0  501    0 -0.00000000000E+00 -0.00000000000E+00 -0.32716004938E+03  0.32716004938E+03  0.00000000000E+00 0. -1.
         25    2    1    2    0    0  0.11247117451E+03  0.69596551218E+02  0.12388751523E+03  0.22015192352E+03  0.12500123184E+03 0.  0.
          2    1    1    2  501    0  0.94309275436E+01  0.30909348274E+02 -0.27450067197E+03  0.27639636235E+03  0.00000000000E+00 0. -1.
          1    1    1    2  502    0 -0.12190210205E+03 -0.10050589949E+03  0.17398734778E+04  0.17470321339E+04  0.00000000000E+00 0. -1.
         22    1    3    3    0    0  0.61674441764E+02  0.57055867900E+02  0.14182249274E+03  0.16484152473E+03  0.00000000000E+00 0. -1.
         22    1    3    3    0    0  0.50796732747E+02  0.12540683319E+02 -0.17934977508E+02  0.55310398787E+02  0.00000000000E+00 0. -1.
</event>
<event>
 7    1  0.6152634E-006  0.1684784E+03  0.7818608E-02  0.1367726E+00
          2   -1    0    0  502    0  0.00000000000E+00  0.00000000000E+00  0.23062564966E+04  0.23062564966E+04  0.00000000000E+00 0. -1.
          1   -1    0    0  501    0 -0.00000000000E+00 -0.00000000000E+00 -0.23368750374E+03  0.23368750374E+03  0.00000000000E+00 0. -1.
         25    2    1    2    0    0 -0.17852758652E+03  0.50010431803E+02  0.68042286343E+03  0.71622139145E+03  0.12499866425E+03 0.  0.
          2    1    1    2  501    0  0.16573236588E+03 -0.25909213448E+02 -0.18305254071E+03  0.24828760964E+03  0.00000000000E+00 0. -1.
          1    1    1    2  502    0  0.12795220645E+02 -0.24101218354E+02  0.15751986701E+04  0.15754349992E+04  0.00000000000E+00 0. -1.
         22    1    3    3    0    0  0.78235183708E+01  0.35809122049E+02  0.11765253957E+03  0.12322995062E+03  0.00000000000E+00 0.  1.
         22    1    3    3    0    0 -0.18635110489E+03  0.14201309754E+02  0.56277032385E+03  0.59299144083E+03  0.00000000000E+00 0.  1.
</event>
<event>
 7    1  0.6152634E-006  0.3499558E+02  0.7818608E-02  0.1564242E+00
          2   -1    0    0  502    0  0.00000000000E+00  0.00000000000E+00  0.20434064330E+04  0.20434064330E+04  0.00000000000E+00 0. -1.
          1   -1    0    0  501    0 -0.00000000000E+00 -0.00000000000E+00 -0.21033563965E+02  0.21033563965E+02  0.00000000000E+00 0. -1.
         25    2    1    2    0    0  0.21903408483E+02  0.30366029524E+02  0.45053501244E+03  0.46906087809E+03  0.12503781376E+03 0.  0.
          2    1    1    2  501    0 -0.31486241941E+02  0.35478469172E+01  0.10118112455E+02  0.33261792630E+02  0.00000000000E+00 0. -1.
          1    1    1    2  502    0  0.95828334583E+01 -0.33913876441E+02  0.15617197441E+04  0.15621173262E+04  0.00000000000E+00 0. -1.
         22    1    3    3    0    0  0.69694212279E+02 -0.13122608776E+01  0.29960194096E+03  0.30760417468E+03  0.00000000000E+00 0. -1.
         22    1    3    3    0    0 -0.47790803796E+02  0.31678290402E+02  0.15093307148E+03  0.16145670341E+03  0.00000000000E+00 0. -1.
</event>
<event>
 7    1  0.6152634E-006  0.4820251E+02  0.7818608E-02  0.1472635E+00
          2   -1    0    0  502    0  0.00000000000E+00  0.00000000000E+00  0.31914574285E+03  0.31914574285E+03  0.00000000000E+00 0. -1.
          1   -1    0    0  501    0 -0.00000000000E+00 -0.00000000000E+00 -0.15776584965E+04  0.15776584965E+04  0.00000000000E+00 0. -1.
         25    2    1    2    0    0 -0.73588518775E+02  0.15107501731E+02 -0.48363142210E+03  0.50514279947E+03  0.12500555471E+03 0.  0.
          2    1    1    2  501    0  0.28383128993E+02 -0.31665756319E+02 -0.10809719072E+04  0.10818080173E+04  0.00000000000E+00 0. -1.
          1    1    1    2  502    0  0.45205389782E+02  0.16558254589E+02  0.30609057559E+03  0.30985342264E+03  0.00000000000E+00 0. -1.
         22    1    3    3    0    0  0.33336705901E+02 -0.69370242040E+01 -0.16032042497E+03  0.16389660439E+03  0.00000000000E+00 0.  1.
         22    1    3    3    0    0 -0.10692522468E+03  0.22044525935E+02 -0.32331099713E+03  0.34124619508E+03  0.00000000000E+00 0.  1.
</event>
<event>
 7    1  0.6152634E-006  0.7562444E+02  0.7818608E-02  0.1344045E+00
          2   -1    0    0  502    0  0.00000000000E+00  0.00000000000E+00  0.19748286133E+04  0.19748286133E+04  0.00000000000E+00 0. -1.
          1   -1    0    0  501    0 -0.00000000000E+00 -0.00000000000E+00 -0.84412554627E+02  0.84412554627E+02  0.00000000000E+00 0. -1.
         25    2    1    2    0    0  0.50310255616E+01  0.13233036083E+01  0.28706233416E+03  0.31313974823E+03  0.12499862350E+03 0.  0.
          2    1    1    2  501    0  0.38606550028E+02  0.65027610476E+02 -0.50117709766E+02  0.90723980631E+02  0.00000000000E+00 0. -1.
          1    1    1    2  502    0 -0.43637575589E+02 -0.66350914085E+02  0.16534714343E+04  0.16553774391E+04  0.00000000000E+00 0. -1.
         22    1    3    3    0    0  0.17825239965E+02  0.56612246567E+02  0.20461446450E+03  0.21304873791E+03  0.00000000000E+00 0.  1.
         22    1    3    3    0    0 -0.12794214403E+02 -0.55288942958E+02  0.82447869664E+02  0.10009101032E+03  0.00000000000E+00 0.  1.
</event>
<event>
 7    1  0.6152634E-006  0.1880061E+03  0.7818608E-02  0.1227871E+00
          2   -1    0    0  502    0  0.00000000000E+00  0.00000000000E+00  0.16255229693E+04  0.16255229693E+04  0.00000000000E+00 0. -1.
          1   -1    0    0  501    0 -0.00000000000E+00 -0.00000000000E+00 -0.47522231137E+03  0.47522231137E+03  0.00000000000E+00 0. -1.
         25    2    1    2    0    0  0.48381118420E+02  0.12307823764E+03 -0.34736923481E+02  0.18525846898E+03  0.12500024511E+03 0.  0.
          2    1    1    2  501    0 -0.12251934322E+03 -0.17322385142E+03 -0.33297987341E+03  0.39483298781E+03  0.00000000000E+00 0. -1.
          1    1    1    2  502    0  0.74138224803E+02  0.50145613778E+02  0.15180174548E+04  0.15206538239E+04  0.00000000000E+00 0. -1.
         22    1    3    3    0    0  0.43341800679E+02  0.59876350648E+02  0.42553061784E+02  0.85290398758E+02  0.00000000000E+00 0. -1.
         22    1    3    3    0    0  0.50393177411E+01  0.63201886991E+02 -0.77289985265E+02  0.99968070226E+02  0.00000000000E+00 0. -1.
</event>
<event>
 7    1  0.6152634E-006  0.5469764E+02  0.7818608E-02  0.1502883E+00
          2   -1    0    0  502    0  0.00000000000E+00  0.00000000000E+00  0.98387842818E+03  0.98387842818E+03  0.00000000000E+00 0. -1.
          1   -1    0    0  501    0 -0.00000000000E+00 -0.00000000000E+00 -0.31045624316E+02  0.31045624316E+02  0.00000000000E+00 0. -1.
         25    2    1    2    0    0 -0.21359576206E+02  0.38250229648E+02  0.32343995578E+03  0.34950939319E+03  0.12499639741E+03 0.  0.
          2    1    1    2  501    0 -0.28142327444E+02 -0.11321291083E+02 -0.30308933652E+01  0.30485218391E+02  0.00000000000E+00 0. -1.
          1    1    1    2  502    0  0.49501903650E+02 -0.26928938565E+02  0.63242374144E+03  0.63492944091E+03  0.00000000000E+00 0. -1.
         22    1    3    3    0    0 -0.21251544217E+02 -0.19602465080E+02  0.26742147613E+03  0.26897979602E+03  0.00000000000E+00 0.  1.
         22    1    3    3    0    0 -0.10803198853E+00  0.57852694728E+02  0.56018479649E+02  0.80529597170E+02  0.00000000000E+00 0.  1.
</event>
<event>
 7    1  0.6152634E-006  0.6572213E+02  0.7818608E-02  0.1385164E+00
          2   -1    0    0  502    0  0.00000000000E+00  0.00000000000E+00  0.14947368202E+04  0.14947368202E+04  0.00000000000E+00 0. -1.
          1   -1    0    0  501    0 -0.00000000000E+00 -0.00000000000E+00 -0.65393969762E+02  0.65393969762E+02  0.00000000000E+00 0. -1.
         25    2    1    2    0    0 -0.47265218760E+02  0.31193237446E+02  0.79414468814E+03  0.80591355821E+03  0.12499543447E+03 0.  0.
          2    1    1    2  501    0 -0.13809067935E+02 -0.64255023772E+02 -0.39019304173E+02  0.76432352674E+02  0.00000000000E+00 0. -1.
          1    1    1    2  502    0  0.61074286695E+02  0.33061786326E+02  0.67421746643E+03  0.67778487903E+03  0.00000000000E+00 0. -1.
         22    1    3    3    0    0 -0.56372647435E+02  0.73561966790E+02  0.48874336685E+03  0.49745282890E+03  0.00000000000E+00 0.  1.
         22    1    3    3    0    0  0.91074286749E+01 -0.42368729345E+02  0.30540132128E+03  0.30846072931E+03  0.00000000000E+00 0.  1.
</event>
<event>
 7    1  0.6152634E-006  0.2375116E+03  0.7818608E-02  0.1241074E+00
          2   -1    0    0  502    0  0.00000000000E+00  0.00000000000E+00  0.26020358937E+04  0.26020358937E+04  0.00000000000E+00 0. -1.
          1   -1    0    0  501    0 -0.00000000000E+00 -0.00000000000E+00 -0.32291962926E+04  0.32291962926E+04  0.00000000000E+00 0. -1.
         25    2    1    2    0    0  0.17384107876E+03 -0.60976338594E+02 -0.11918014445E+03  0.25252710073E+03  0.12500878065E+03 0.  0.
          2    1    1    2  501    0 -0.21743864311E+03  0.10489389969E+03 -0.30381760641E+04  0.30477526295E+04  0.00000000000E+00 0. -1.
          1    1    1    2  502    0  0.43597564355E+02 -0.43917561094E+02  0.25301958097E+04  0.25309524561E+04  0.00000000000E+00 0. -1.
         22    1    3    3    0    0  0.19165456947E+03 -0.60423647982E+02 -0.12106699961E+03  0.23460543393E+03  0.00000000000E+00 0.  1.
         22    1    3    3    0    0 -0.17813490717E+02 -0.55269061182E+00  0.18868551571E+01  0.17921666798E+02  0.00000000000E+00 0.  1.
</event>
<event>
 7    1  0.6152634E-006  0.9282310E+02  0.7818608E-02  0.1430283E+00
          2   -1    0    0  502    0  0.00000000000E+00  0.00000000000E+00  0.41518845064E+03  0.41518845064E+03  0.00000000000E+00 0. -1.
          1   -1    0    0  501    0 -0.00000000000E+00 -0.00000000000E+00 -0.34865993535E+03  0.34865993535E+03  0.00000000000E+00 0. -1.
         25    2    1    2    0    0 -0.84334218269E+01  0.89674802050E+02  0.71404915447E+02  0.16981258353E+03  0.12499983539E+03 0.  0.
          2    1    1    2  501    0 -0.21700397329E+02 -0.90704848978E+02 -0.29138405488E+03  0.30594598266E+03  0.00000000000E+00 0. -1.
          1    1    1    2  502    0  0.30133819156E+02  0.10300469279E+01  0.28650765473E+03  0.28808981980E+03  0.00000000000E+00 0. -1.
         22    1    3    3    0    0 -0.36952001614E+02 -0.16124823805E+02  0.37629853470E+02  0.55149489918E+02  0.00000000000E+00 0. -1.
         22    1    3    3    0    0  0.28518579787E+02  0.10579962585E+03  0.33775061977E+02  0.11466309361E+03  0.00000000000E+00 0. -1.
</event>
<event>
 7    1  0.6152634E-006  0.3046177E+02  0.7818608E-02  0.1608051E+00
          2   -1    0    0  502    0  0.00000000000E+00  0.00000000000E+00  0.29795806352E+03  0.29795806352E+03  0.00000000000E+00 0. -1.
          1   -1    0    0  501    0 -0.00000000000E+00 -0.00000000000E+00 -0.10785106713E+04  0.10785106713E+04  0.00000000000E+00 0. -1.
         25    2    1    2    0    0 -0.48836587476E+02  0.15499179062E+02 -0.63371815151E+03  0.64795869526E+03  0.12500615336E+03 0.  0.
          2    1    1    2  501    0  0.21383844071E+02 -0.20084479545E+02 -0.43651285676E+03  0.43749757625E+03  0.00000000000E+00 0. -1.
          1    1    1    2  502    0  0.27452743405E+02  0.45853004835E+01  0.28967840049E+03  0.29101246332E+03  0.00000000000E+00 0. -1.
         22    1    3    3    0    0 -0.82947885128E+01 -0.11320103962E+02 -0.55674251841E+03  0.55691936586E+03  0.00000000000E+00 0. -1.
         22    1    3    3    0    0 -0.40541798963E+02  0.26819283024E+02 -0.76975633102E+02  0.91039329395E+02  0.00000000000E+00 0. -1.
</event>
<event>
 7    1  0.6152634E-006  0.8507381E+02  0.7818608E-02  0.1406102E+00
          2   -1    0    0  502    0  0.00000000000E+00  0.00000000000E+00  0.59461723539E+02  0.59461723539E+02  0.00000000000E+00 0. -1.
          1   -1    0    0  501    0 -0.00000000000E+00 -0.00000000000E+00 -0.43129257357E+03  0.43129257357E+03  0.00000000000E+00 0. -1.
         25    2    1    2    0    0 -0.36786113275E+02 -0.64990767056E+02 -0.21154838658E+03  0.25681699227E+03  0.12500091889E+03 0.  0.
          2    1    1    2  501    0  0.83942155214E+01  0.92655645103E+02 -0.16939497139E+03  0.19326196666E+03  0.00000000000E+00 0. -1.
          1    1    1    2  502    0  0.28391897753E+02 -0.27664878048E+02  0.91125079356E+01  0.40675338183E+02  0.00000000000E+00 0. -1.
         22    1    3    3    0    0 -0.20273317304E+02 -0.97467015196E+02 -0.10722539469E+03  0.14631511101E+03  0.00000000000E+00 0. -1.
         22    1    3    3    0    0 -0.16512795971E+02  0.32476248140E+02 -0.10432299189E+03  0.11050188126E+03  0.00000000000E+00 0. -1.
</event>
<event>
 7    1  0.6152634E-006  0.1271041E+03  0.7818608E-02  0.1282936E+00
          2   -1    0    0  502    0  0.00000000000E+00  0.00000000000E+00  0.10742409663E+04  0.10742409663E+04  0.00000000000E+00 0. -1.
          1   -1    0    0  501    0 -0.00000000000E+00 -0.00000000000E+00 -0.67312239799E+02  0.67312239799E+02  0.00000000000E+00 0. -1.
         25    2    1    2    0    0 -0.66517204554E+01 -0.17841186598E+03  0.35627562584E+03  0.41765417973E+03  0.12501061144E+03 0.  0.
          2    1    1    2  501    0  0.41645111699E+02  0.64444049612E+02  0.16301407028E+02  0.78441613509E+02  0.00000000000E+00 0. -1.
          1    1    1    2  502    0 -0.34993391244E+02  0.11396781637E+03  0.63435169362E+03  0.64545741284E+03  0.00000000000E+00 0. -1.
         22    1    3    3    0    0 -0.12171738736E+02 -0.19602127813E+03  0.34176840498E+03  0.39418033353E+03  0.00000000000E+00 0.  1.
         22    1    3    3    0    0  0.55200182805E+01  0.17609412151E+02  0.14507220855E+02  0.23473846192E+02  0.00000000000E+00 0.  1.
</event>
<event>
 7    1  0.6152634E-006  0.6111134E+02  0.7818608E-02  0.1420413E+00
          2   -1    0    0  502    0  0.00000000000E+00  0.00000000000E+00  0.13059344788E+04  0.13059344788E+04  0.00000000000E+00 0. -1.
          1   -1    0    0  501    0 -0.00000000000E+00 -0.00000000000E+00 -0.93222001613E+03  0.93222001613E+03  0.00000000000E+00 0. -1.
         25    2    1    2    0    0 -0.55885526743E+02 -0.83741386565E+02  0.63658942697E+02  0.17266520566E+03  0.12500000135E+03 0.  0.
          2    1    1    2  501    0  0.61839494715E+01  0.48991591360E+02 -0.87624718872E+03  0.87763748382E+03  0.00000000000E+00 0. -1.
          1    1    1    2  502    0  0.49701577272E+02  0.34749795205E+02  0.11863027087E+04  0.11878518055E+04  0.00000000000E+00 0. -1.
         22    1    3    3    0    0 -0.92167999594E+01  0.31071540522E+02  0.30184460680E+02  0.44288731055E+02  0.00000000000E+00 0. -1.
         22    1    3    3    0    0 -0.46668726784E+02 -0.11481292709E+03  0.33474482017E+02  0.12837647461E+03  0.00000000000E+00 0. -1.
</event>
<event>
 7    1  0.6152634E-006  0.1028559E+03  0.7818608E-02  0.1375462E+00
          2   -1    0    0  502    0  0.00000000000E+00  0.00000000000E+00  0.15794250815E+04  0.15794250815E+04  0.00000000000E+00 0. -1.
          1   -1    0    0  501    0 -0.00000000000E+00 -0.00000000000E+00 -0.29008343917E+03  0.29008343917E+03  0.00000000000E+00 0. -1.
         25    2    1    2    0    0 -0.49623408656E+02  0.81478720990E+02  0.13165853393E+02  0.15779888073E+03  0.12500352957E+03 0.  0.
          2    1    1    2  501    0  0.14272341146E+02 -0.10402793519E+03 -0.20479545418E+03  0.23014493059E+03  0.00000000000E+00 0. -1.
          1    1    1    2  502    0  0.35351067510E+02  0.22549214204E+02  0.14809712431E+04  0.14815647094E+04  0.00000000000E+00 0. -1.
         22    1    3    3    0    0 -0.34411972282E+02  0.11326317972E+03  0.24301881234E+02  0.12084416886E+03  0.00000000000E+00 0.  1.
         22    1    3    3    0    0 -0.15211436374E+02 -0.31784458730E+02 -0.11136027841E+02  0.36954711870E+02  0.00000000000E+00 0.  1.
</event>
<event>
 7    1  0.6152634E-006  0.8782783E+02  0.7818608E-02  0.1309178E+00
          2   -1    0    0  502    0  0.00000000000E+00  0.00000000000E+00  0.18021940919E+04  0.18021940919E+04  0.00000000000E+00 0. -1.
          1   -1    0    0  501    0 -0.00000000000E+00 -0.00000000000E+00 -0.38777759020E+02  0.38777759020E+02  0.00000000000E+00 0. -1.
         25    2    1    2    0    0  0.11174492862E+03  0.21754846325E+02  0.87096366386E+03  0.88722236294E+03  0.12500246050E+03 0.  0.
          2    1    1    2  501    0 -0.67297200861E+02  0.55214940301E+02  0.38499152018E+02  0.95182916441E+02  0.00000000000E+00 0. -1.
          1    1    1    2  502    0 -0.44447727759E+02 -0.76969786625E+02  0.85395351697E+03  0.85856657150E+03  0.00000000000E+00 0. -1.
         22    1    3    3    0    0  0.65919262448E+02  0.13528700542E+02  0.14596251180E+03  0.16072781262E+03  0.00000000000E+00 0.  1.
         22    1    3    3    0    0  0.45825666172E+02  0.82261457829E+01  0.72500115206E+03  0.72649455032E+03  0.00000000000E+00 0.  1.
</event>
<event>
 7    1  0.6152634E-006  0.4657314E+02  0.7818608E-02  0.1581521E+00
          2   -1    0    0  502    0  0.00000000000E+00  0.00000000000E+00  0.53755119370E+03  0.53755119370E+03  0.00000000000E+00 0. -1.
          1   -1    0    0  501    0 -0.00000000000E+00 -0.00000000000E+00 -0.57628082166E+03  0.57628082166E+03  0.00000000000E+00 0. -1.
         25    2    1    2    0    0  0.19527000843E+02  0.19287410435E+02  0.76367630970E+02  0.14903081090E+03  0.12499943829E+03 0.  0.
          2    1    1    2  501    0  0.20589737284E+02  0.57524143084E+01 -0.53842049466E+03  0.53884474260E+03  0.00000000000E+00 0. -1.
          1    1    1    2  502    0 -0.40116738127E+02 -0.25039824743E+02  0.42332323573E+03  0.42595646187E+03  0.00000000000E+00 0. -1.
         22    1    3    3    0    0 -0.30274304334E+01 -0.51448438731E+02  0.45049227503E+02  0.68451004971E+02  0.00000000000E+00 0. -1.
         22    1    3    3    0    0  0.22554431277E+02  0.70735849166E+02  0.31318403467E+02  0.80579805927E+02  0.00000000000E+00 0. -1.
</event>
<event>
 7    1  0.6152634E-006  0.4354077E+02  0.7818608E-02  0.1556855E+00
          2   -1    0    0  502    0  0.00000000000E+00  0.00000000000E+00  0.49362232422E+02  0.49362232422E+02  0.00000000000E+00 0. -1.
          1   -1    0    0  501    0 -0.00000000000E+00 -0.00000000000E+00 -0.75359440253E+03  0.75359440253E+03  0.00000000000E+00 0. -1.
         25    2    1    2    0    0 -0.55827992385E+02 -0.21100147082E+02 -0.22654381087E+03  0.26553512680E+03  0.12499929753E+03 0.  0.
          2    1    1    2  501    0  0.30706084061E+02  0.30104777689E+02 -0.50048158579E+03  0.50232557068E+03  0.00000000000E+00 0. -1.
          1    1    1    2  502    0  0.25121908324E+02 -0.90046306077E+01  0.22793226554E+02  0.35095937470E+02  0.00000000000E+00 0. -1.
         22    1    3    3    0    0 -0.90478449752E+02  0.70363459033E+01 -0.17659283838E+03  0.19854694810E+03  0.00000000000E+00 0. -1.
         22    1    3    3    0    0  0.34650457367E+02 -0.28136492985E+02 -0.49950972484E+02  0.66988178699E+02  0.00000000000E+00 0. -1.
</event>
<event>
 7    1  0.6152634E-006  0.4235628E+02  0.7818608E-02  0.1584027E+00
          2   -1    0    0  502    0  0.00000000000E+00  0.00000000000E+00  0.19699301164E+03  0.19699301164E+03  0.00000000000E+00 0. -1.
          1   -1    0    0  501    0 -0.00000000000E+00 -0.00000000000E+00 -0.45090279622E+03  0.45090279622E+03  0.00000000000E+00 0. -1.
         25    2    1    2    0    0  0.34965484725E+02 -0.11617436844E+02 -0.30093257791E+03  0.32794274935E+03  0.12501392098E+03 0.  0.
          2    1    1    2  501    0  0.61071734751E+01  0.22326790386E+02 -0.13299733785E+03  0.13499657407E+03  0.00000000000E+00 0. -1.
          1    1    1    2  502    0 -0.41072658200E+02 -0.10709353542E+02  0.18002013118E+03  0.18495648443E+03  0.00000000000E+00 0. -1.
         22    1    3    3    0    0  0.36694379179E+02 -0.33275737716E+02 -0.33892987136E+02  0.60020719429E+02  0.00000000000E+00 0.  1.
         22    1    3    3    0    0 -0.17288944536E+01  0.21658300872E+02 -0.26703959078E+03  0.26792202992E+03  0.00000000000E+00 0.  1.
</event>
<event>
 7    1  0.6152634E-006  0.8307882E+02  0.7818608E-02  0.1332742E+00
          2   -1    0    0  502    0  0.00000000000E+00  0.00000000000E+00  0.22478285101E+04  0.22478285101E+04  0.00000000000E+00 0. -1.
          1   -1    0    0  501    0 -0.00000000000E+00 -0.00000000000E+00 -0.76294503960E+02  0.76294503960E+02  0.00000000000E+00 0. -1.
         25    2    1    2    0    0 -0.15435704541E+02 -0.61075038538E+01  0.75005985677E+03  0.76058590456E+03  0.12500226760E+03 0.  0.
          2    1    1    2  501    0  0.78873591859E+02 -0.33102884769E+02 -0.43982735764E+02  0.96183811102E+02  0.00000000000E+00 0. -1.
          1    1    1    2  502    0 -0.63437887318E+02  0.39210388623E+02  0.14654568851E+04  0.14673532984E+04  0.00000000000E+00 0. -1.
         22    1    3    3    0    0 -0.11377923847E+02 -0.84651934167E+01  0.75419661996E+03  0.75432993989E+03  0.00000000000E+00 0.  1.
         22    1    3    3    0    0 -0.40577806941E+01  0.23576895630E+01 -0.41367631949E+01  0.62559646712E+01  0.00000000000E+00 0.  1.
</event>
<event>
 7    1  0.6152634E-006  0.6047886E+02  0.7818608E-02  0.1401063E+00
          2   -1    0    0  502    0  0.00000000000E+00  0.00000000000E+00  0.29158205675E+03  0.29158205675E+03  0.00000000000E+00 0. -1.
          1   -1    0    0  501    0 -0.00000000000E+00 -0.00000000000E+00 -0.16417324328E+03  0.16417324328E+03  0.00000000000E+00 0. -1.
         25    2    1    2    0    0  0.14919771238E+02 -0.20933804963E+02 -0.26549364218E+02  0.13034800133E+03  0.12499963579E+03 0.  0.
          2    1    1    2  501    0  0.10978310068E+02  0.72853110529E+02 -0.65394129794E+02  0.98511376080E+02  0.00000000000E+00 0. -1.
          1    1    1    2  502    0 -0.25898081306E+02 -0.51919305566E+02  0.21935230748E+03  0.22689592262E+03  0.00000000000E+00 0. -1.
         22    1    3    3    0    0 -0.43637468340E+02  0.21082769453E+02 -0.31992563850E+02  0.58070956189E+02  0.00000000000E+00 0.  1.
         22    1    3    3    0    0  0.58557239577E+02 -0.42016574416E+02  0.54431996325E+01  0.72277045145E+02  0.00000000000E+00 0.  1.
</event>
<event>
 7    1  0.6152634E-006  0.4869227E+02  0.7818608E-02  0.1469513E+00
          2   -1    0    0  502    0  0.00000000000E+00  0.00000000000E+00  0.59721572680E+03  0.59721572680E+03  0.00000000000E+00 0. -1.
          1   -1    0    0  501    0 -0.00000000000E+00 -0.00000000000E+00 -0.53269864680E+03  0.53269864680E+03  0.00000000000E+00 0. -1.
         25    2    1    2    0    0 -0.61269483831E+02  0.25411689826E+02 -0.16208474936E+03  0.21517119724E+03  0.12500989769E+03 0.  0.
          2    1    1    2  501    0  0.14942947755E+02 -0.40370439396E+02 -0.34167948883E+03  0.34438051215E+03  0.00000000000E+00 0. -1.
          1    1    1    2  502    0  0.46326536076E+02  0.14958749570E+02  0.56828131818E+03  0.57036266421E+03  0.00000000000E+00 0. -1.
         22    1    3    3    0    0 -0.40000884504E+01  0.32488415538E+02  0.95477733372E+01  0.34097768659E+02  0.00000000000E+00 0. -1.
         22    1    3    3    0    0 -0.57269395380E+02 -0.70767257122E+01 -0.17163252269E+03  0.18107342859E+03  0.00000000000E+00 0. -1.
</event>
<event>
 7    1  0.6152634E-006  0.2356835E+03  0.7818608E-02  0.1218623E+00
          2   -1    0    0  502    0  0.00000000000E+00  0.00000000000E+00  0.98357860041E+03  0.98357860041E+03  0.00000000000E+00 0. -1.
          1   -1    0    0  501    0 -0.00000000000E+00 -0.00000000000E+00 -0.23747834518E+03  0.23747834518E+03  0.00000000000E+00 0. -1.
         25    2    1    2    0    0  0.23873948552E+03 -0.12722428167E+03 -0.26884445034E+02  0.29921563372E+03  0.12499864913E+03 0.  0.
          2    1    1    2  501    0 -0.16029173257E+03  0.12177205020E+03  0.67986884194E+02  0.21247138198E+03  0.00000000000E+00 0. -1.
          1    1    1    2  502    0 -0.78447752952E+02  0.54522314748E+01  0.70499781606E+03  0.70936992988E+03  0.00000000000E+00 0. -1.
         22    1    3    3    0    0  0.13747960900E+03 -0.75555511614E+02  0.46846023092E+02  0.16371874696E+03  0.00000000000E+00 0. -1.
         22    1    3    3    0    0  0.10125987652E+03 -0.51668770059E+02 -0.73730468126E+02  0.13549688676E+03  0.00000000000E+00 0. -1.
</event>
<event>
 7    1  0.6152634E-006  0.1207556E+03  0.7818608E-02  0.1358499E+00
          2   -1    0    0  502    0  0.00000000000E+00  0.00000000000E+00  0.53548465506E+02  0.53548465506E+02  0.00000000000E+00 0. -1.
          1   -1    0    0  501    0 -0.00000000000E+00 -0.00000000000E+00 -0.12747631613E+04  0.12747631613E+04  0.00000000000E+00 0. -1.
         25    2    1    2    0    0  0.91742769135E+02  0.10016040492E+03 -0.36553556064E+03  0.40950176059E+03  0.12500641358E+03 0.  0.
          2    1    1    2  501    0 -0.40704895090E+02  0.58662960330E+01 -0.77510671562E+03  0.77619696116E+03  0.00000000000E+00 0. -1.
          1    1    1    2  502    0 -0.51037874045E+02 -0.10602670095E+03 -0.80572419574E+02  0.14261290509E+03  0.00000000000E+00 0. -1.
         22    1    3    3    0    0  0.99301116313E+02  0.11267058325E+03 -0.36520723629E+03  0.39488187787E+03  0.00000000000E+00 0.  1.
         22    1    3    3    0    0 -0.75583471781E+01 -0.12510178330E+02 -0.32832434563E+00  0.14619882721E+02  0.00000000000E+00 0.  1.
</event>
<event>
 7    1  0.6152634E-006  0.7899136E+02  0.7818608E-02  0.1355591E+00
          2   -1    0    0  502    0  0.00000000000E+00  0.00000000000E+00  0.84917327924E+03  0.84917327924E+03  0.00000000000E+00 0. -1.
          1   -1    0    0  501    0 -0.00000000000E+00 -0.00000000000E+00 -0.53625071041E+02  0.53625071041E+02  0.00000000000E+00 0. -1.
         25    2    1    2    0    0 -0.22074808680E+02 -0.48343917124E+02  0.10499291573E+03  0.17168039987E+03  0.12500486329E+03 0.  0.
          2    1    1    2  501    0  0.15948100335E+02  0.11248395407E+03  0.15758925106E+03  0.19427134086E+03  0.00000000000E+00 0. -1.
          1    1    1    2  502    0  0.61267083449E+01 -0.64140036947E+02  0.53296604140E+03  0.53684660955E+03  0.00000000000E+00 0. -1.
         22    1    3    3    0    0 -0.60198444469E+02 -0.66934374096E+02  0.88299854288E+02  0.12609887953E+03  0.00000000000E+00 0.  1.
         22    1    3    3    0    0  0.38123635789E+02  0.18590456972E+02  0.16693061440E+02  0.45581520339E+02  0.00000000000E+00 0.  1.
</event>
<event>
 7    1  0.6152634E-006  0.9341760E+02  0.7818608E-02  0.1366297E+00
          2   -1    0    0  502    0  0.00000000000E+00  0.00000000000E+00  0.50141148973E+03  0.50141148973E+03  0.00000000000E+00 0. -1.
          1   -1    0    0  501    0 -0.00000000000E+00 -0.00000000000E+00 -0.36850563695E+04  0.36850563695E+04  0.00000000000E+00 0. -1.
         25    2    1    2    0    0 -0.86370065169E+02 -0.18055429616E+02  0.25964495921E+02  0.15519400723E+03  0.12500095253E+03 0.  0.
          2    1    1    2  501    0  0.17102814117E+02 -0.46771795536E+02 -0.36147908043E+04  0.36151338379E+04  0.00000000000E+00 0. -1.
          1    1    1    2  502    0  0.69267251052E+02  0.64827225152E+02  0.40518142864E+03  0.41614001406E+03  0.00000000000E+00 0. -1.
         22    1    3    3    0    0 -0.74548620064E+02  0.45117758390E+02  0.25963729272E+02  0.90924276809E+02  0.00000000000E+00 0. -1.
         22    1    3    3    0    0 -0.11821445105E+02 -0.63173188005E+02  0.76664896092E-03  0.64269730416E+02  0.00000000000E+00 0. -1.
</event>
<event>
 7    1  0.6152634E-006  0.3216679E+02  0.7818608E-02  0.1593871E+00
          2   -1    0    0  502    0  0.00000000000E+00  0.00000000000E+00  0.11460476512E+04  0.11460476512E+04  0.00000000000E+00 0. -1.
          1   -1    0    0  501    0 -0.00000000000E+00 -0.00000000000E+00 -0.14850572227E+03  0.14850572227E+03  0.00000000000E+00 0. -1.
         25    2    1    2    0    0  0.52432059176E+01 -0.43863810118E+02  0.93100518686E+03  0.94039721509E+03  0.12499895661E+03 0.  0.
          2    1    1    2  501    0  0.17818679558E+02  0.26777119959E+02 -0.14101124702E+03  0.14463295365E+03  0.00000000000E+00 0. -1.
          1    1    1    2  502    0 -0.23061885475E+02  0.17086690159E+02  0.20754798913E+03  0.20952320476E+03  0.00000000000E+00 0. -1.
         22    1    3    3    0    0 -0.31906642421E+02 -0.70552110449E+02  0.73774818771E+03  0.74180052749E+03  0.00000000000E+00 0.  1.
         22    1    3    3    0    0  0.37149848339E+02  0.26688300331E+02  0.19325699915E+03  0.19859668760E+03  0.00000000000E+00 0.  1.
</event>
<event>
 7    1  0.6152634E-006  0.1101202E+03  0.7818608E-02  0.1395371E+00
          2   -1    0    0  502    0  0.00000000000E+00  0.00000000000E+00  0.43287787907E+04  0.43287787907E+04  0.00000000000E+00 0. -1.
          1   -1    0    0  501    0 -0.00000000000E+00 -0.00000000000E+00 -0.79834608565E+02  0.79834608565E+02  0.00000000000E+00 0. -1.
         25    2    1    2    0    0 -0.13763292482E+03 -0.35066818318E+02  0.47124332182E+03  0.50780686062E+03  0.12500014236E+03 0.  0.
          2    1    1    2  501    0  0.31736768515E+02  0.10208083880E+02 -0.56210053474E+02  0.65352869591E+02  0.00000000000E+00 0. -1.
          1    1    1    2  502    0  0.10589615630E+03  0.24858734439E+02  0.38339109138E+04  0.38354536691E+04  0.00000000000E+00 0. -1.
         22    1    3    3    0    0  0.70592417099E+01 -0.37528419616E+01  0.18834080108E+03  0.18851040838E+03  0.00000000000E+00 0.  1.
         22    1    3    3    0    0 -0.14469216653E+03 -0.31313976357E+02  0.28290252074E+03  0.31929645223E+03  0.00000000000E+00 0.  1.
</event>
<event>
 7    1  0.6152634E-006  0.1049001E+03  0.7818608E-02  0.1348366E+00
          2   -1    0    0  502    0  0.00000000000E+00  0.00000000000E+00  0.41141771892E+04  0.41141771892E+04  0.00000000000E+00 0. -1.
          1   -1    0    0  501    0 -0.00000000000E+00 -0.00000000000E+00 -0.42901354651E+03  0.42901354651E+03  0.00000000000E+00 0. -1.
         25    2    1    2    0    0 -0.30553277172E+02 -0.50345403420E+02  0.13544117948E+03  0.19348788239E+03  0.12500034057E+03 0.  0.
          2    1    1    2  501    0 -0.46289453850E+02 -0.22784820698E+02 -0.39761096446E+03  0.40094431116E+03  0.00000000000E+00 0. -1.
          1    1    1    2  502    0  0.76842731022E+02  0.73130224118E+02  0.39473334277E+04  0.39487585422E+04  0.00000000000E+00 0. -1.
         22    1    3    3    0    0  0.67324671895E+01 -0.34223868218E+01 -0.22937343336E+02  0.24148717675E+02  0.00000000000E+00 0.  1.
         22    1    3    3    0    0 -0.37285744362E+02 -0.46923016598E+02  0.15837852281E+03  0.16933916472E+03  0.00000000000E+00 0.  1.
</event>
<event>
 7    1  0.6152634E-006  0.7743657E+02  0.7818608E-02  0.1402131E+00
          2   -1    0    0  502    0  0.00000000000E+00  0.00000000000E+00  0.34650454509E+02  0.34650454509E+02  0.00000000000E+00 0. -1.
          1   -1    0    0  501    0 -0.00000000000E+00 -0.00000000000E+00 -0.13974049164E+04  0.13974049164E+04  0.00000000000E+00 0. -1.
         25    2    1    2    0    0 -0.29639453398E+02  0.79568454106E+02 -0.46162618295E+03  0.48572936030E+03  0.12499857037E+03 0.  0.
          2    1    1    2  501    0  0.61497684923E+02 -0.47880949663E+02 -0.89790012254E+03  0.90127641744E+03  0.00000000000E+00 0. -1.
          1    1    1    2  502    0 -0.31858231525E+02 -0.31687504444E+02 -0.32281564526E+01  0.45049593204E+02  0.00000000000E+00 0. -1.
         22    1    3    3    0    0 -0.52371334477E+02  0.73452240209E+02 -0.16399999813E+03  0.18717368312E+03  0.00000000000E+00 0.  1.
         22    1    3    3    0    0  0.22731881079E+02  0.61162138973E+01 -0.29762618482E+03  0.29855567718E+03  0.00000000000E+00 0.  1.
</event>
<event>
 7    1  0.6152634E-006  0.6630181E+02  0.7818608E-02  0.1447783E+00
          2   -1    0    0  502    0  0.00000000000E+00  0.00000000000E+00  0.90626584857E+03  0.90626584857E+03  0.00000000000E+00 0. -1.
          1   -1    0    0  501    0 -0.00000000000E+00 -0.00000000000E+00 -0.20691542893E+02  0.20691542893E+02  0.00000000000E+00 0. -1.
         25    2    1    2    0    0 -0.44629045570E+02  0.70260325845E+01  0.43961737488E+03  0.45927292268E+03  0.12500825720E+03 0.  0.
          2    1    1    2  501    0  0.62335611680E+02 -0.39549519077E+02  0.12946758601E+03  0.14903606534E+03  0.00000000000E+00 0. -1.
          1    1    1    2  502    0 -0.17706566111E+02  0.32523486493E+02  0.31648934478E+03  0.31864840345E+03  0.00000000000E+00 0. -1.
         22    1    3    3    0    0 -0.27142447861E+02  0.59122573445E+02  0.33333983018E+03  0.33962867010E+03  0.00000000000E+00 0. -1.
         22    1    3    3    0    0 -0.17486597708E+02 -0.52096540860E+02  0.10627754470E+03  0.11964425258E+03  0.00000000000E+00 0. -1.
</event>
<event>
 7    1  0.6152634E-006  0.1088670E+03  0.7818608E-02  0.1269407E+00
          2   -1    0    0  502    0  0.00000000000E+00  0.00000000000E+00  0.26304005536E+04  0.26304005536E+04  0.00000000000E+00 0. -1.
          1   -1    0    0  501    0 -0.00000000000E+00 -0.00000000000E+00 -0.47357993755E+02  0.47357993755E+02  0.00000000000E+00 0. -1.
         25    2    1    2    0    0 -0.83912942448E+02 -0.32829041753E+02  0.96910183324E+03  0.98127600489E+03  0.12500042677E+03 0.  0.
          2    1    1    2  501    0  0.19830019108E+02  0.11214816096E+03  0.42226754844E+02  0.12146414487E+03  0.00000000000E+00 0. -1.
          1    1    1    2  502    0  0.64082923340E+02 -0.79319119204E+02  0.15717139718E+04  0.15750183976E+04  0.00000000000E+00 0. -1.
         22    1    3    3    0    0 -0.85965691528E+02  0.28684011549E+02  0.49903512895E+03  0.50719713383E+03  0.00000000000E+00 0.  1.
         22    1    3    3    0    0  0.20527490794E+01 -0.61513053302E+02  0.47006670428E+03  0.47407887105E+03  0.00000000000E+00 0.  1.
</event>
<event>
 7    1  0.6152634E-006  0.3388582E+02  0.7818608E-02  0.1584792E+00
          2   -1    0    0  502    0  0.00000000000E+00  0.00000000000E+00  0.48330976452E+02  0.48330976452E+02  0.00000000000E+00 0. -1.
          1   -1    0    0  501    0 -0.00000000000E+00 -0.00000000000E+00 -0.22320571482E+03  0.22320571482E+03  0.00000000000E+00 0. -1.
         25    2    1    2    0    0 -0.18886617174E+02 -0.39525952415E+02 -0.13466131677E+03  0.18888466602E+03  0.12499896640E+03 0.  0.
          2    1    1    2  501    0 -0.83915102867E+01  0.30295613768E+02  0.20579187951E+01  0.31503598020E+02  0.00000000000E+00 0. -1.
          1    1    1    2  502    0  0.27278127461E+02  0.92303386473E+01 -0.42271340391E+02  0.51148427227E+02  0.00000000000E+00 0. -1.
         22    1    3    3    0    0 -0.23306084021E+02 -0.28572626920E+02 -0.15825816838E+03  0.16249681972E+03  0.00000000000E+00 0.  1.
         22    1    3    3    0    0  0.44194668473E+01 -0.10953325495E+02  0.23596851608E+02  0.26387846301E+02  0.00000000000E+00 0.  1.
</event>
<event>
 7    1  0.6152634E-006  0.7290399E+02  0.7818608E-02  0.1454881E+00
          2   -1    0    0  502    0  0.00000000000E+00  0.00000000000E+00  0.49129872164E+03  0.49129872164E+03  0.00000000000E+00 0. -1.
          1   -1    0    0  501    0 -0.00000000000E+00 -0.00000000000E+00 -0.16547130693E+04  0.16547130693E+04  0.00000000000E+00 0. -1.
         25    2    1    2    0    0 -0.21285947842E+02  0.45252448262E+02 -0.48661361211E+03  0.50489110738E+03  0.12498538780E+03 0.  0.
          2    1    1    2  501    0  0.11025524598E+02 -0.75525757684E+02 -0.11571723059E+04  0.11596867886E+04  0.00000000000E+00 0. -1.
          1    1    1    2  502    0  0.10260423244E+02  0.30273309422E+02  0.48037157035E+03  0.48143389489E+03  0.00000000000E+00 0. -1.
         22    1    3    3    0    0 -0.68350001407E+02  0.53383708826E+02 -0.30301972949E+03  0.31518645199E+03  0.00000000000E+00 0.  1.
         22    1    3    3    0    0  0.47064053566E+02 -0.81312605642E+01 -0.18359388263E+03  0.18970465538E+03  0.00000000000E+00 0.  1.
</event>
<event>
 7    1  0.6152634E-006  0.3349063E+02  0.7818608E-02  0.1622834E+00
          2   -1    0    0  502    0  0.00000000000E+00  0.00000000000E+00  0.14472376524E+04  0.14472376524E+04  0.00000000000E+00 0. -1.
          1   -1    0    0  501    0 -0.00000000000E+00 -0.00000000000E+00 -0.80831451366E+03  0.80831451366E+03  0.00000000000E+00 0. -1.
         25    2    1    2    0    0 -0.25331031262E+02 -0.12404937013E+02  0.22528688349E+02  0.13010827856E+03  0.12500031498E+03 0.  0.
          2    1    1    2  501    0 -0.67467692147E+01  0.22199146412E+02 -0.75414114083E+03  0.75449796639E+03  0.00000000000E+00 0. -1.
          1    1    1    2  502    0  0.32077800477E+02 -0.97942093984E+01  0.13705355912E+04  0.13709459211E+04  0.00000000000E+00 0. -1.
         22    1    3    3    0    0 -0.55716829346E+02 -0.52905093193E+02  0.20099003338E+02  0.79418410292E+02  0.00000000000E+00 0.  1.
         22    1    3    3    0    0  0.30385798084E+02  0.40500156180E+02  0.24296850105E+01  0.50689868268E+02  0.00000000000E+00 0.  1.
</event>
<event>
 7    1  0.6152634E-006  0.6837699E+02  0.7818608E-02  0.1488874E+00
          2   -1    0    0  502    0  0.00000000000E+00  0.00000000000E+00  0.94629250681E+03  0.94629250681E+03  0.00000000000E+00 0. -1.
          1   -1    0    0  501    0 -0.00000000000E+00 -0.00000000000E+00 -0.32978079488E+03  0.32978079488E+03  0.00000000000E+00 0. -1.
         25    2    1    2    0    0  0.33245147418E+02 -0.60649691878E+02  0.33985767105E+03  0.36866349846E+03  0.12500365424E+03 0.  0.
          2    1    1    2  501    0 -0.25561355423E+02 -0.78242806605E+01 -0.31280101254E+03  0.31394119784E+03  0.00000000000E+00 0. -1.
          1    1    1    2  502    0 -0.76837919946E+01  0.68473972539E+02  0.58945505342E+03  0.59346860539E+03  0.00000000000E+00 0. -1.
         22    1    3    3    0    0 -0.41416848756E+02  0.55246781899E+01  0.78820427536E+02  0.89210634046E+02  0.00000000000E+00 0. -1.
         22    1    3    3    0    0  0.74661996174E+02 -0.66174370068E+02  0.26103724352E+03  0.27945286442E+03  0.00000000000E+00 0. -1.
</event>
<event>
 7    1  0.6152634E-006  0.5993442E+02  0.7818608E-02  0.1520924E+00
          2   -1    0    0  502    0  0.00000000000E+00  0.00000000000E+00  0.54198864879E+03  0.54198864879E+03  0.00000000000E+00 0. -1.
          1   -1    0    0  501    0 -0.00000000000E+00 -0.00000000000E+00 -0.14731164252E+03  0.14731164252E+03  0.00000000000E+00 0. -1.
         25    2    1    2    0    0 -0.37416982615E+02 -0.21308681434E+02  0.16468929218E+02  0.13324407815E+03  0.12501467210E+03 0.  0.
          2    1    1    2  501    0  0.43584566940E+02  0.45024754193E+02 -0.77513992412E+02  0.99675784347E+02  0.00000000000E+00 0. -1.
          1    1    1    2  502    0 -0.61675843243E+01 -0.23716072759E+02  0.45572206946E+03  0.45638042881E+03  0.00000000000E+00 0. -1.
         22    1    3    3    0    0  0.46212105971E+02 -0.13344825269E+02  0.86693397148E+01  0.48875357296E+02  0.00000000000E+00 0. -1.
         22    1    3    3    0    0 -0.83629088587E+02 -0.79638561650E+01  0.77995895031E+01  0.84368720858E+02  0.00000000000E+00 0. -1.
</event>
<event>
 7    1  0.6152634E-006  0.6244655E+02  0.7818608E-02  0.1439429E+00
          2   -1    0    0  502    0  0.00000000000E+00  0.00000000000E+00  0.23219957267E+04  0.23219957267E+04  0.00000000000E+00 0. -1.
          1   -1    0    0  501    0 -0.00000000000E+00 -0.00000000000E+00 -0.15219331826E+03  0.15219331826E+03  0.00000000000E+00 0. -1.
         25    2    1    2    0    0  0.72729535718E+02  0.61818818727E+02  0.16127480647E+04  0.16203991050E+04  0.12500315135E+03 0.  0.
          2    1    1    2  501    0 -0.32126966296E+02 -0.26798374678E+02 -0.14437486675E+03  0.15031432732E+03  0.00000000000E+00 0. -1.
          1    1    1    2  502    0 -0.40602569422E+02 -0.35020444049E+02  0.70142921051E+03  0.70347561258E+03  0.00000000000E+00 0. -1.
         22    1    3    3    0    0  0.10510932445E+03  0.29119007552E+02  0.10016110677E+04  0.10075319437E+04  0.00000000000E+00 0. -1.
         22    1    3    3    0    0 -0.32379788736E+02  0.32699811175E+02  0.61113699693E+03  0.61286716129E+03  0.00000000000E+00 0. -1.
</event>
<event>
 7    1  0.6152634E-006  0.5859123E+02  0.7818608E-02  0.1474476E+00
          2   -1    0    0  502    0  0.00000000000E+00  0.00000000000E+00  0.29481302112E+03  0.29481302112E+03  0.00000000000E+00 0. -1.
          1   -1    0    0  501    0 -0.00000000000E+00 -0.00000000000E+00 -0.77277275853E+02  0.77277275853E+02  0.00000000000E+00 0. -1.
         25    2    1    2    0    0 -0.14263218534E+02  0.28330246791E+02  0.48431316388E+02  0.13771063408E+03  0.12495032631E+03 0.  0.
          2    1    1    2  501    0 -0.32179615046E+02  0.12517646996E+02 -0.16841580780E+02  0.38416896725E+02  0.00000000000E+00 0. -1.
          1    1    1    2  502    0  0.46442833580E+02 -0.40847893786E+02  0.18594600965E+03  0.19596276617E+03  0.00000000000E+00 0. -1.
         22    1    3    3    0    0  0.47407897947E+01 -0.37098474981E+02 -0.18914702441E+02  0.41911071356E+02  0.00000000000E+00 0.  1.
         22    1    3    3    0    0 -0.19004008329E+02  0.65428721771E+02  0.67346018829E+02  0.95799562720E+02  0.00000000000E+00 0.  1.
</event>
<event>
 7    1  0.6152634E-006  0.6688506E+02  0.7818608E-02  0.1496452E+00
          2   -1    0    0  502    0  0.00000000000E+00  0.00000000000E+00  0.21077868924E+04  0.21077868924E+04  0.00000000000E+00 0. -1.
          1   -1    0    0  501    0 -0.00000000000E+00 -0.00000000000E+00 -0.17260396782E+04  0.17260396782E+04  0.00000000000E+00 0. -1.
         25    2    1    2    0    0 -0.17018117951E+02 -0.45484801251E+02  0.82736223859E+03  0.83815985126E+03  0.12500071574E+03 0.  0.
          2    1    1    2  501    0  0.86935258513E+01 -0.24427247350E+02 -0.17195711254E+04  0.17197665897E+04  0.00000000000E+00 0. -1.
          1    1    1    2  502    0  0.83245920997E+01  0.69912048600E+02  0.12739561011E+04  0.12759001296E+04  0.00000000000E+00 0. -1.
         22    1    3    3    0    0  0.16572733603E+02 -0.28583724100E+02  0.50256292714E+02  0.60144656786E+02  0.00000000000E+00 0. -1.
         22    1    3    3    0    0 -0.33590851554E+02 -0.16901077150E+02  0.77710594587E+03  0.77801519447E+03  0.00000000000E+00 0. -1.
</event>
<event>
 7    1  0.6152634E-006  0.8241856E+02  0.7818608E-02  0.1327304E+00
          2   -1    0    0  502    0  0.00000000000E+00  0.00000000000E+00  0.56690804333E+03  0.56690804333E+03  0.00000000000E+00 0. -1.
          1   -1    0    0  501    0 -0.00000000000E+00 -0.00000000000E+00 -0.11315521563E+04  0.11315521563E+04  0.00000000000E+00 0. -1.
         25    2    1    2    0    0  0.27549964840E+02  0.81464427216E+02 -0.78711007373E+02  0.17092736868E+03  0.12500115687E+03 0.  0.
          2    1    1    2  501    0 -0.80431181912E+02 -0.22963871573E+02 -0.10019951449E+04  0.10054803752E+04  0.00000000000E+00 0. -1.
          1    1    1    2  502    0  0.52881217073E+02 -0.58500555644E+02  0.51606203933E+03  0.52205245576E+03  0.00000000000E+00 0. -1.
         22    1    3    3    0    0  0.69810082288E+02  0.13515398412E+02 -0.29467680406E+02  0.76970499360E+02  0.00000000000E+00 0. -1.
         22    1    3    3    0    0 -0.42260117448E+02  0.67949028805E+02 -0.49243326967E+02  0.93956869323E+02  0.00000000000E+00 0. -1.
</event>
<event>
 7    1  0.6152634E-006  0.4949045E+02  0.7818608E-02  0.1465311E+00
          2   -1    0    0  502    0  0.00000000000E+00  0.00000000000E+00  0.12599461133E+04  0.12599461133E+04  0.00000000000E+00 0. -1.
          1   -1    0    0  501    0 -0.00000000000E+00 -0.00000000000E+00 -0.12893230588E+03  0.12893230588E+03  0.00000000000E+00 0. -1.
         25    2    1    2    0    0 -0.27356362606E+02 -0.45510404057E+02  0.21497921538E+03  0.25428242915E+03  0.12499569303E+03 0.  0.
          2    1    1    2  501    0  0.43617760033E+02 -0.17211401025E+01 -0.10428604414E+03  0.11305330741E+03  0.00000000000E+00 0. -1.
          1    1    1    2  502    0 -0.16261397427E+02  0.47231544159E+02  0.10203206362E+04  0.10215426827E+04  0.00000000000E+00 0. -1.
         22    1    3    3    0    0  0.34766275464E+02 -0.19144930051E+02  0.16656030881E+03  0.17122370959E+03  0.00000000000E+00 0. -1.
         22    1    3    3    0    0 -0.62122638070E+02 -0.26365474005E+02  0.48418906568E+02  0.83058719551E+02  0.00000000000E+00 0. -1.
</event>
<event>
 7    1  0.6152634E-006  0.5935414E+02  0.7818608E-02  0.1451190E+00
          2   -1    0    0  502    0  0.00000000000E+00  0.00000000000E+00  0.18089870224E+04  0.18089870224E+04  0.00000000000E+00 0. -1.
          1   -1    0    0  501    0 -0.00000000000E+00 -0.00000000000E+00 -0.37015496592E+03  0.37015496592E+03  0.00000000000E+00 0. -1.
         25    2    1    2    0    0  0.30301206006E+02  0.34162404418E+02  0.51622255544E+02  0.14274191762E+03  0.12500065927E+03 0.  0.
          2    1    1    2  501    0 -0.31277116670E+02  0.25475934358E+02 -0.32281984578E+03  0.32533049978E+03  0.00000000000E+00 0. -1.
          1    1    1    2  502    0  0.97591066382E+00 -0.59638338776E+02  0.17100296467E+04  0.17110695709E+04  0.00000000000E+00 0. -1.
         22    1    3    3    0    0 -0.20375981671E+02  0.62210806643E+02  0.53868091131E+02  0.84776979979E+02  0.00000000000E+00 0.  1.
         22    1    3    3    0    0  0.50677187677E+02 -0.28048402226E+02 -0.22458355872E+01  0.57964937641E+02  0.00000000000E+00 0.  1.
</event>
<event>
 7    1  0.6152634E-006  0.6152665E+02  0.7818608E-02  0.1446027E+00
          2   -1    0    0  502    0  0.00000000000E+00  0.00000000000E+00  0.22432651539E+03  0.22432651539E+03  0.00000000000E+00 0. -1.
          1   -1    0    0  501    0 -0.00000000000E+00 -0.00000000000E+00 -0.14087357589E+03  0.14087357589E+03  0.00000000000E+00 0. -1.
         25    2    1    2    0    0 -0.32509434965E+02 -0.16854607486E+02 -0.43725638355E+02  0.13739577442E+03  0.12499890490E+03 0.  0.
          2    1    1    2  501    0  0.43138530431E+01 -0.40196040928E+02 -0.35072093946E+02  0.53519929074E+02  0.00000000000E+00 0. -1.
          1    1    1    2  502    0  0.28195581922E+02  0.57050648414E+02  0.16225067180E+03  0.17428438778E+03  0.00000000000E+00 0. -1.
         22    1    3    3    0    0 -0.13099368450E+02  0.17841557289E+02 -0.80348850760E+02  0.83341780871E+02  0.00000000000E+00 0. -1.
         22    1    3    3    0    0 -0.19410066515E+02 -0.34696164776E+02  0.36623212405E+02  0.54053993554E+02  0.00000000000E+00 0. -1.
</event>
<event>
 7    1  0.6152634E-006  0.1486575E+03  0.7818608E-02  0.1300471E+00
          2   -1    0    0  502    0  0.00000000000E+00  0.00000000000E+00  0.93921113610E+02  0.93921113610E+02  0.00000000000E+00 0. -1.
          1   -1    0    0  501    0 -0.00000000000E+00 -0.00000000000E+00 -0.51181209347E+03  0.51181209347E+03  0.00000000000E+00 0. -1.
         25    2    1    2    0    0  0.71664902243E+02 -0.11715297545E+03 -0.18633915402E+03  0.26307592214E+03  0.12500393041E+03 0.  0.
          2    1    1    2  501    0 -0.12441104179E+03  0.99275664167E+02 -0.23828901356E+03  0.28655788037E+03  0.00000000000E+00 0. -1.
          1    1    1    2  502    0  0.52746139547E+02  0.17877311281E+02  0.67371877239E+01  0.56099404580E+02  0.00000000000E+00 0. -1.
         22    1    3    3    0    0  0.29821778133E+02 -0.63254369721E+02 -0.59165794071E+01  0.70181619045E+02  0.00000000000E+00 0.  1.
         22    1    3    3    0    0  0.41843124109E+02 -0.53898605726E+02 -0.18042257462E+03  0.19289430309E+03  0.00000000000E+00 0.  1.
</event>
<event>
 7    1  0.6152634E-006  0.8446818E+02  0.7818608E-02  0.1461249E+00
          2   -1    0    0  502    0  0.00000000000E+00  0.00000000000E+00  0.12119966246E+04  0.12119966246E+04  0.00000000000E+00 0. -1.
          1   -1    0    0  501    0 -0.00000000000E+00 -0.00000000000E+00 -0.10288411665E+03  0.10288411665E+03  0.00000000000E+00 0. -1.
         25    2    1    2    0    0  0.60618314570E+02  0.15875183726E+02  0.27059994966E+03  0.30459065653E+03  0.12499813507E+03 0.  0.
          2    1    1    2  501    0  0.25866324942E+02 -0.49634237214E+01 -0.81760333481E+02  0.85897930546E+02  0.00000000000E+00 0. -1.
          1    1    1    2  502    0 -0.86484639512E+02 -0.10911760005E+02  0.92027289177E+03  0.92439215418E+03  0.00000000000E+00 0. -1.
         22    1    3    3    0    0  0.84720466919E+02 -0.87971109535E+01  0.10385614876E+03  0.13431696211E+03  0.00000000000E+00 0. -1.
         22    1    3    3    0    0 -0.24102152349E+02  0.24672294680E+02  0.16674380090E+03  0.17027369442E+03  0.00000000000E+00 0. -1.
</event>
<event>
 7    1  0.6152634E-006  0.6636209E+02  0.7818608E-02  0.1499150E+00
          2   -1    0    0  502    0  0.00000000000E+00  0.00000000000E+00  0.99525383609E+02  0.99525383609E+02  0.00000000000E+00 0. -1.
          1   -1    0    0  501    0 -0.00000000000E+00 -0.00000000000E+00 -0.20815735775E+03  0.20815735775E+03  0.00000000000E+00 0. -1.
         25    2    1    2    0    0  0.55091411480E+02  0.30014241099E+02 -0.70329645653E+02  0.15652586198E+03  0.12497266950E+03 0.  0.
          2    1    1    2  501    0 -0.12264089509E+02  0.22529259024E+02 -0.71294066955E+02  0.75768195087E+02  0.00000000000E+00 0. -1.
          1    1    1    2  502    0 -0.42827321971E+02 -0.52543500124E+02  0.32991738468E+02  0.75388684294E+02  0.00000000000E+00 0. -1.
         22    1    3    3    0    0  0.90477007970E+02  0.45387857167E+02 -0.49423270153E+02  0.11264460121E+03  0.00000000000E+00 0.  1.
         22    1    3    3    0    0 -0.35385596490E+02 -0.15373616068E+02 -0.20906375500E+02  0.43881260767E+02  0.00000000000E+00 0.  1.
</event>
<event>
 7    1  0.6152634E-006  0.8424907E+02  0.7818608E-02  0.1325746E+00
          2   -1    0    0  502    0  0.00000000000E+00  0.00000000000E+00  0.15332459876E+03  0.15332459876E+03  0.00000000000E+00 0. -1.
          1   -1    0    0  501    0 -0.00000000000E+00 -0.00000000000E+00 -0.56294866892E+03  0.56294866892E+03  0.00000000000E+00 0. -1.
         25    2    1    2    0    0 -0.51236121265E+01 -0.79739488594E+01 -0.89761855368E+02  0.15417994885E+03  0.12499772273E+03 0.  0.
          2    1    1    2  501    0  0.88694343691E+02 -0.26955832176E+01 -0.42112152212E+03  0.43036878274E+03  0.00000000000E+00 0. -1.
          1    1    1    2  502    0 -0.83570731565E+02  0.10669532077E+02  0.10125930732E+03  0.13172453609E+03  0.00000000000E+00 0. -1.
         22    1    3    3    0    0  0.49669607647E+02  0.29366227004E+02 -0.30582888939E+02  0.65305117013E+02  0.00000000000E+00 0.  1.
         22    1    3    3    0    0 -0.54793219773E+02 -0.37340175863E+02 -0.59178966429E+02  0.88874831838E+02  0.00000000000E+00 0.  1.
</event>
<event>
 7    1  0.6152634E-006  0.1654407E+03  0.7818608E-02  0.1291375E+00
          2   -1    0    0  502    0  0.00000000000E+00  0.00000000000E+00  0.16184602661E+04  0.16184602661E+04  0.00000000000E+00 0. -1.
          1   -1    0    0  501    0 -0.00000000000E+00 -0.00000000000E+00 -0.77536333814E+03  0.77536333814E+03  0.00000000000E+00 0. -1.
         25    2    1    2    0    0 -0.50533504632E+02 -0.20463241814E+03  0.26033889850E+03  0.35753387358E+03  0.12500426809E+03 0.  0.
          2    1    1    2  501    0  0.14887639681E+02  0.16347243217E+03 -0.71691977343E+03  0.73547184816E+03  0.00000000000E+00 0. -1.
          1    1    1    2  502    0  0.35645864950E+02  0.41159985976E+02  0.12996778029E+04  0.13008178825E+04  0.00000000000E+00 0. -1.
         22    1    3    3    0    0 -0.86076283959E+02 -0.94517510715E+02  0.15637515899E+03  0.20197989217E+03  0.00000000000E+00 0.  1.
         22    1    3    3    0    0  0.35542779328E+02 -0.11011490743E+03  0.10396373951E+03  0.15555398141E+03  0.00000000000E+00 0.  1.
</event>
<event>
 7    1  0.6152634E-006  0.6888681E+02  0.7818608E-02  0.1391117E+00
          2   -1    0    0  502    0  0.00000000000E+00  0.00000000000E+00  0.12684708380E+04  0.12684708380E+04  0.00000000000E+00 0. -1.
          1   -1    0    0  501    0 -0.00000000000E+00 -0.00000000000E+00 -0.13420400056E+03  0.13420400056E+03  0.00000000000E+00 0. -1.
         25    2    1    2    0    0 -0.28366446404E+02 -0.10880060233E+02  0.56124421052E+03  0.57579788989E+03  0.12500046068E+03 0.  0.
          2    1    1    2  501    0 -0.54080140403E+02  0.10744210205E+02 -0.11837225989E+03  0.13058365728E+03  0.00000000000E+00 0. -1.
          1    1    1    2  502    0  0.82446586807E+02  0.13585002889E+00  0.69139488682E+03  0.69629329140E+03  0.00000000000E+00 0. -1.
         22    1    3    3    0    0 -0.18337037547E+02 -0.57722672204E+02  0.45793173194E+03  0.46191950051E+03  0.00000000000E+00 0. -1.
         22    1    3    3    0    0 -0.10029408857E+02  0.46842611971E+02  0.10331247858E+03  0.11387838938E+03  0.00000000000E+00 0. -1.
</event>
<event>
 7    1  0.6152634E-006  0.4622514E+02  0.7818608E-02  0.1490860E+00
          2   -1    0    0  502    0  0.00000000000E+00  0.00000000000E+00  0.94872298042E+03  0.94872298042E+03  0.00000000000E+00 0. -1.
          1   -1    0    0  501    0 -0.00000000000E+00 -0.00000000000E+00 -0.35239925286E+03  0.35239925286E+03  0.00000000000E+00 0. -1.
         25    2    1    2    0    0 -0.41123558281E+02  0.55972660732E+01  0.83750856150E+03  0.84780649165E+03  0.12503111720E+03 0.  0.
          2    1    1    2  501    0 -0.20545006675E+01  0.38945022346E+02 -0.33695767577E+03  0.33920703265E+03  0.00000000000E+00 0. -1.
          1    1    1    2  502    0  0.43178058948E+02 -0.44542288419E+02  0.95772841831E+02  0.11410870898E+03  0.00000000000E+00 0. -1.
         22    1    3    3    0    0 -0.28644696611E+02  0.64488746628E+02  0.40011299976E+03  0.40628774244E+03  0.00000000000E+00 0.  1.
         22    1    3    3    0    0 -0.12478861670E+02 -0.58891480555E+02  0.43739556174E+03  0.44151874921E+03  0.00000000000E+00 0.  1.
</event>
<event>
 7    1  0.6152634E-006  0.3250037E+02  0.7818608E-02  0.1644600E+00
          2   -1    0    0  502    0  0.00000000000E+00  0.00000000000E+00  0.70773410131E+03  0.70773410131E+03  0.00000000000E+00 0. -1.
          1   -1    0    0  501    0 -0.00000000000E+00 -0.00000000000E+00 -0.83094030950E+03  0.83094030950E+03  0.00000000000E+00 0. -1.
         25    2    1    2    0    0 -0.23360591858E+02  0.43532578962E+02 -0.16282375168E+03  0.21113880752E+03  0.12500887666E+03 0.  0.
          2    1    1    2  501    0  0.58941646596E+01 -0.31712672570E+02 -0.64339224162E+03  0.64420028823E+03  0.00000000000E+00 0. -1.
          1    1    1    2  502    0  0.17466427199E+02 -0.11819906392E+02  0.68300978511E+03  0.68333531507E+03  0.00000000000E+00 0. -1.
         22    1    3    3    0    0  0.28591281266E+02 -0.31873026125E+02 -0.53970681341E+02  0.68892565660E+02  0.00000000000E+00 0. -1.
         22    1    3    3    0    0 -0.51951873125E+02  0.75405605087E+02 -0.10885307034E+03  0.14224624186E+03  0.00000000000E+00 0. -1.
</event>
<event>
 7    1  0.6152634E-006  0.8913917E+02  0.7818608E-02  0.1356776E+00
          2   -1    0    0  502    0  0.00000000000E+00  0.00000000000E+00  0.93213852284E+03  0.93213852284E+03  0.00000000000E+00 0. -1.
          1   -1    0    0  501    0 -0.00000000000E+00 -0.00000000000E+00 -0.86219231604E+02  0.86219231604E+02  0.00000000000E+00 0. -1.
         25    2    1    2    0    0  0.59248019703E+02 -0.14739043963E+02  0.11271441352E+03  0.17904418249E+03  0.12499885205E+03 0.  0.
          2    1    1    2  501    0 -0.72931164897E+02  0.69585608871E+02 -0.30922298247E+01  0.10084975786E+03  0.00000000000E+00 0. -1.
          1    1    1    2  502    0  0.13683145194E+02 -0.54846564908E+02  0.73629710754E+03  0.73846381409E+03  0.00000000000E+00 0. -1.
         22    1    3    3    0    0  0.11899976543E+02  0.53858471684E+02  0.53142480534E+02  0.76592869454E+02  0.00000000000E+00 0.  1.
         22    1    3    3    0    0  0.47348043160E+02 -0.68597515647E+02  0.59571932982E+02  0.10245131304E+03  0.00000000000E+00 0.  1.
</event>
<event>
 7    1  0.6152634E-006  0.5020373E+02  0.7818608E-02  0.1474728E+00
          2   -1    0    0  502    0  0.00000000000E+00  0.00000000000E+00  0.15019178087E+04  0.15019178087E+04  0.00000000000E+00 0. -1.
          1   -1    0    0  501    0 -0.00000000000E+00 -0.00000000000E+00 -0.36131927060E+02  0.36131927060E+02  0.00000000000E+00 0. -1.
         25    2    1    2    0    0 -0.30946679226E+02  0.54034394525E+02  0.43221841816E+03  0.45421332144E+03  0.12497826863E+03 0.  0.
          2    1    1    2  501    0 -0.90205208217E+01 -0.49487507238E+02  0.82378636617E+00  0.50309659038E+02  0.00000000000E+00 0. -1.
          1    1    1    2  502    0  0.39967200048E+02 -0.45468872876E+01  0.10327436771E+04  0.10335267553E+04  0.00000000000E+00 0. -1.
         22    1    3    3    0    0 -0.27020806263E+01  0.10939003369E+02 -0.61433213901E+01  0.12833683498E+02  0.00000000000E+00 0. -1.
         22    1    3    3    0    0 -0.28244598600E+02  0.43095391156E+02  0.43836173955E+03  0.44137963794E+03  0.00000000000E+00 0. -1.
</event>
<event>
 7    1  0.6152634E-006  0.2011316E+03  0.7818608E-02  0.1222751E+00
          2   -1    0    0  502    0  0.00000000000E+00  0.00000000000E+00  0.16275053867E+04  0.16275053867E+04  0.00000000000E+00 0. -1.
          1   -1    0    0  501    0 -0.00000000000E+00 -0.00000000000E+00 -0.82374199932E+03  0.82374199932E+03  0.00000000000E+00 0. -1.
         25    2    1    2    0    0  0.25098958264E+03  0.26630966721E+02  0.20531648291E+03  0.34854693225E+03  0.12500050737E+03 0.  0.
          2    1    1    2  501    0 -0.18183850541E+03 -0.81445926681E+02 -0.73745012212E+03  0.76389224609E+03  0.00000000000E+00 0. -1.
          1    1    1    2  502    0 -0.69151077236E+02  0.54814959960E+02  0.13358970266E+04  0.13388082077E+04  0.00000000000E+00 0. -1.
         22    1    3    3    0    0  0.19547751545E+03  0.45366089285E+02  0.91526976727E+02  0.22056003394E+03  0.00000000000E+00 0. -1.
         22    1    3    3    0    0  0.55512067193E+02 -0.18735122563E+02  0.11378950618E+03  0.12798689831E+03  0.00000000000E+00 0. -1.
</event>
<event>
 7    1  0.6152634E-006  0.5369377E+02  0.7818608E-02  0.1447234E+00
          2   -1    0    0  502    0  0.00000000000E+00  0.00000000000E+00  0.18247549523E+03  0.18247549523E+03  0.00000000000E+00 0. -1.
          1   -1    0    0  501    0 -0.00000000000E+00 -0.00000000000E+00 -0.40797192685E+03  0.40797192685E+03  0.00000000000E+00 0. -1.
         25    2    1    2    0    0 -0.37891431239E+02  0.50269334743E+02  0.14554247482E+02  0.14071063328E+03  0.12499955849E+03 0.  0.
          2    1    1    2  501    0 -0.79167879839E+01 -0.53358616956E+02 -0.33762146965E+03  0.34190360382E+03  0.00000000000E+00 0. -1.
          1    1    1    2  502    0  0.45808219222E+02  0.30892822134E+01  0.97570790552E+02  0.10783318498E+03  0.00000000000E+00 0. -1.
         22    1    3    3    0    0 -0.46316545285E+02  0.84466209740E+02 -0.11339801159E+02  0.96996670280E+02  0.00000000000E+00 0. -1.
         22    1    3    3    0    0  0.84251140469E+01 -0.34196874997E+02  0.25894048641E+02  0.43713963001E+02  0.00000000000E+00 0. -1.
</event>
<event>
 7    1  0.6152634E-006  0.7245196E+02  0.7818608E-02  0.1387249E+00
          2   -1    0    0  502    0  0.00000000000E+00  0.00000000000E+00  0.29652729407E+04  0.29652729407E+04  0.00000000000E+00 0. -1.
          1   -1    0    0  501    0 -0.00000000000E+00 -0.00000000000E+00 -0.39671595961E+03  0.39671595961E+03  0.00000000000E+00 0. -1.
         25    2    1    2    0    0 -0.11130966062E+02  0.15351296071E+02  0.45275736828E+03  0.47007870001E+03  0.12500075591E+03 0.  0.
          2    1    1    2  501    0  0.35202691135E+02 -0.63779661065E+02 -0.38434127098E+03  0.39118446698E+03  0.00000000000E+00 0. -1.
          1    1    1    2  502    0 -0.24071725073E+02  0.48428364994E+02  0.25001408838E+04  0.25007257333E+04  0.00000000000E+00 0. -1.
         22    1    3    3    0    0 -0.25864903105E+02  0.65879269507E+02  0.30865322618E+03  0.31666367868E+03  0.00000000000E+00 0. -1.
         22    1    3    3    0    0  0.14733937043E+02 -0.50527973436E+02  0.14410414210E+03  0.15341502133E+03  0.00000000000E+00 0. -1.
</event>
<event>
 7    1  0.6152634E-006  0.4335268E+02  0.7818608E-02  0.1587974E+00
          2   -1    0    0  502    0  0.00000000000E+00  0.00000000000E+00  0.10459043464E+04  0.10459043464E+04  0.00000000000E+00 0. -1.
          1   -1    0    0  501    0 -0.00000000000E+00 -0.00000000000E+00 -0.66949209415E+03  0.66949209415E+03  0.00000000000E+00 0. -1.
         25    2    1    2    0    0  0.50564626560E+02 -0.28921500317E+02 -0.20185720027E+03  0.24447072054E+03  0.12500547693E+03 0.  0.
          2    1    1    2  501    0 -0.80519842932E+01  0.20553693000E+02 -0.44559671912E+03  0.44614316630E+03  0.00000000000E+00 0. -1.
          1    1    1    2  502    0 -0.42512642267E+02  0.83678073165E+01  0.10238661716E+04  0.10247825537E+04  0.00000000000E+00 0. -1.
         22    1    3    3    0    0 -0.20096042422E+02 -0.49810691044E+02 -0.41104108557E+02  0.67635076725E+02  0.00000000000E+00 0. -1.
         22    1    3    3    0    0  0.70660668982E+02  0.20889190727E+02 -0.16075309171E+03  0.17683564382E+03  0.00000000000E+00 0. -1.
</event>
<event>
 7    1  0.6152634E-006  0.2575289E+03  0.7818608E-02  0.1331457E+00
          2   -1    0    0  502    0  0.00000000000E+00  0.00000000000E+00  0.25404023080E+04  0.25404023080E+04  0.00000000000E+00 0. -1.
          1   -1    0    0  501    0 -0.00000000000E+00 -0.00000000000E+00 -0.33126625894E+03  0.33126625894E+03  0.00000000000E+00 0. -1.
         25    2    1    2    0    0 -0.27825306646E+03  0.45206224774E+01  0.34020599463E+03  0.45695557308E+03  0.12499228763E+03 0.  0.
          2    1    1    2  501    0  0.23419942059E+02 -0.65976796896E+01 -0.26475114191E+03  0.26586686557E+03  0.00000000000E+00 0. -1.
          1    1    1    2  502    0  0.25483312440E+03  0.20770572122E+01  0.21336811963E+04  0.21488461283E+04  0.00000000000E+00 0. -1.
         22    1    3    3    0    0 -0.20274517768E+03  0.57010011144E+02  0.20880727198E+03  0.29657414802E+03  0.00000000000E+00 0.  1.
         22    1    3    3    0    0 -0.75507888782E+02 -0.52489388666E+02  0.13139872265E+03  0.16038142506E+03  0.00000000000E+00 0.  1.
</event>
<event>
 7    1  0.6152634E-006  0.7077731E+02  0.7818608E-02  0.1377801E+00
          2   -1    0    0  502    0  0.00000000000E+00  0.00000000000E+00  0.55905860781E+03  0.55905860781E+03  0.00000000000E+00 0. -1.
          1   -1    0    0  501    0 -0.00000000000E+00 -0.00000000000E+00 -0.37642297726E+03  0.37642297726E+03  0.00000000000E+00 0. -1.
         25    2    1    2    0    0  0.58192150047E+02 -0.10688115370E+03  0.18974061304E+03  0.25775297745E+03  0.12500075923E+03 0.  0.
          2    1    1    2  501    0 -0.11920343774E+02  0.69035482199E+02 -0.33611181310E+03  0.34333532195E+03  0.00000000000E+00 0. -1.
          1    1    1    2  502    0 -0.46271806273E+02  0.37845671501E+02  0.32900683062E+03  0.33439328567E+03  0.00000000000E+00 0. -1.
         22    1    3    3    0    0  0.17915195119E+02 -0.91780727901E+01  0.13913207322E+03  0.14058067091E+03  0.00000000000E+00 0. -1.
         22    1    3    3    0    0  0.40276954928E+02 -0.97703080910E+02  0.50608539817E+02  0.11717230654E+03  0.00000000000E+00 0. -1.
</event>
<event>
 7    1  0.6152634E-006  0.7588028E+02  0.7818608E-02  0.1380087E+00
          2   -1    0    0  502    0  0.00000000000E+00  0.00000000000E+00  0.51439870672E+03  0.51439870672E+03  0.00000000000E+00 0. -1.
          1   -1    0    0  501    0 -0.00000000000E+00 -0.00000000000E+00 -0.12526216529E+03  0.12526216529E+03  0.00000000000E+00 0. -1.
         25    2    1    2    0    0  0.11698179663E+03  0.48554666455E+01  0.49879484314E+02  0.17838325431E+03  0.12499722463E+03 0.  0.
          2    1    1    2  501    0 -0.46808153792E+02 -0.28354210983E+02 -0.44447336677E+02  0.70501987770E+02  0.00000000000E+00 0. -1.
          1    1    1    2  502    0 -0.70173642837E+02  0.23498744337E+02  0.38370439379E+03  0.39077562994E+03  0.00000000000E+00 0. -1.
         22    1    3    3    0    0  0.10646222288E+03  0.53588860104E+01  0.88378917956E+02  0.13846933126E+03  0.00000000000E+00 0.  1.
         22    1    3    3    0    0  0.10519573752E+02 -0.50341936493E+00 -0.38499433642E+02  0.39913923056E+02  0.00000000000E+00 0.  1.
</event>
<event>
 7    1  0.6152634E-006  0.1067919E+03  0.7818608E-02  0.1319376E+00
          2   -1    0    0  502    0  0.00000000000E+00  0.00000000000E+00  0.64556537390E+03  0.64556537390E+03  0.00000000000E+00 0. -1.
          1   -1    0    0  501    0 -0.00000000000E+00 -0.00000000000E+00 -0.54399648496E+03  0.54399648496E+03  0.00000000000E+00 0. -1.
         25    2    1    2    0    0  0.13123285295E+02 -0.16137757882E+03  0.17197534060E+01  0.20455228083E+03  0.12499493781E+03 0.  0.
          2    1    1    2  501    0  0.19463410811E+02  0.62335954008E+02 -0.43511057111E+03  0.43998386859E+03  0.00000000000E+00 0. -1.
          1    1    1    2  502    0 -0.32586696106E+02  0.99041624817E+02  0.53495970665E+03  0.54502570944E+03  0.00000000000E+00 0. -1.
         22    1    3    3    0    0 -0.41127010391E+02 -0.12876904530E+03  0.24309683554E+02  0.13734576341E+03  0.00000000000E+00 0.  1.
         22    1    3    3    0    0  0.54250295686E+02 -0.32608533522E+02 -0.22589930148E+02  0.67206517426E+02  0.00000000000E+00 0.  1.
</event>
<event>
 7    1  0.6152634E-006  0.9676106E+02  0.7818608E-02  0.1467114E+00
          2   -1    0    0  502    0  0.00000000000E+00  0.00000000000E+00  0.66250663152E+03  0.66250663152E+03  0.00000000000E+00 0. -1.
          1   -1    0    0  501    0 -0.00000000000E+00 -0.00000000000E+00 -0.11516512552E+04  0.11516512552E+04  0.00000000000E+00 0. -1.
         25    2    1    2    0    0 -0.66375261003E+02  0.83994678671E+02 -0.18233218475E+03  0.24562215627E+03  0.12499774693E+03 0.  0.
          2    1    1    2  501    0  0.72672224026E+02 -0.62874851913E+02 -0.93501827265E+03  0.93994343943E+03  0.00000000000E+00 0. -1.
          1    1    1    2  502    0 -0.62969630231E+01 -0.21119826758E+02  0.62820583371E+03  0.62859229102E+03  0.00000000000E+00 0. -1.
         22    1    3    3    0    0 -0.54300410760E+02  0.11333561458E+03 -0.17038691680E+03  0.21171962016E+03  0.00000000000E+00 0.  1.
         22    1    3    3    0    0 -0.12074850243E+02 -0.29340935914E+02 -0.11945267953E+02  0.33902536117E+02  0.00000000000E+00 0.  1.
</event>
<event>
 7    1  0.6152634E-006  0.4491386E+02  0.7818608E-02  0.1504034E+00
          2   -1    0    0  502    0  0.00000000000E+00  0.00000000000E+00  0.26845572601E+03  0.26845572601E+03  0.00000000000E+00 0. -1.
          1   -1    0    0  501    0 -0.00000000000E+00 -0.00000000000E+00 -0.95977346182E+03  0.95977346182E+03  0.00000000000E+00 0. -1.
         25    2    1    2    0    0  0.76724246999E+01 -0.43385391772E+01 -0.32997440455E+03  0.35296457499E+03  0.12499277788E+03 0.  0.
          2    1    1    2  501    0  0.35891066879E+02 -0.74308694058E+01 -0.61577370127E+03  0.61686354867E+03  0.00000000000E+00 0. -1.
          1    1    1    2  502    0 -0.43563491579E+02  0.11769408583E+02  0.25443037001E+03  0.25840106417E+03  0.00000000000E+00 0. -1.
         22    1    3    3    0    0  0.20027587957E+00 -0.59706288798E+02 -0.10150407452E+03  0.11776229523E+03  0.00000000000E+00 0.  1.
         22    1    3    3    0    0  0.74721488203E+01  0.55367749621E+02 -0.22847033002E+03  0.23520227977E+03  0.00000000000E+00 0.  1.
</event>
<event>
 7    1  0.6152634E-006  0.6057888E+02  0.7818608E-02  0.1397571E+00
          2   -1    0    0  502    0  0.00000000000E+00  0.00000000000E+00  0.49399648638E+03  0.49399648638E+03  0.00000000000E+00 0. -1.
          1   -1    0    0  501    0 -0.00000000000E+00 -0.00000000000E+00 -0.21736777504E+03  0.21736777504E+03  0.00000000000E+00 0. -1.
         25    2    1    2    0    0 -0.59730902965E+02  0.55610751649E+01  0.48500070146E+02  0.14688673693E+03  0.12499900142E+03 0.  0.
          2    1    1    2  501    0  0.25566840930E+02 -0.55587246348E+02 -0.16018209816E+03  0.17146985124E+03  0.00000000000E+00 0. -1.
          1    1    1    2  502    0  0.34164062035E+02  0.50026171183E+02  0.38831073935E+03  0.39300767325E+03  0.00000000000E+00 0. -1.
         22    1    3    3    0    0  0.38151519611E+02  0.51812355389E+00  0.14910255877E+01  0.38184159778E+02  0.00000000000E+00 0.  1.
         22    1    3    3    0    0 -0.97882422576E+02  0.50429516110E+01  0.47009044558E+02  0.10870257716E+03  0.00000000000E+00 0.  1.
</event>
<event>
 7    1  0.6152634E-006  0.5814923E+02  0.7818608E-02  0.1420177E+00
          2   -1    0    0  502    0  0.00000000000E+00  0.00000000000E+00  0.81632875057E+03  0.81632875057E+03  0.00000000000E+00 0. -1.
          1   -1    0    0  501    0 -0.00000000000E+00 -0.00000000000E+00 -0.14157518859E+03  0.14157518859E+03  0.00000000000E+00 0. -1.
         25    2    1    2    0    0 -0.21754099181E+02 -0.50503383656E+02 -0.19276632890E+02  0.13790653215E+03  0.12499116145E+03 0.  0.
          2    1    1    2  501    0  0.51988637455E+02  0.39016069421E+00 -0.50907777167E+02  0.72763812613E+02  0.00000000000E+00 0. -1.
          1    1    1    2  502    0 -0.30234538274E+02  0.50113222962E+02  0.74493797204E+03  0.74723359441E+03  0.00000000000E+00 0. -1.
         22    1    3    3    0    0 -0.50340797860E+02  0.24158053666E+02 -0.15135453925E+02  0.57852307228E+02  0.00000000000E+00 0.  1.
         22    1    3    3    0    0  0.28586698678E+02 -0.74661437322E+02 -0.41411789657E+01  0.80054224920E+02  0.00000000000E+00 0.  1.
</event>
<event>
 7    1  0.6152634E-006  0.2806841E+02  0.7818608E-02  0.1644615E+00
          2   -1    0    0  502    0  0.00000000000E+00  0.00000000000E+00  0.32270222726E+02  0.32270222726E+02  0.00000000000E+00 0. -1.
          1   -1    0    0  501    0 -0.00000000000E+00 -0.00000000000E+00 -0.46614387417E+03  0.46614387417E+03  0.00000000000E+00 0. -1.
         25    2    1    2    0    0  0.21917493326E+02 -0.33659908799E+02 -0.14201766781E+03  0.19341055520E+03  0.12500103567E+03 0.  0.
          2    1    1    2  501    0  0.33818455053E+01  0.24182587435E+02 -0.26755232034E+03  0.26866424870E+03  0.00000000000E+00 0. -1.
          1    1    1    2  502    0 -0.25299338832E+02  0.94773213645E+01 -0.24303663303E+02  0.36339292997E+02  0.00000000000E+00 0. -1.
         22    1    3    3    0    0  0.81450350962E+01  0.45257783528E+02 -0.79305418991E+02  0.91673104278E+02  0.00000000000E+00 0. -1.
         22    1    3    3    0    0  0.13772458230E+02 -0.78917692327E+02 -0.62712248814E+02  0.10173745092E+03  0.00000000000E+00 0. -1.
</event>
<event>
 7    1  0.6152634E-006  0.4123790E+02  0.7818608E-02  0.1526513E+00
          2   -1    0    0  502    0  0.00000000000E+00  0.00000000000E+00  0.10689314387E+04  0.10689314387E+04  0.00000000000E+00 0. -1.
          1   -1    0    0  501    0 -0.00000000000E+00 -0.00000000000E+00 -0.49649504403E+03  0.49649504403E+03  0.00000000000E+00 0. -1.
         25    2    1    2    0    0  0.11734767821E+02  0.14221376847E+02  0.32259423753E+03  0.34645606453E+03  0.12499924091E+03 0.  0.
          2    1    1    2  501    0  0.31043641492E+02 -0.14622619927E+02 -0.48333230743E+03  0.48454891198E+03  0.00000000000E+00 0. -1.
          1    1    1    2  502    0 -0.42778409313E+02  0.40124307985E+00  0.73317446453E+03  0.73442150618E+03  0.00000000000E+00 0. -1.
         22    1    3    3    0    0 -0.12397766389E+02  0.69394153463E+01  0.32087590928E+03  0.32119030068E+03  0.00000000000E+00 0.  1.
         22    1    3    3    0    0  0.24132534210E+02  0.72819615010E+01  0.17183282475E+01  0.25265763845E+02  0.00000000000E+00 0.  1.
</event>
<event>
 7    1  0.6152634E-006  0.2758808E+02  0.7818608E-02  0.1665864E+00
          2   -1    0    0  502    0  0.00000000000E+00  0.00000000000E+00  0.11774357447E+04  0.11774357447E+04  0.00000000000E+00 0. -1.
          1   -1    0    0  501    0 -0.00000000000E+00 -0.00000000000E+00 -0.48961595632E+02  0.48961595632E+02  0.00000000000E+00 0. -1.
         25    2    1    2    0    0 -0.26748708221E+02 -0.26632857238E+02  0.16387078331E+03  0.20953100752E+03  0.12499922806E+03 0.  0.
          2    1    1    2  501    0  0.47013124836E+01  0.27044614453E+02 -0.18764751381E+02  0.33251006065E+02  0.00000000000E+00 0. -1.
          1    1    1    2  502    0  0.22047395738E+02 -0.41175721537E+00  0.98336811715E+03  0.98361532675E+03  0.00000000000E+00 0. -1.
         22    1    3    3    0    0 -0.83057948430E+01 -0.40580240550E+02 -0.25610126180E+01  0.41500613691E+02  0.00000000000E+00 0. -1.
         22    1    3    3    0    0 -0.18442913378E+02  0.13947383313E+02  0.16643179593E+03  0.16803039383E+03  0.00000000000E+00 0. -1.
</event>
<event>
 7    1  0.6152634E-006  0.9571789E+02  0.7818608E-02  0.1369973E+00
          2   -1    0    0  502    0  0.00000000000E+00  0.00000000000E+00  0.71822496840E+03  0.71822496840E+03  0.00000000000E+00 0. -1.
          1   -1    0    0  501    0 -0.00000000000E+00 -0.00000000000E+00 -0.33147268925E+03  0.33147268925E+03  0.00000000000E+00 0. -1.
         25    2    1    2    0    0 -0.10529221284E+03 -0.19044652790E+02  0.20410713326E+03  0.26217201612E+03  0.12500118121E+03 0.  0.
          2    1    1    2  501    0  0.77031252914E+02  0.56777664103E+02 -0.29367769448E+03  0.30887554986E+03  0.00000000000E+00 0. -1.
          1    1    1    2  502    0  0.28260959923E+02 -0.37733011314E+02  0.47632284037E+03  0.47865009167E+03  0.00000000000E+00 0. -1.
         22    1    3    3    0    0 -0.35155297846E+02 -0.11618747642E+02 -0.86558073537E+01  0.38023851256E+02  0.00000000000E+00 0. -1.
         22    1    3    3    0    0 -0.70136914992E+02 -0.74259051475E+01  0.21276294062E+03  0.22414816486E+03  0.00000000000E+00 0. -1.
</event>
<event>
 7    1  0.6152634E-006  0.8977697E+02  0.7818608E-02  0.1377313E+00
          2   -1    0    0  502    0  0.00000000000E+00  0.00000000000E+00  0.64931313904E+03  0.64931313904E+03  0.00000000000E+00 0. -1.
          1   -1    0    0  501    0 -0.00000000000E+00 -0.00000000000E+00 -0.13562151848E+03  0.13562151848E+03  0.00000000000E+00 0. -1.
         25    2    1    2    0    0  0.83029506427E+02  0.66451773829E+02  0.47662675331E+01  0.16418717555E+03  0.12499989651E+03 0.  0.
          2    1    1    2  501    0 -0.37055829035E+02 -0.77640305211E+02 -0.21128103834E+02  0.88586388517E+02  0.00000000000E+00 0. -1.
          1    1    1    2  502    0 -0.45973677392E+02  0.11188531382E+02  0.53005345687E+03  0.53216109345E+03  0.00000000000E+00 0. -1.
         22    1    3    3    0    0  0.98476490869E+02  0.88904856383E+02 -0.10256988673E+02  0.13306727080E+03  0.00000000000E+00 0.  1.
         22    1    3    3    0    0 -0.15446984443E+02 -0.22453082554E+02  0.15023256206E+02  0.31119904749E+02  0.00000000000E+00 0.  1.
</event>
<event>
 7    1  0.6152634E-006  0.1399582E+03  0.7818608E-02  0.1326483E+00
          2   -1    0    0  502    0  0.00000000000E+00  0.00000000000E+00  0.66772019122E+03  0.66772019122E+03  0.00000000000E+00 0. -1.
          1   -1    0    0  501    0 -0.00000000000E+00 -0.00000000000E+00 -0.40503771903E+04  0.40503771903E+04  0.00000000000E+00 0. -1.
         25    2    1    2    0    0 -0.22138319392E+02 -0.13521276480E+03 -0.33387053545E+03  0.38192473640E+03  0.12499749150E+03 0.  0.
          2    1    1    2  501    0 -0.24531352098E+02  0.13837367301E+03 -0.36902905597E+04  0.36929654040E+04  0.00000000000E+00 0. -1.
          1    1    1    2  502    0  0.46669671490E+02 -0.31609082077E+01  0.64150409611E+03  0.64320724102E+03  0.00000000000E+00 0. -1.
         22    1    3    3    0    0 -0.72409876848E+02 -0.62237079856E+02 -0.19620260109E+03  0.21820198223E+03  0.00000000000E+00 0.  1.
         22    1    3    3    0    0  0.50271557455E+02 -0.72975684947E+02 -0.13766793437E+03  0.16372275418E+03  0.00000000000E+00 0.  1.
</event>
<event>
 7    1  0.6152634E-006  0.8007051E+02  0.7818608E-02  0.1394251E+00
          2   -1    0    0  502    0  0.00000000000E+00  0.00000000000E+00  0.64967066550E+03  0.64967066550E+03  0.00000000000E+00 0. -1.
          1   -1    0    0  501    0 -0.00000000000E+00 -0.00000000000E+00 -0.11727888034E+03  0.11727888034E+03  0.00000000000E+00 0. -1.
         25    2    1    2    0    0 -0.59386086219E+01  0.64441590938E+02  0.43498459774E+03  0.45719064683E+03  0.12499480614E+03 0.  0.
          2    1    1    2  501    0  0.52135792123E+02 -0.62015108023E+02 -0.87443604797E+02  0.11920737588E+03  0.00000000000E+00 0. -1.
          1    1    1    2  502    0 -0.46197183501E+02 -0.24264829146E+01  0.18485079222E+03  0.19055152313E+03  0.00000000000E+00 0. -1.
         22    1    3    3    0    0  0.26186021297E+02  0.14744307333E+02  0.36193159975E+03  0.36317707143E+03  0.00000000000E+00 0.  1.
         22    1    3    3    0    0 -0.32124629919E+02  0.49697283605E+02  0.73052997989E+02  0.94013575404E+02  0.00000000000E+00 0.  1.
</event>
<event>
 7    1  0.6152634E-006  0.5520011E+02  0.7818608E-02  0.1425925E+00
          2   -1    0    0  502    0  0.00000000000E+00  0.00000000000E+00  0.32510470097E+03  0.32510470097E+03  0.00000000000E+00 0. -1.
          1   -1    0    0  501    0 -0.00000000000E+00 -0.00000000000E+00 -0.50432725825E+02  0.50432725825E+02  0.00000000000E+00 0. -1.
         25    2    1    2    0    0  0.29173334857E+02 -0.65386253643E+02  0.19569189393E+03  0.24299557453E+03  0.12500034505E+03 0.  0.
          2    1    1    2  501    0 -0.49973835591E+02  0.15791676895E+02  0.34438585084E+02  0.62711860485E+02  0.00000000000E+00 0. -1.
          1    1    1    2  502    0  0.20800500734E+02  0.49594576748E+02  0.44541496132E+02  0.69829991775E+02  0.00000000000E+00 0. -1.
         22    1    3    3    0    0 -0.24152271935E+00  0.37132978016E+02  0.44265572299E+02  0.57778519196E+02  0.00000000000E+00 0.  1.
         22    1    3    3    0    0  0.29414857576E+02 -0.10251923166E+03  0.15142632163E+03  0.18521705534E+03  0.00000000000E+00 0.  1.
</event>
<event>
 7    1  0.6152634E-006  0.8734676E+02  0.7818608E-02  0.1381665E+00
          2   -1    0    0  502    0  0.00000000000E+00  0.00000000000E+00  0.32674816182E+04  0.32674816182E+04  0.00000000000E+00 0. -1.
          1   -1    0    0  501    0 -0.00000000000E+00 -0.00000000000E+00 -0.17318495560E+02  0.17318495560E+02  0.00000000000E+00 0. -1.
         25    2    1    2    0    0 -0.67421018540E+02 -0.38355399875E+02  0.79509247123E+03  0.80858993150E+03  0.12501563530E+03 0.  0.
          2    1    1    2  501    0  0.24025194555E+02 -0.40319355049E+02  0.46856091729E+02  0.66320085171E+02  0.00000000000E+00 0. -1.
          1    1    1    2  502    0  0.43395823985E+02  0.78674754924E+02  0.24082145597E+04  0.24098900971E+04  0.00000000000E+00 0. -1.
         22    1    3    3    0    0 -0.88575246514E+02  0.13776415707E+02  0.43630605605E+03  0.44541928390E+03  0.00000000000E+00 0. -1.
         22    1    3    3    0    0  0.21154227975E+02 -0.52131815582E+02  0.35878641518E+03  0.36317064760E+03  0.00000000000E+00 0. -1.
</event>
<event>
 7    1  0.6152634E-006  0.2788042E+02  0.7818608E-02  0.1668823E+00
          2   -1    0    0  502    0  0.00000000000E+00  0.00000000000E+00  0.13823091642E+03  0.13823091642E+03  0.00000000000E+00 0. -1.
          1   -1    0    0  501    0 -0.00000000000E+00 -0.00000000000E+00 -0.30667537455E+03  0.30667537455E+03  0.00000000000E+00 0. -1.
         25    2    1    2    0    0  0.28446373223E+02  0.17725343448E+02  0.23238496038E+02  0.13148556036E+03  0.12500016374E+03 0.  0.
          2    1    1    2  501    0 -0.19576465366E+02  0.88067347184E+01 -0.24885079378E+03  0.24977492696E+03  0.00000000000E+00 0. -1.
          1    1    1    2  502    0 -0.88699078564E+01 -0.26532078167E+02  0.57167839611E+02  0.63645803656E+02  0.00000000000E+00 0. -1.
         22    1    3    3    0    0  0.46589732705E+02 -0.20450694429E+02  0.57714551971E+02  0.76940259977E+02  0.00000000000E+00 0. -1.
         22    1    3    3    0    0 -0.18143359482E+02  0.38176037877E+02 -0.34476055933E+02  0.54545300384E+02  0.00000000000E+00 0. -1.
</event>
<event>
 7    1  0.6152634E-006  0.7192627E+02  0.7818608E-02  0.1410848E+00
          2   -1    0    0  502    0  0.00000000000E+00  0.00000000000E+00  0.26761042584E+03  0.26761042584E+03  0.00000000000E+00 0. -1.
          1   -1    0    0  501    0 -0.00000000000E+00 -0.00000000000E+00 -0.11397271626E+04  0.11397271626E+04  0.00000000000E+00 0. -1.
         25    2    1    2    0    0 -0.14179641073E+02 -0.10352095408E+03 -0.11713144074E+03  0.20065495300E+03  0.12499994240E+03 0.  0.
          2    1    1    2  501    0 -0.15448978978E+02  0.69413717445E+02 -0.97726960401E+03  0.97985346560E+03  0.00000000000E+00 0. -1.
          1    1    1    2  502    0  0.29628620051E+02  0.34107236640E+02  0.22228430799E+03  0.22682916985E+03  0.00000000000E+00 0. -1.
         22    1    3    3    0    0  0.19563582396E+02 -0.36336730222E+02  0.18775677122E+02  0.45338921148E+02  0.00000000000E+00 0.  1.
         22    1    3    3    0    0 -0.33743223469E+02 -0.67184223862E+02 -0.13590711786E+03  0.15531603186E+03  0.00000000000E+00 0.  1.
</event>
<event>
 7    1  0.6152634E-006  0.1345423E+03  0.7818608E-02  0.1252498E+00
          2   -1    0    0  502    0  0.00000000000E+00  0.00000000000E+00  0.20783518199E+04  0.20783518199E+04  0.00000000000E+00 0. -1.
          1   -1    0    0  501    0 -0.00000000000E+00 -0.00000000000E+00 -0.35207312055E+03  0.35207312055E+03  0.00000000000E+00 0. -1.
         25    2    1    2    0    0  0.89670150742E+02 -0.15830056640E+03  0.12917768187E+04  0.13105009834E+04  0.12500269116E+03 0.  0.
          2    1    1    2  501    0 -0.11756794068E+03  0.64978229970E+02 -0.32632293669E+03  0.35288957205E+03  0.00000000000E+00 0. -1.
          1    1    1    2  502    0  0.27897789939E+02  0.93322336428E+02  0.76082481732E+03  0.76703438502E+03  0.00000000000E+00 0. -1.
         22    1    3    3    0    0  0.34408082021E+02 -0.14580423956E+03  0.11109681482E+04  0.11210232017E+04  0.00000000000E+00 0. -1.
         22    1    3    3    0    0  0.55262068721E+02 -0.12496326843E+02  0.18080867053E+03  0.18947778171E+03  0.00000000000E+00 0. -1.
</event>
<event>
 7    1  0.6152634E-006  0.7274776E+02  0.7818608E-02  0.1381298E+00
          2   -1    0    0  502    0  0.00000000000E+00  0.00000000000E+00  0.13385766782E+04  0.13385766782E+04  0.00000000000E+00 0. -1.
          1   -1    0    0  501    0 -0.00000000000E+00 -0.00000000000E+00 -0.22204629930E+03  0.22204629930E+03  0.00000000000E+00 0. -1.
         25    2    1    2    0    0  0.57424959268E+02  0.68462674716E+02 -0.13410106308E+03  0.20394388597E+03  0.12500099891E+03 0.  0.
          2    1    1    2  501    0 -0.90778271444E+00 -0.69227348319E+02 -0.29531769775E+02  0.75268687054E+02  0.00000000000E+00 0. -1.
          1    1    1    2  502    0 -0.56517176554E+02  0.76467360320E+00  0.12801632117E+04  0.12814104045E+04  0.00000000000E+00 0. -1.
         22    1    3    3    0    0  0.65559883173E+02  0.41501570647E+02 -0.15194148423E+03  0.17060683831E+03  0.00000000000E+00 0. -1.
         22    1    3    3    0    0 -0.81349239049E+01  0.26961104069E+02  0.17840421151E+02  0.33337047656E+02  0.00000000000E+00 0. -1.
</event>
<event>
 7    1  0.6152634E-006  0.5306641E+02  0.7818608E-02  0.1547349E+00
          2   -1    0    0  502    0  0.00000000000E+00  0.00000000000E+00  0.24485220247E+04  0.24485220247E+04  0.00000000000E+00 0. -1.
          1   -1    0    0  501    0 -0.00000000000E+00 -0.00000000000E+00 -0.11130389924E+04  0.11130389924E+04  0.00000000000E+00 0. -1.
         25    2    1    2    0    0  0.28691679432E+02  0.35844919844E+02  0.53579121390E+03  0.55208756634E+03  0.12498153971E+03 0.  0.
          2    1    1    2  501    0  0.19587033038E+02 -0.12565519411E+02 -0.11043911309E+04  0.11046362814E+04  0.00000000000E+00 0. -1.
          1    1    1    2  502    0 -0.48278712471E+02 -0.23279400433E+02  0.19040829492E+04  0.19048371695E+04  0.00000000000E+00 0. -1.
         22    1    3    3    0    0  0.49347701666E+02 -0.34200413057E+02  0.25131531874E+03  0.25838779644E+03  0.00000000000E+00 0.  1.
         22    1    3    3    0    0 -0.20656022233E+02  0.70045332901E+02  0.28447589515E+03  0.29369976990E+03  0.00000000000E+00 0.  1.
</event>
<event>
 7    1  0.6152634E-006  0.4071751E+02  0.7818608E-02  0.1523142E+00
          2   -1    0    0  502    0  0.00000000000E+00  0.00000000000E+00  0.15640895353E+03  0.15640895353E+03  0.00000000000E+00 0. -1.
          1   -1    0    0  501    0 -0.00000000000E+00 -0.00000000000E+00 -0.26282336854E+04  0.26282336854E+04  0.00000000000E+00 0. -1.
         25    2    1    2    0    0  0.55339164212E+02 -0.26051259813E+02  0.96009295470E+01  0.13949189769E+03  0.12499888176E+03 0.  0.
          2    1    1    2  501    0 -0.34624124573E+02 -0.80194675114E+01 -0.25583019608E+04  0.25585488201E+04  0.00000000000E+00 0. -1.
          1    1    1    2  502    0 -0.20715039639E+02  0.34070727324E+02  0.76876299450E+02  0.86601921138E+02  0.00000000000E+00 0. -1.
         22    1    3    3    0    0 -0.25929803841E+02 -0.46226770926E+02  0.16396432468E+02  0.55480736073E+02  0.00000000000E+00 0. -1.
         22    1    3    3    0    0  0.81268968053E+02  0.20175511113E+02 -0.67955029205E+01  0.84011161622E+02  0.00000000000E+00 0. -1.
</event>
<event>
 7    1  0.6152634E-006  0.8054808E+02  0.7818608E-02  0.1363728E+00
          2   -1    0    0  502    0  0.00000000000E+00  0.00000000000E+00  0.66243289010E+03  0.66243289010E+03  0.00000000000E+00 0. -1.
          1   -1    0    0  501    0 -0.00000000000E+00 -0.00000000000E+00 -0.53304927659E+03  0.53304927659E+03  0.00000000000E+00 0. -1.
         25    2    1    2    0    0 -0.50372841697E+02  0.11616624760E+03  0.99169047303E+02  0.20369391537E+03  0.12499876381E+03 0.  0.
          2    1    1    2  501    0  0.40546936450E+01 -0.79606474073E+02 -0.47575661372E+03  0.48238779706E+03  0.00000000000E+00 0. -1.
          1    1    1    2  502    0  0.46318148052E+02 -0.36559773524E+02  0.50597117992E+03  0.50940045425E+03  0.00000000000E+00 0. -1.
         22    1    3    3    0    0 -0.40409439703E+02 -0.52683246166E+01  0.65744285745E+02  0.77349784547E+02  0.00000000000E+00 0.  1.
         22    1    3    3    0    0 -0.99634019943E+01  0.12143457221E+03  0.33424761558E+02  0.12634413082E+03  0.00000000000E+00 0.  1.
</event>
<event>
 7    1  0.6152634E-006  0.7649157E+02  0.7818608E-02  0.1380880E+00
          2   -1    0    0  502    0  0.00000000000E+00  0.00000000000E+00  0.80450126036E+03  0.80450126036E+03  0.00000000000E+00 0. -1.
          1   -1    0    0  501    0 -0.00000000000E+00 -0.00000000000E+00 -0.83439671257E+02  0.83439671257E+02  0.00000000000E+00 0. -1.
         25    2    1    2    0    0  0.17848431465E+01 -0.48544295038E+02  0.22261395624E+03  0.25988727726E+03  0.12499875649E+03 0.  0.
          2    1    1    2  501    0  0.51994953294E+02 -0.14350010626E+02 -0.49909792176E+02  0.73487314062E+02  0.00000000000E+00 0. -1.
          1    1    1    2  502    0 -0.53779796440E+02  0.62894305664E+02  0.54835742504E+03  0.55456634029E+03  0.00000000000E+00 0. -1.
         22    1    3    3    0    0  0.62791870364E+02 -0.16418604506E+02  0.11595246599E+03  0.13288101417E+03  0.00000000000E+00 0.  1.
         22    1    3    3    0    0 -0.61007027218E+02 -0.32125690532E+02  0.10666149025E+03  0.12700626309E+03  0.00000000000E+00 0.  1.
</event>
<event>
 7    1  0.6152634E-006  0.7522215E+02  0.7818608E-02  0.1443513E+00
          2   -1    0    0  502    0  0.00000000000E+00  0.00000000000E+00  0.84048933201E+02  0.84048933201E+02  0.00000000000E+00 0. -1.
          1   -1    0    0  501    0 -0.00000000000E+00 -0.00000000000E+00 -0.10965466719E+04  0.10965466719E+04  0.00000000000E+00 0. -1.
         25    2    1    2    0    0 -0.89232496487E+02 -0.59070456489E+02 -0.46468040256E+03  0.49295516484E+03  0.12500064303E+03 0.  0.
          2    1    1    2  501    0  0.24837317750E+02  0.22761241640E+02 -0.59757801388E+03  0.59852689927E+03  0.00000000000E+00 0. -1.
          1    1    1    2  502    0  0.64395178737E+02  0.36309214849E+02  0.49760677784E+02  0.89113540952E+02  0.00000000000E+00 0. -1.
         22    1    3    3    0    0 -0.52226198268E+02  0.19099026114E+02 -0.31677874522E+03  0.32162263914E+03  0.00000000000E+00 0.  1.
         22    1    3    3    0    0 -0.37006298219E+02 -0.78169482603E+02 -0.14790165734E+03  0.17133252570E+03  0.00000000000E+00 0.  1.
</event>
<event>
 7    1  0.6152634E-006  0.3461549E+02  0.7818608E-02  0.1569257E+00
          2   -1    0    0  502    0  0.00000000000E+00  0.00000000000E+00  0.23443392546E+04  0.23443392546E+04  0.00000000000E+00 0. -1.
          1   -1    0    0  501    0 -0.00000000000E+00 -0.00000000000E+00 -0.22397889329E+02  0.22397889329E+02  0.00000000000E+00 0. -1.
         25    2    1    2    0    0  0.68466478446E+01  0.19871829693E+02  0.68157643817E+03  0.69326444284E+03  0.12500952137E+03 0.  0.
          2    1    1    2  501    0  0.27970805136E+02 -0.13457823849E+02 -0.16427554680E+01  0.31083397630E+02  0.00000000000E+00 0. -1.
          1    1    1    2  502    0 -0.34817452981E+02 -0.64140058437E+01  0.16420076826E+04  0.16423893035E+04  0.00000000000E+00 0. -1.
         22    1    3    3    0    0 -0.43726075454E+02 -0.31608666168E+02  0.25753567365E+03  0.26312677677E+03  0.00000000000E+00 0.  1.
         22    1    3    3    0    0  0.50572723298E+02  0.51480495860E+02  0.42404076452E+03  0.43013766607E+03  0.00000000000E+00 0.  1.
</event>
<event>
 7    1  0.6152634E-006  0.1438239E+03  0.7818608E-02  0.1231184E+00
          2   -1    0    0  502    0  0.00000000000E+00  0.00000000000E+00  0.58379428449E+03  0.58379428449E+03  0.00000000000E+00 0. -1.
          1   -1    0    0  501    0 -0.00000000000E+00 -0.00000000000E+00 -0.22311639043E+03  0.22311639043E+03  0.00000000000E+00 0. -1.
         25    2    1    2    0    0  0.14500324131E+03 -0.28529677602E+02 -0.35645886440E+02  0.19681029834E+03  0.12499512718E+03 0.  0.
          2    1    1    2  501    0 -0.22673757397E+02  0.11076554441E+03 -0.61797969245E+02  0.12884911372E+03  0.00000000000E+00 0. -1.
          1    1    1    2  502    0 -0.12232948391E+03 -0.82235866806E+02  0.45812174974E+03  0.48125126287E+03  0.00000000000E+00 0. -1.
         22    1    3    3    0    0  0.79293432054E+02 -0.35107574527E+01 -0.80788547009E+02  0.11325441763E+03  0.00000000000E+00 0. -1.
         22    1    3    3    0    0  0.65709809257E+02 -0.25018920150E+02  0.45142660569E+02  0.83555880710E+02  0.00000000000E+00 0. -1.
</event>
<event>
 7    1  0.6152634E-006  0.1768527E+03  0.7818608E-02  0.1212189E+00
          2   -1    0    0  502    0  0.00000000000E+00  0.00000000000E+00  0.16679084714E+04  0.16679084714E+04  0.00000000000E+00 0. -1.
          1   -1    0    0  501    0 -0.00000000000E+00 -0.00000000000E+00 -0.60384939192E+03  0.60384939192E+03  0.00000000000E+00 0. -1.
         25    2    1    2    0    0 -0.11178799733E+03  0.54510693772E+02  0.13947239435E+03  0.22482786623E+03  0.12500819400E+03 0.  0.
          2    1    1    2  501    0  0.22520114814E+02  0.10989373488E+03 -0.54959455788E+03  0.56092599029E+03  0.00000000000E+00 0. -1.
          1    1    1    2  502    0  0.89267882513E+02 -0.16440442865E+03  0.14741812430E+04  0.14860040068E+04  0.00000000000E+00 0. -1.
         22    1    3    3    0    0 -0.12417018950E+02  0.67884146835E+02  0.88862740903E+02  0.11251233920E+03  0.00000000000E+00 0.  1.
         22    1    3    3    0    0 -0.99370978377E+02 -0.13373453063E+02  0.50609653448E+02  0.11231552703E+03  0.00000000000E+00 0.  1.
</event>
<event>
 7    1  0.6152634E-006  0.1208999E+03  0.7818608E-02  0.1242728E+00
          2   -1    0    0  502    0  0.00000000000E+00  0.00000000000E+00  0.39782759382E+03  0.39782759382E+03  0.00000000000E+00 0. -1.
          1   -1    0    0  501    0 -0.00000000000E+00 -0.00000000000E+00 -0.84229286490E+03  0.84229286490E+03  0.00000000000E+00 0. -1.
         25    2    1    2    0    0 -0.84136667541E+02  0.71498701762E+02 -0.32432589247E+03  0.36468256069E+03  0.12496016312E+03 0.  0.
          2    1    1    2  501    0  0.14031615309E+03  0.34030772299E+02 -0.47737321723E+03  0.49873029266E+03  0.00000000000E+00 0. -1.
          1    1    1    2  502    0 -0.56179485552E+02 -0.10552947406E+03  0.35723383862E+03  0.37670760538E+03  0.00000000000E+00 0. -1.
         22    1    3    3    0    0 -0.78063932101E+02  0.38915122992E+02 -0.31949477506E+03  0.33118767427E+03  0.00000000000E+00 0. -1.
         22    1    3    3    0    0 -0.60727354408E+01  0.32583578770E+02 -0.48311174061E+01  0.33494886424E+02  0.00000000000E+00 0. -1.
</event>
<event>
 7    1  0.6152634E-006  0.7535879E+02  0.7818608E-02  0.1349190E+00
          2   -1    0    0  502    0  0.00000000000E+00  0.00000000000E+00  0.34668119277E+04  0.34668119277E+04  0.00000000000E+00 0. -1.
          1   -1    0    0  501    0 -0.00000000000E+00 -0.00000000000E+00 -0.25583426767E+03  0.25583426767E+03  0.00000000000E+00 0. -1.
         25    2    1    2    0    0 -0.39084440599E+02  0.12459347984E+02  0.37977820057E+02  0.13694283285E+03  0.12501278257E+03 0.  0.
          2    1    1    2  501    0  0.13815492753E+02 -0.79146573225E+02 -0.19813989313E+03  0.21380941313E+03  0.00000000000E+00 0. -1.
          1    1    1    2  502    0  0.25268947846E+02  0.66687225241E+02  0.33711397331E+04  0.33718939494E+04  0.00000000000E+00 0. -1.
         22    1    3    3    0    0 -0.86355671601E+01 -0.55807359830E+02  0.11412554430E+02  0.57613200136E+02  0.00000000000E+00 0.  1.
         22    1    3    3    0    0 -0.30448873439E+02  0.68266707814E+02  0.26565265626E+02  0.79329632718E+02  0.00000000000E+00 0.  1.
</event>
<event>
 7    1  0.6152634E-006  0.8150433E+02  0.7818608E-02  0.1358093E+00
          2   -1    0    0  502    0  0.00000000000E+00  0.00000000000E+00  0.29478077211E+04  0.29478077211E+04  0.00000000000E+00 0. -1.
          1   -1    0    0  501    0 -0.00000000000E+00 -0.00000000000E+00 -0.17331236717E+03  0.17331236717E+03  0.00000000000E+00 0. -1.
         25    2    1    2    0    0 -0.52177058067E+02 -0.24440775199E+02  0.19236369462E+03  0.23653550596E+03  0.12500183076E+03 0.  0.
          2    1    1    2  501    0  0.25907740312E+02  0.79649640252E+02 -0.13925941144E+03  0.16250679948E+03  0.00000000000E+00 0. -1.
          1    1    1    2  502    0  0.26269317755E+02 -0.55208865053E+02  0.27213910707E+04  0.27220777828E+04  0.00000000000E+00 0. -1.
         22    1    3    3    0    0  0.23427203649E+02 -0.15583698803E+02  0.14315433311E+03  0.14589327821E+03  0.00000000000E+00 0. -1.
         22    1    3    3    0    0 -0.75604261716E+02 -0.88570763960E+01  0.49209361508E+02  0.90642227752E+02  0.00000000000E+00 0. -1.
</event>
<event>
 7    1  0.6152634E-006  0.9319902E+02  0.7818608E-02  0.1315181E+00
          2   -1    0    0  502    0  0.00000000000E+00  0.00000000000E+00  0.31461141437E+03  0.31461141437E+03  0.00000000000E+00 0. -1.
          1   -1    0    0  501    0 -0.00000000000E+00 -0.00000000000E+00 -0.27638262003E+03  0.27638262003E+03  0.00000000000E+00 0. -1.
         25    2    1    2    0    0  0.11960345457E+03 -0.24910228173E+02  0.54219893926E+02  0.18300293894E+03  0.12499909180E+03 0.  0.
          2    1    1    2  501    0 -0.38013490229E+02  0.67763957403E+02 -0.19320660892E+03  0.20824450315E+03  0.00000000000E+00 0. -1.
          1    1    1    2  502    0 -0.81589964337E+02 -0.42853729230E+02  0.17721550934E+03  0.19974659231E+03  0.00000000000E+00 0. -1.
         22    1    3    3    0    0  0.11651004000E+03  0.29561964341E+02  0.38710027465E+02  0.12628129467E+03  0.00000000000E+00 0.  1.
         22    1    3    3    0    0  0.30934145613E+01 -0.54472192513E+02  0.15509866461E+02  0.56721644268E+02  0.00000000000E+00 0.  1.
</event>
<event>
 7    1  0.6152634E-006  0.1249164E+03  0.7818608E-02  0.1290771E+00
          2   -1    0    0  502    0  0.00000000000E+00  0.00000000000E+00  0.98382483184E+03  0.98382483184E+03  0.00000000000E+00 0. -1.
          1   -1    0    0  501    0 -0.00000000000E+00 -0.00000000000E+00 -0.14914022577E+04  0.14914022577E+04  0.00000000000E+00 0. -1.
         25    2    1    2    0    0 -0.44949601471E+02  0.18246711820E+03 -0.26309189297E+03  0.34663295160E+03  0.12498937194E+03 0.  0.
          2    1    1    2  501    0  0.43069937779E+02 -0.58347944897E+02 -0.11813337775E+04  0.11835577705E+04  0.00000000000E+00 0. -1.
          1    1    1    2  502    0  0.18796636915E+01 -0.12411917330E+03  0.93684824463E+03  0.94503636744E+03  0.00000000000E+00 0. -1.
         22    1    3    3    0    0  0.37344964621E+02  0.36029862726E+02 -0.32085583461E+02  0.61010507756E+02  0.00000000000E+00 0.  1.
         22    1    3    3    0    0 -0.82294566092E+02  0.14643725547E+03 -0.23100630951E+03  0.28562244385E+03  0.00000000000E+00 0.  1.
</event>
<event>
 7    1  0.6152634E-006  0.1165711E+03  0.7818608E-02  0.1412527E+00
          2   -1    0    0  502    0  0.00000000000E+00  0.00000000000E+00  0.27487648697E+04  0.27487648697E+04  0.00000000000E+00 0. -1.
          1   -1    0    0  501    0 -0.00000000000E+00 -0.00000000000E+00 -0.22126788293E+02  0.22126788293E+02  0.00000000000E+00 0. -1.
         25    2    1    2    0    0 -0.13799992113E+03  0.31074555451E+02  0.44516727991E+03  0.48353728093E+03  0.12499915485E+03 0.  0.
          2    1    1    2  501    0  0.25135774159E+02 -0.11190781965E+02  0.13232916001E+03  0.13515934053E+03  0.00000000000E+00 0. -1.
          1    1    1    2  502    0  0.11286414697E+03 -0.19883773486E+02  0.21491416415E+04  0.21521950366E+04  0.00000000000E+00 0. -1.
         22    1    3    3    0    0 -0.51030510388E+02 -0.29910540487E+02  0.61055076078E+02  0.85008680367E+02  0.00000000000E+00 0.  1.
         22    1    3    3    0    0 -0.86969410741E+02  0.60985095938E+02  0.38411220383E+03  0.39852860056E+03  0.00000000000E+00 0.  1.
</event>
<event>
 7    1  0.6152634E-006  0.9171866E+02  0.7818608E-02  0.1370371E+00
          2   -1    0    0  502    0  0.00000000000E+00  0.00000000000E+00  0.14542204810E+04  0.14542204810E+04  0.00000000000E+00 0. -1.
          1   -1    0    0  501    0 -0.00000000000E+00 -0.00000000000E+00 -0.21192390976E+04  0.21192390976E+04  0.00000000000E+00 0. -1.
         25    2    1    2    0    0  0.82620206119E+02  0.53632039278E+02 -0.54585766563E+02  0.16825012094E+03  0.12500401269E+03 0.  0.
          2    1    1    2  501    0 -0.91665390767E+02 -0.54364473082E+01 -0.20063404977E+04  0.20084407612E+04  0.00000000000E+00 0. -1.
          1    1    1    2  502    0  0.90451846480E+01 -0.48195591970E+02  0.13959076476E+04  0.13967686964E+04  0.00000000000E+00 0. -1.
         22    1    3    3    0    0  0.54605596752E+02 -0.33694917935E+02 -0.59464742467E+01  0.64439733451E+02  0.00000000000E+00 0.  1.
         22    1    3    3    0    0  0.28014609367E+02  0.87326957213E+02 -0.48639292316E+02  0.10381038749E+03  0.00000000000E+00 0.  1.
</event>
<event>
 7    1  0.6152634E-006  0.6094069E+02  0.7818608E-02  0.1480126E+00
          2   -1    0    0  502    0  0.00000000000E+00  0.00000000000E+00  0.12155042486E+04  0.12155042486E+04  0.00000000000E+00 0. -1.
          1   -1    0    0  501    0 -0.00000000000E+00 -0.00000000000E+00 -0.10027984716E+03  0.10027984716E+03  0.00000000000E+00 0. -1.
         25    2    1    2    0    0  0.55090333298E+02  0.64490055770E+02  0.81880931230E+03  0.83262684779E+03  0.12499946254E+03 0.  0.
          2    1    1    2  501    0 -0.14078852715E+02 -0.28618022767E+02 -0.88672644883E+02  0.94233981512E+02  0.00000000000E+00 0. -1.
          1    1    1    2  502    0 -0.41011480583E+02 -0.35872033003E+02  0.38508773401E+03  0.38892326644E+03  0.00000000000E+00 0. -1.
         22    1    3    3    0    0 -0.30940990052E+02 -0.31223181195E+01  0.81301240567E+02  0.87045881313E+02  0.00000000000E+00 0.  1.
         22    1    3    3    0    0  0.86031323350E+02  0.67612373890E+02  0.73750807173E+03  0.74558096647E+03  0.00000000000E+00 0.  1.
</event>
<event>
 7    1  0.6152634E-006  0.1935407E+03  0.7818608E-02  0.1249085E+00
          2   -1    0    0  502    0  0.00000000000E+00  0.00000000000E+00  0.91794599051E+03  0.91794599051E+03  0.00000000000E+00 0. -1.
          1   -1    0    0  501    0 -0.00000000000E+00 -0.00000000000E+00 -0.30854846854E+03  0.30854846854E+03  0.00000000000E+00 0. -1.
         25    2    1    2    0    0 -0.53445585176E+02  0.16096746054E+03  0.24101486948E+03  0.32012565113E+03  0.12500124508E+03 0.  0.
          2    1    1    2  501    0 -0.69905693974E+02  0.45929782479E+01 -0.24727904569E+03  0.25701133815E+03  0.00000000000E+00 0. -1.
          1    1    1    2  502    0  0.12335127915E+03 -0.16556043879E+03  0.61566169817E+03  0.64935746978E+03  0.00000000000E+00 0. -1.
         22    1    3    3    0    0 -0.82548122981E+02  0.88687010474E+02  0.19517249574E+03  0.22972131274E+03  0.00000000000E+00 0. -1.
         22    1    3    3    0    0  0.29102537805E+02  0.72280450067E+02  0.45842373736E+02  0.90404338382E+02  0.00000000000E+00 0. -1.
</event>
<event>
 7    1  0.6152634E-006  0.4255724E+02  0.7818608E-02  0.1504672E+00
          2   -1    0    0  502    0  0.00000000000E+00  0.00000000000E+00  0.44593849881E+02  0.44593849881E+02  0.00000000000E+00 0. -1.
          1   -1    0    0  501    0 -0.00000000000E+00 -0.00000000000E+00 -0.54831872304E+03  0.54831872304E+03  0.00000000000E+00 0. -1.
         25    2    1    2    0    0 -0.19957763676E+02  0.34202570819E+02 -0.30858072788E+03  0.33528351642E+03  0.12499937033E+03 0.  0.
          2    1    1    2  501    0 -0.23408378899E+02 -0.30583533604E+02 -0.20856379821E+03  0.21208998716E+03  0.00000000000E+00 0. -1.
          1    1    1    2  502    0  0.43366142575E+02 -0.36190372149E+01  0.13419652924E+02  0.45539069345E+02  0.00000000000E+00 0. -1.
         22    1    3    3    0    0 -0.72190789139E+02  0.30718053954E+02 -0.17349289627E+03  0.19040717930E+03  0.00000000000E+00 0.  1.
         22    1    3    3    0    0  0.52233025462E+02  0.34845168642E+01 -0.13508783161E+03  0.14487633712E+03  0.00000000000E+00 0.  1.
</event>
<event>
 7    1  0.6152634E-006  0.9429706E+02  0.7818608E-02  0.1357478E+00
          2   -1    0    0  502    0  0.00000000000E+00  0.00000000000E+00  0.11458841897E+04  0.11458841897E+04  0.00000000000E+00 0. -1.
          1   -1    0    0  501    0 -0.00000000000E+00 -0.00000000000E+00 -0.98458662003E+02  0.98458662003E+02  0.00000000000E+00 0. -1.
         25    2    1    2    0    0 -0.34309180888E+02 -0.43923684564E+02  0.10190294563E+03  0.17063388967E+03  0.12500121607E+03 0.  0.
          2    1    1    2  501    0  0.51667733181E+02  0.94127769989E+02 -0.17870181459E+02  0.10885281402E+03  0.00000000000E+00 0. -1.
          1    1    1    2  502    0 -0.17358552293E+02 -0.50204085425E+02  0.96339276350E+03  0.96485614798E+03  0.00000000000E+00 0. -1.
         22    1    3    3    0    0 -0.12708974458E+02  0.24538409694E+02 -0.16487041641E+02  0.32178783758E+02  0.00000000000E+00 0.  1.
         22    1    3    3    0    0 -0.21600206430E+02 -0.68462094259E+02  0.11838998727E+03  0.13845510591E+03  0.00000000000E+00 0.  1.
</event>
<event>
 7    1  0.6152634E-006  0.3525196E+02  0.7818608E-02  0.1563161E+00
          2   -1    0    0  502    0  0.00000000000E+00  0.00000000000E+00  0.19714142742E+04  0.19714142742E+04  0.00000000000E+00 0. -1.
          1   -1    0    0  501    0 -0.00000000000E+00 -0.00000000000E+00 -0.20612197903E+03  0.20612197903E+03  0.00000000000E+00 0. -1.
         25    2    1    2    0    0 -0.18752408838E+01 -0.37530752562E+02  0.87267934546E+03  0.88238657897E+03  0.12499904331E+03 0.  0.
          2    1    1    2  501    0 -0.26440874969E+02  0.23346247005E+02 -0.19949163455E+03  0.20258598020E+03  0.00000000000E+00 0. -1.
          1    1    1    2  502    0  0.28316115852E+02  0.14184505558E+02  0.10921045842E+04  0.10925636940E+04  0.00000000000E+00 0. -1.
         22    1    3    3    0    0  0.26021763478E+02 -0.76465942771E+02  0.61640698510E+03  0.62167655888E+03  0.00000000000E+00 0. -1.
         22    1    3    3    0    0 -0.27897004362E+02  0.38935190209E+02  0.25627236036E+03  0.26071002009E+03  0.00000000000E+00 0. -1.
</event>
<event>
 7    1  0.6152634E-006  0.4106023E+02  0.7818608E-02  0.1589940E+00
          2   -1    0    0  502    0  0.00000000000E+00  0.00000000000E+00  0.53791168924E+03  0.53791168924E+03  0.00000000000E+00 0. -1.
          1   -1    0    0  501    0 -0.00000000000E+00 -0.00000000000E+00 -0.51616381853E+03  0.51616381853E+03  0.00000000000E+00 0. -1.
         25    2    1    2    0    0  0.55950597731E+02  0.24519609759E+02 -0.21989362766E+03  0.26021094952E+03  0.12499940045E+03 0.  0.
          2    1    1    2  501    0 -0.15672188916E+02 -0.16873824508E+02 -0.27481758002E+03  0.27578079293E+03  0.00000000000E+00 0. -1.
          1    1    1    2  502    0 -0.40278408815E+02 -0.76457852516E+01  0.51645907839E+03  0.51808376533E+03  0.00000000000E+00 0. -1.
         22    1    3    3    0    0  0.49960305630E+02  0.19379466830E+02 -0.15665209574E+02  0.55830051623E+02  0.00000000000E+00 0. -1.
         22    1    3    3    0    0  0.59902921007E+01  0.51401429300E+01 -0.20422841809E+03  0.20438089789E+03  0.00000000000E+00 0. -1.
</event>
<event>
 7    1  0.6152634E-006  0.3449301E+03  0.7818608E-02  0.1125783E+00
          2   -1    0    0  502    0  0.00000000000E+00  0.00000000000E+00  0.13303853453E+04  0.13303853453E+04  0.00000000000E+00 0. -1.
          1   -1    0    0  501    0 -0.00000000000E+00 -0.00000000000E+00 -0.16757923029E+04  0.16757923029E+04  0.00000000000E+00 0. -1.
         25    2    1    2    0    0  0.29530392160E+03  0.15783763795E+01  0.50898144564E+02  0.32468847834E+03  0.12500035786E+03 0.  0.
          2    1    1    2  501    0 -0.31740015910E+03 -0.15499205123E+03 -0.15132060289E+04  0.15538847714E+04  0.00000000000E+00 0. -1.
          1    1    1    2  502    0  0.22096237503E+02  0.15341367485E+03  0.11169009267E+04  0.11276043985E+04  0.00000000000E+00 0. -1.
         22    1    3    3    0    0  0.95605572155E+02 -0.56079268566E+02  0.62936221002E+00  0.11084090349E+03  0.00000000000E+00 0.  1.
         22    1    3    3    0    0  0.19969834944E+03  0.57657644946E+02  0.50268782354E+02  0.21384757485E+03  0.00000000000E+00 0.  1.
</event>
<event>
 7    1  0.6152634E-006  0.8338018E+02  0.7818608E-02  0.1409766E+00
          2   -1    0    0  502    0  0.00000000000E+00  0.00000000000E+00  0.19311421241E+04  0.19311421241E+04  0.00000000000E+00 0. -1.
          1   -1    0    0  501    0 -0.00000000000E+00 -0.00000000000E+00 -0.33147098373E+03  0.33147098373E+03  0.00000000000E+00 0. -1.
         25    2    1    2    0    0  0.81816744715E+02  0.87632338591E+02  0.36954012200E+03  0.40811520683E+03  0.12499885520E+03 0.  0.
          2    1    1    2  501    0 -0.48041373568E+02 -0.67533526512E+02 -0.30642714770E+03  0.31743715540E+03  0.00000000000E+00 0. -1.
          1    1    1    2  502    0 -0.33775371146E+02 -0.20098812078E+02  0.15365581661E+04  0.15370607456E+04  0.00000000000E+00 0. -1.
         22    1    3    3    0    0  0.43771017916E+02  0.11372955153E+03  0.30776713343E+03  0.33101498655E+03  0.00000000000E+00 0. -1.
         22    1    3    3    0    0  0.38045726799E+02 -0.26097212944E+02  0.61772988564E+02  0.77100220280E+02  0.00000000000E+00 0. -1.
</event>
<event>
 7    1  0.6152634E-006  0.5031811E+02  0.7818608E-02  0.1446610E+00
          2   -1    0    0  502    0  0.00000000000E+00  0.00000000000E+00  0.40101048303E+03  0.40101048303E+03  0.00000000000E+00 0. -1.
          1   -1    0    0  501    0 -0.00000000000E+00 -0.00000000000E+00 -0.21018477889E+03  0.21018477889E+03  0.00000000000E+00 0. -1.
         25    2    1    2    0    0  0.27658521920E+02  0.56347033712E+02 -0.11009455683E+03  0.17800403722E+03  0.12499857511E+03 0.  0.
          2    1    1    2  501    0 -0.50111774020E+02 -0.12547692369E+02 -0.54084056810E+02  0.74791173813E+02  0.00000000000E+00 0. -1.
          1    1    1    2  502    0  0.22453252100E+02 -0.43799341344E+02  0.35500431778E+03  0.35840005089E+03  0.00000000000E+00 0. -1.
         22    1    3    3    0    0  0.70177097751E+02  0.40641900795E+02 -0.10458687601E+03  0.13234426237E+03  0.00000000000E+00 0. -1.
         22    1    3    3    0    0 -0.42518575831E+02  0.15705132918E+02 -0.55076808165E+01  0.45659774842E+02  0.00000000000E+00 0. -1.
</event>
<event>
 7    1  0.6152634E-006  0.2699341E+03  0.7818608E-02  0.1316568E+00
          2   -1    0    0  502    0  0.00000000000E+00  0.00000000000E+00  0.16956243780E+04  0.16956243780E+04  0.00000000000E+00 0. -1.
          1   -1    0    0  501    0 -0.00000000000E+00 -0.00000000000E+00 -0.18946576301E+04  0.18946576301E+04  0.00000000000E+00 0. -1.
         25    2    1    2    0    0  0.16444263412E+03 -0.23733398554E+03 -0.21896991241E+03  0.38332668569E+03  0.12499089891E+03 0.  0.
          2    1    1    2  501    0  0.28305531348E+01  0.26342376552E+02 -0.15821642778E+04  0.15823860890E+04  0.00000000000E+00 0. -1.
          1    1    1    2  502    0 -0.16727318726E+03  0.21099160899E+03  0.16021009380E+04  0.16245692333E+04  0.00000000000E+00 0. -1.
         22    1    3    3    0    0  0.17014374675E+03 -0.21124796596E+03 -0.22881534860E+03  0.35486766750E+03  0.00000000000E+00 0. -1.
         22    1    3    3    0    0 -0.57011126321E+01 -0.26086019579E+02  0.98454361860E+01  0.28459018191E+02  0.00000000000E+00 0. -1.
</event>
<event>
 7    1  0.6152634E-006  0.7088278E+02  0.7818608E-02  0.1487039E+00
          2   -1    0    0  502    0  0.00000000000E+00  0.00000000000E+00  0.12280369061E+04  0.12280369061E+04  0.00000000000E+00 0. -1.
          1   -1    0    0  501    0 -0.00000000000E+00 -0.00000000000E+00 -0.22537013863E+03  0.22537013863E+03  0.00000000000E+00 0. -1.
         25    2    1    2    0    0 -0.82606736844E+02 -0.50203829828E+02 -0.12476695478E+02  0.15850617652E+03  0.12499697021E+03 0.  0.
          2    1    1    2  501    0  0.22655290193E+02  0.12999166433E+02 -0.13757118868E+03  0.14002882723E+03  0.00000000000E+00 0. -1.
          1    1    1    2  502    0  0.59951446651E+02  0.37204663395E+02  0.11527146517E+04  0.11548720410E+04  0.00000000000E+00 0. -1.
         22    1    3    3    0    0  0.85512440429E+01 -0.17314121528E+02 -0.50759651492E+02  0.54308791172E+02  0.00000000000E+00 0.  1.
         22    1    3    3    0    0 -0.91157980887E+02 -0.32889708301E+02  0.38282956015E+02  0.10419738534E+03  0.00000000000E+00 0.  1.
</event>
<event>
 7    1  0.6152634E-006  0.1634742E+03  0.7818608E-02  0.1227928E+00
          2   -1    0    0  502    0  0.00000000000E+00  0.00000000000E+00  0.24049603967E+04  0.24049603967E+04  0.00000000000E+00 0. -1.
          1   -1    0    0  501    0 -0.00000000000E+00 -0.00000000000E+00 -0.14721482686E+04  0.14721482686E+04  0.00000000000E+00 0. -1.
         25    2    1    2    0    0  0.11885896322E+03  0.70712845132E+02  0.19238156805E+02  0.18741110928E+03  0.12500023040E+03 0.  0.
          2    1    1    2  501    0  0.45094499521E+02 -0.92465756074E+02 -0.13831779398E+04  0.13869984293E+04  0.00000000000E+00 0. -1.
          1    1    1    2  502    0 -0.16395346274E+03  0.21752910942E+02  0.22967519110E+04  0.23026991267E+04  0.00000000000E+00 0. -1.
         22    1    3    3    0    0  0.12579805839E+03  0.10979119112E+02  0.12152020703E+02  0.12685962383E+03  0.00000000000E+00 0. -1.
         22    1    3    3    0    0 -0.69390951634E+01  0.59733726020E+02  0.70861361018E+01  0.60551485455E+02  0.00000000000E+00 0. -1.
</event>
<event>
 7    1  0.6152634E-006  0.1056206E+03  0.7818608E-02  0.1353672E+00
          2   -1    0    0  502    0  0.00000000000E+00  0.00000000000E+00  0.18042384724E+04  0.18042384724E+04  0.00000000000E+00 0. -1.
          1   -1    0    0  501    0 -0.00000000000E+00 -0.00000000000E+00 -0.62351213976E+03  0.62351213976E+03  0.00000000000E+00 0. -1.
         25    2    1    2    0    0 -0.58582672116E+02 -0.12423816697E+03  0.67138439131E+03  0.69659754983E+03  0.12499637566E+03 0.  0.
          2    1    1    2  501    0 -0.76126298966E+01  0.48381623742E+02 -0.60765627999E+03  0.60962684346E+03  0.00000000000E+00 0. -1.
          1    1    1    2  502    0  0.66195302013E+02  0.75856543224E+02  0.11169982213E+04  0.11215262188E+04  0.00000000000E+00 0. -1.
         22    1    3    3    0    0 -0.28451563010E+01  0.24812393387E+02  0.12696640090E+03  0.12939944643E+03  0.00000000000E+00 0. -1.
         22    1    3    3    0    0 -0.55737515815E+02 -0.14905056035E+03  0.54441799041E+03  0.56719810340E+03  0.00000000000E+00 0. -1.
</event>
<event>
 7    1  0.6152634E-006  0.9507581E+02  0.7818608E-02  0.1330718E+00
          2   -1    0    0  502    0  0.00000000000E+00  0.00000000000E+00  0.22729557662E+04  0.22729557662E+04  0.00000000000E+00 0. -1.
          1   -1    0    0  501    0 -0.00000000000E+00 -0.00000000000E+00 -0.10888806640E+04  0.10888806640E+04  0.00000000000E+00 0. -1.
         25    2    1    2    0    0 -0.24206855530E+02 -0.15803655304E+03  0.28805043580E+02  0.20497708242E+03  0.12499739930E+03 0.  0.
          2    1    1    2  501    0  0.17658927607E+02  0.63941368133E+02 -0.99866217320E+03  0.10008628640E+04  0.00000000000E+00 0. -1.
          1    1    1    2  502    0  0.65479279232E+01  0.94095184907E+02  0.21539322318E+04  0.21559964838E+04  0.00000000000E+00 0. -1.
         22    1    3    3    0    0 -0.53141639459E-01 -0.16982754488E+03  0.42133082254E+02  0.17497598248E+03  0.00000000000E+00 0.  1.
         22    1    3    3    0    0 -0.24153713890E+02  0.11790991837E+02 -0.13328038674E+02  0.30001099948E+02  0.00000000000E+00 0.  1.
</event>
<event>
 7    1  0.6152634E-006  0.1056972E+03  0.7818608E-02  0.1392132E+00
          2   -1    0    0  502    0  0.00000000000E+00  0.00000000000E+00  0.49601561789E+03  0.49601561789E+03  0.00000000000E+00 0. -1.
          1   -1    0    0  501    0 -0.00000000000E+00 -0.00000000000E+00 -0.48773990664E+03  0.48773990664E+03  0.00000000000E+00 0. -1.
         25    2    1    2    0    0 -0.11135322550E+03 -0.74257223253E+02  0.24043280328E+03  0.30223710737E+03  0.12500264053E+03 0.  0.
          2    1    1    2  501    0  0.75735758331E+02  0.72890784510E+02 -0.44931915810E+03  0.46145062292E+03  0.00000000000E+00 0. -1.
          1    1    1    2  502    0  0.35617467171E+02  0.13664387437E+01  0.21716206607E+03  0.22006779424E+03  0.00000000000E+00 0. -1.
         22    1    3    3    0    0 -0.39818112679E+02 -0.32478133660E+02  0.38021217676E+01  0.51524434915E+02  0.00000000000E+00 0.  1.
         22    1    3    3    0    0 -0.71535112823E+02 -0.41779089593E+02  0.23663068151E+03  0.25071267245E+03  0.00000000000E+00 0.  1.
</event>
<event>
 7    1  0.6152634E-006  0.1708871E+03  0.7818608E-02  0.1215582E+00
          2   -1    0    0  502    0  0.00000000000E+00  0.00000000000E+00  0.66085632272E+03  0.66085632272E+03  0.00000000000E+00 0. -1.
          1   -1    0    0  501    0 -0.00000000000E+00 -0.00000000000E+00 -0.15390833329E+03  0.15390833329E+03  0.00000000000E+00 0. -1.
         25    2    1    2    0    0  0.86212729695E+02 -0.50930649629E+02  0.17728180773E+02  0.16113552391E+03  0.12499521127E+03 0.  0.
          2    1    1    2  501    0  0.13887503639E+02 -0.11112508589E+03 -0.16526206626E+02  0.11320230995E+03  0.00000000000E+00 0. -1.
          1    1    1    2  502    0 -0.10010023333E+03  0.16205573552E+03  0.50574601528E+03  0.54042682215E+03  0.00000000000E+00 0. -1.
         22    1    3    3    0    0 -0.12575438602E+02  0.29179678046E+02 -0.42682934412E+01  0.32059532058E+02  0.00000000000E+00 0.  1.
         22    1    3    3    0    0  0.98788168297E+02 -0.80110327675E+02  0.21996474214E+02  0.12907599186E+03  0.00000000000E+00 0.  1.
</event>
<event>
 7    1  0.6152634E-006  0.6322334E+02  0.7818608E-02  0.1451455E+00
          2   -1    0    0  502    0  0.00000000000E+00  0.00000000000E+00  0.17446606817E+03  0.17446606817E+03  0.00000000000E+00 0. -1.
          1   -1    0    0  501    0 -0.00000000000E+00 -0.00000000000E+00 -0.25641461321E+04  0.25641461321E+04  0.00000000000E+00 0. -1.
         25    2    1    2    0    0 -0.22902852829E+01 -0.29955874576E+02 -0.11132364008E+03  0.17006006497E+03  0.12499949211E+03 0.  0.
          2    1    1    2  501    0  0.18320560355E+02 -0.33060095482E+02 -0.24160143241E+04  0.24163099609E+04  0.00000000000E+00 0. -1.
          1    1    1    2  502    0 -0.16030275072E+02  0.63015970058E+02  0.13765790019E+03  0.15224217446E+03  0.00000000000E+00 0. -1.
         22    1    3    3    0    0  0.19694094685E+02 -0.91653217616E+01  0.23430397281E+02  0.31950649527E+02  0.00000000000E+00 0.  1.
         22    1    3    3    0    0 -0.21984379968E+02 -0.20790552814E+02 -0.13475403736E+03  0.13810941544E+03  0.00000000000E+00 0.  1.
</event>
<event>
 7    1  0.6152634E-006  0.3088378E+02  0.7818608E-02  0.1590502E+00
          2   -1    0    0  502    0  0.00000000000E+00  0.00000000000E+00  0.11572428877E+03  0.11572428877E+03  0.00000000000E+00 0. -1.
          1   -1    0    0  501    0 -0.00000000000E+00 -0.00000000000E+00 -0.14428518262E+04  0.14428518262E+04  0.00000000000E+00 0. -1.
         25    2    1    2    0    0 -0.32292965620E+02 -0.43680828083E+02 -0.22460923925E+03  0.26271760532E+03  0.12498151631E+03 0.  0.
          2    1    1    2  501    0  0.47288232617E+01  0.30144120065E+02 -0.11965502258E+04  0.11969392101E+04  0.00000000000E+00 0. -1.
          1    1    1    2  502    0  0.27564142358E+02  0.13536708017E+02  0.94031927645E+02  0.98919299556E+02  0.00000000000E+00 0. -1.
         22    1    3    3    0    0 -0.61516694853E+02 -0.64995479061E+02 -0.10605046729E+03  0.13876389176E+03  0.00000000000E+00 0. -1.
         22    1    3    3    0    0  0.29223729233E+02  0.21314650979E+02 -0.11855877196E+03  0.12395371356E+03  0.00000000000E+00 0. -1.
</event>
<event>
 7    1  0.6152634E-006  0.3495956E+02  0.7818608E-02  0.1585545E+00
          2   -1    0    0  502    0  0.00000000000E+00  0.00000000000E+00  0.30419741463E+02  0.30419741463E+02  0.00000000000E+00 0. -1.
          1   -1    0    0  501    0 -0.00000000000E+00 -0.00000000000E+00 -0.55574281686E+03  0.55574281686E+03  0.00000000000E+00 0. -1.
         25    2    1    2    0    0 -0.13768671989E+02 -0.34915198859E+02 -0.31912941022E+03  0.34478732802E+03  0.12500429456E+03 0.  0.
          2    1    1    2  501    0  0.32697682904E+02  0.14576537074E+02 -0.21026796578E+03  0.21329376768E+03  0.00000000000E+00 0. -1.
          1    1    1    2  502    0 -0.18929010915E+02  0.20338661785E+02  0.40743005986E+01  0.28081462618E+02  0.00000000000E+00 0. -1.
         22    1    3    3    0    0  0.51249227565E+02 -0.38910672016E+02 -0.18021369913E+03  0.19135699903E+03  0.00000000000E+00 0. -1.
         22    1    3    3    0    0 -0.65017899554E+02  0.39954731574E+01 -0.13891571109E+03  0.15343032900E+03  0.00000000000E+00 0. -1.
</event>
<event>
 7    1  0.6152634E-006  0.1473914E+03  0.7818608E-02  0.1237931E+00
          2   -1    0    0  502    0  0.00000000000E+00  0.00000000000E+00  0.18120533248E+04  0.18120533248E+04  0.00000000000E+00 0. -1.
          1   -1    0    0  501    0 -0.00000000000E+00 -0.00000000000E+00 -0.16073009652E+04  0.16073009652E+04  0.00000000000E+00 0. -1.
         25    2    1    2    0    0 -0.11703981273E+02  0.55023042417E+02  0.32337017078E+02  0.14083680690E+03  0.12499922051E+03 0.  0.
          2    1    1    2  501    0 -0.72358110543E+02  0.73241242162E+02 -0.15479301114E+04  0.15513502524E+04  0.00000000000E+00 0. -1.
          1    1    1    2  502    0  0.84062091816E+02 -0.12826428458E+03  0.17203454540E+04  0.17271672307E+04  0.00000000000E+00 0. -1.
         22    1    3    3    0    0  0.38309575737E+02  0.74166606936E+02  0.17924381443E+02  0.85379111190E+02  0.00000000000E+00 0.  1.
         22    1    3    3    0    0 -0.50013557009E+02 -0.19143564519E+02  0.14412635635E+02  0.55457695707E+02  0.00000000000E+00 0.  1.
</event>
<event>
 7    1  0.6152634E-006  0.8114597E+02  0.7818608E-02  0.1481391E+00
          2   -1    0    0  502    0  0.00000000000E+00  0.00000000000E+00  0.24965287493E+04  0.24965287493E+04  0.00000000000E+00 0. -1.
          1   -1    0    0  501    0 -0.00000000000E+00 -0.00000000000E+00 -0.17625112405E+04  0.17625112405E+04  0.00000000000E+00 0. -1.
         25    2    1    2    0    0  0.23538269051E+02 -0.53107360449E+02  0.87124214124E+03  0.88207804676E+03  0.12499748026E+03 0.  0.
          2    1    1    2  501    0 -0.38778877581E+02  0.71308496738E+02 -0.17560687716E+04  0.17579437515E+04  0.00000000000E+00 0. -1.
          1    1    1    2  502    0  0.15240608531E+02 -0.18201136289E+02  0.16188441391E+04  0.16190181914E+04  0.00000000000E+00 0. -1.
         22    1    3    3    0    0 -0.35774653355E+02 -0.54298537662E+02  0.26176137724E+03  0.26971684343E+03  0.00000000000E+00 0. -1.
         22    1    3    3    0    0  0.59312922406E+02  0.11911772129E+01  0.60948076399E+03  0.61236120333E+03  0.00000000000E+00 0. -1.
</event>
<event>
 7    1  0.6152634E-006  0.4335113E+02  0.7818608E-02  0.1550094E+00
          2   -1    0    0  502    0  0.00000000000E+00  0.00000000000E+00  0.11423871242E+04  0.11423871242E+04  0.00000000000E+00 0. -1.
          1   -1    0    0  501    0 -0.00000000000E+00 -0.00000000000E+00 -0.57416903558E+03  0.57416903558E+03  0.00000000000E+00 0. -1.
         25    2    1    2    0    0 -0.14501028807E+02  0.21608563164E+02 -0.34735701270E+03  0.37007993316E+03  0.12500021126E+03 0.  0.
          2    1    1    2  501    0  0.47920484024E+01 -0.47858136420E+02 -0.21259051223E+03  0.21796350805E+03  0.00000000000E+00 0. -1.
          1    1    1    2  502    0  0.97089804047E+01  0.26249573256E+02  0.11281656136E+04  0.11285127186E+04  0.00000000000E+00 0. -1.
         22    1    3    3    0    0 -0.20253992711E+02  0.13147096307E+01 -0.34837127609E+03  0.34896203044E+03  0.00000000000E+00 0. -1.
         22    1    3    3    0    0  0.57529639040E+01  0.20293853534E+02  0.10142633938E+01  0.21117902717E+02  0.00000000000E+00 0. -1.
</event>
<event>
 7    1  0.6152634E-006  0.7684142E+02  0.7818608E-02  0.1366236E+00
          2   -1    0    0  502    0  0.00000000000E+00  0.00000000000E+00  0.10048501897E+04  0.10048501897E+04  0.00000000000E+00 0. -1.
          1   -1    0    0  501    0 -0.00000000000E+00 -0.00000000000E+00 -0.15600846323E+03  0.15600846323E+03  0.00000000000E+00 0. -1.
         25    2    1    2    0    0  0.59084897934E+02  0.10458479248E+03  0.59737579792E+03  0.62202229550E+03  0.12499955269E+03 0.  0.
          2    1    1    2  501    0 -0.62267731574E+02 -0.44094030421E+02 -0.13100178698E+03  0.15160152409E+03  0.00000000000E+00 0. -1.
          1    1    1    2  502    0  0.31828336395E+01 -0.60490762063E+02  0.38246771550E+03  0.38723483331E+03  0.00000000000E+00 0. -1.
         22    1    3    3    0    0  0.47771014351E+02  0.81125863582E+02  0.17392270782E+03  0.19776901641E+03  0.00000000000E+00 0. -1.
         22    1    3    3    0    0  0.11313883583E+02  0.23458928901E+02  0.42345309010E+03  0.42425327909E+03  0.00000000000E+00 0. -1.
</event>
<event>
 7    1  0.6152634E-006  0.1807321E+03  0.7818608E-02  0.1396347E+00
          2   -1    0    0  502    0  0.00000000000E+00  0.00000000000E+00  0.63654326861E+03  0.63654326861E+03  0.00000000000E+00 0. -1.
          1   -1    0    0  501    0 -0.00000000000E+00 -0.00000000000E+00 -0.29145252157E+04  0.29145252157E+04  0.00000000000E+00 0. -1.
         25    2    1    2    0    0  0.12297073260E+03 -0.10353617778E+03 -0.14820251554E+04  0.14959492405E+04  0.12499611077E+03 0.  0.
          2    1    1    2  501    0  0.15222533431E+02 -0.13210531326E+02 -0.14124690222E+04  0.14126128211E+04  0.00000000000E+00 0. -1.
          1    1    1    2  502    0 -0.13819326603E+03  0.11674670911E+03  0.61651223051E+03  0.64250642271E+03  0.00000000000E+00 0. -1.
         22    1    3    3    0    0  0.70193741040E+02 -0.40799042078E+02 -0.11861590014E+04  0.11889343546E+04  0.00000000000E+00 0.  1.
         22    1    3    3    0    0  0.52776991561E+02 -0.62737135706E+02 -0.29586615406E+03  0.30701488588E+03  0.00000000000E+00 0.  1.
</event>
<event>
 7    1  0.6152634E-006  0.8446244E+02  0.7818608E-02  0.1488873E+00
          2   -1    0    0  502    0  0.00000000000E+00  0.00000000000E+00  0.19581991450E+04  0.19581991450E+04  0.00000000000E+00 0. -1.
          1   -1    0    0  501    0 -0.00000000000E+00 -0.00000000000E+00 -0.85363569317E+02  0.85363569317E+02  0.00000000000E+00 0. -1.
         25    2    1    2    0    0  0.23426583025E+02 -0.59363912254E+02  0.14484382314E+03  0.20168570221E+03  0.12499804201E+03 0.  0.
          2    1    1    2  501    0  0.42499644721E+01 -0.21219892461E+02 -0.53830979488E+02  0.58018276316E+02  0.00000000000E+00 0. -1.
          1    1    1    2  502    0 -0.27676547497E+02  0.80583804715E+02  0.17818227320E+04  0.17838587358E+04  0.00000000000E+00 0. -1.
         22    1    3    3    0    0 -0.45692381489E+02 -0.54310679496E+02  0.76445561757E+02  0.10431379365E+03  0.00000000000E+00 0. -1.
         22    1    3    3    0    0  0.69118964514E+02 -0.50532327577E+01  0.68398261380E+02  0.97371908560E+02  0.00000000000E+00 0. -1.
</event>
<event>
 7    1  0.6152634E-006  0.4441779E+02  0.7818608E-02  0.1539907E+00
          2   -1    0    0  502    0  0.00000000000E+00  0.00000000000E+00  0.49596458803E+04  0.49596458803E+04  0.00000000000E+00 0. -1.
          1   -1    0    0  501    0 -0.00000000000E+00 -0.00000000000E+00 -0.54236417491E+02  0.54236417491E+02  0.00000000000E+00 0. -1.
         25    2    1    2    0    0 -0.50238683684E+02  0.15604608393E+02  0.16739244159E+04  0.16794093164E+04  0.12500109012E+03 0.  0.
          2    1    1    2  501    0  0.22237991710E+02  0.18885734543E+02 -0.47198854043E+02  0.55488116453E+02  0.00000000000E+00 0. -1.
          1    1    1    2  502    0  0.28000691973E+02 -0.34490342936E+02  0.32786839009E+04  0.32789848650E+04  0.00000000000E+00 0. -1.
         22    1    3    3    0    0 -0.82885261949E+02 -0.20606061377E+02  0.11789153807E+04  0.11820050978E+04  0.00000000000E+00 0.  1.
         22    1    3    3    0    0  0.32646578265E+02  0.36210669770E+02  0.49500903524E+03  0.49740421857E+03  0.00000000000E+00 0.  1.
</event>
<event>
 7    1  0.6152634E-006  0.5071326E+02  0.7818608E-02  0.1521371E+00
          2   -1    0    0  502    0  0.00000000000E+00  0.00000000000E+00  0.47159362649E+03  0.47159362649E+03  0.00000000000E+00 0. -1.
          1   -1    0    0  501    0 -0.00000000000E+00 -0.00000000000E+00 -0.15137278607E+04  0.15137278607E+04  0.00000000000E+00 0. -1.
         25    2    1    2    0    0 -0.30436672812E+02 -0.71389113461E+02  0.49225609387E+02  0.15515046858E+03  0.12500284280E+03 0.  0.
          2    1    1    2  501    0  0.16964269673E+02  0.23365374665E+02 -0.14589382877E+04  0.14592239905E+04  0.00000000000E+00 0. -1.
          1    1    1    2  502    0  0.13472403139E+02  0.48023738796E+02  0.36757844407E+03  0.37094702813E+03  0.00000000000E+00 0. -1.
         22    1    3    3    0    0 -0.66685022163E+02 -0.44801188156E+02  0.69131121792E+02  0.10598655878E+03  0.00000000000E+00 0. -1.
         22    1    3    3    0    0  0.36248349351E+02 -0.26587925305E+02 -0.19905512405E+02  0.49163909800E+02  0.00000000000E+00 0. -1.
</event>
<event>
 7    1  0.6152634E-006  0.1072278E+03  0.7818608E-02  0.1428794E+00
          2   -1    0    0  502    0  0.00000000000E+00  0.00000000000E+00  0.27776932528E+04  0.27776932528E+04  0.00000000000E+00 0. -1.
          1   -1    0    0  501    0 -0.00000000000E+00 -0.00000000000E+00 -0.28841256064E+02  0.28841256064E+02  0.00000000000E+00 0. -1.
         25    2    1    2    0    0 -0.10287761581E+03 -0.72784735342E+02  0.44089879841E+03  0.47528787387E+03  0.12500156427E+03 0.  0.
          2    1    1    2  501    0  0.82343787327E+01  0.25080316419E+02  0.62795830430E+01  0.27134119259E+02  0.00000000000E+00 0. -1.
          1    1    1    2  502    0  0.94643237074E+02  0.47704418924E+02  0.23016736152E+04  0.23041125157E+04  0.00000000000E+00 0. -1.
         22    1    3    3    0    0 -0.10242843399E+02  0.27418737394E+02  0.16397436067E+03  0.16656618492E+03  0.00000000000E+00 0. -1.
         22    1    3    3    0    0 -0.92634772408E+02 -0.10020347274E+03  0.27692443775E+03  0.30872168895E+03  0.00000000000E+00 0. -1.
</event>
<event>
 7    1  0.6152634E-006  0.4181012E+03  0.7818608E-02  0.1212129E+00
          2   -1    0    0  502    0  0.00000000000E+00  0.00000000000E+00  0.34055395952E+04  0.34055395952E+04  0.00000000000E+00 0. -1.
          1   -1    0    0  501    0 -0.00000000000E+00 -0.00000000000E+00 -0.35824738737E+03  0.35824738737E+03  0.00000000000E+00 0. -1.
         25    2    1    2    0    0  0.39200800471E+03 -0.12796523201E+03  0.64234546216E+03  0.77347979377E+03  0.12497168580E+03 0.  0.
          2    1    1    2  501    0 -0.38186385040E+03  0.17434942734E+03 -0.14182435785E+03  0.44309352459E+03  0.00000000000E+00 0. -1.
          1    1    1    2  502    0 -0.10144154315E+02 -0.46384195328E+02  0.25467711035E+04  0.25472136642E+04  0.00000000000E+00 0. -1.
         22    1    3    3    0    0  0.28391553406E+02  0.10737609573E+02  0.10961127735E+03  0.11373657585E+03  0.00000000000E+00 0. -1.
         22    1    3    3    0    0  0.36361645131E+03 -0.13870284158E+03  0.53273418481E+03  0.65974321792E+03  0.00000000000E+00 0. -1.
</event>
<event>
 7    1  0.6152634E-006  0.1913772E+03  0.7818608E-02  0.1225074E+00
          2   -1    0    0  502    0  0.00000000000E+00  0.00000000000E+00  0.20367986242E+04  0.20367986242E+04  0.00000000000E+00 0. -1.
          1   -1    0    0  501    0 -0.00000000000E+00 -0.00000000000E+00 -0.90132042249E+02  0.90132042249E+02  0.00000000000E+00 0. -1.
         25    2    1    2    0    0 -0.18506050437E+03 -0.49932271029E+01  0.91452569970E+03  0.94141138001E+03  0.12500323358E+03 0.  0.
          2    1    1    2  501    0  0.17524564192E+03 -0.84992786164E+02  0.52520403505E+02  0.20172555985E+03  0.00000000000E+00 0. -1.
          1    1    1    2  502    0  0.98148624504E+01  0.89986013267E+02  0.97962047879E+03  0.98379372664E+03  0.00000000000E+00 0. -1.
         22    1    3    3    0    0 -0.17687101260E+03  0.36896734262E+02  0.73510072955E+03  0.75697939647E+03  0.00000000000E+00 0. -1.
         22    1    3    3    0    0 -0.81894917701E+01 -0.41889961365E+02  0.17942497015E+03  0.18443198354E+03  0.00000000000E+00 0. -1.
</event>
<event>
 7    1  0.6152634E-006  0.5004353E+02  0.7818608E-02  0.1525097E+00
          2   -1    0    0  502    0  0.00000000000E+00  0.00000000000E+00  0.19412452322E+03  0.19412452322E+03  0.00000000000E+00 0. -1.
          1   -1    0    0  501    0 -0.00000000000E+00 -0.00000000000E+00 -0.17483988697E+04  0.17483988697E+04  0.00000000000E+00 0. -1.
         25    2    1    2    0    0  0.61404103092E+02 -0.48896360321E+02 -0.10037948885E+04  0.10145890836E+04  0.12500205019E+03 0.  0.
          2    1    1    2  501    0 -0.22346594377E+02  0.17759003305E+02 -0.73562017760E+03  0.73617375542E+03  0.00000000000E+00 0. -1.
          1    1    1    2  502    0 -0.39057508715E+02  0.31137357016E+02  0.18514071957E+03  0.19176055390E+03  0.00000000000E+00 0. -1.
         22    1    3    3    0    0  0.89573106116E+02 -0.37884590942E+02 -0.92645386872E+03  0.93154460679E+03  0.00000000000E+00 0.  1.
         22    1    3    3    0    0 -0.28169003024E+02 -0.11011769379E+02 -0.77341019765E+02  0.83044476846E+02  0.00000000000E+00 0.  1.
</event>
<event>
 7    1  0.6152634E-006  0.5330190E+02  0.7818608E-02  0.1459246E+00
          2   -1    0    0  502    0  0.00000000000E+00  0.00000000000E+00  0.17272582673E+04  0.17272582673E+04  0.00000000000E+00 0. -1.
          1   -1    0    0  501    0 -0.00000000000E+00 -0.00000000000E+00 -0.10368029271E+03  0.10368029271E+03  0.00000000000E+00 0. -1.
         25    2    1    2    0    0 -0.57094274031E+01  0.32602728570E+02  0.35994295709E+03  0.38246467378E+03  0.12499903545E+03 0.  0.
          2    1    1    2  501    0 -0.35934351839E+02 -0.40304913732E+02 -0.84171041921E+02  0.10000264002E+03  0.00000000000E+00 0. -1.
          1    1    1    2  502    0  0.41643779242E+02  0.77021851624E+01  0.13478060595E+04  0.13484712462E+04  0.00000000000E+00 0. -1.
         22    1    3    3    0    0 -0.26002566881E+02 -0.49185754659E+01  0.75783527824E+01  0.27527391811E+02  0.00000000000E+00 0. -1.
         22    1    3    3    0    0  0.20293139478E+02  0.37521304036E+02  0.35236460430E+03  0.35493728197E+03  0.00000000000E+00 0. -1.
</event>
<event>
 7    1  0.6152634E-006  0.1078516E+03  0.7818608E-02  0.1308328E+00
          2   -1    0    0  502    0  0.00000000000E+00  0.00000000000E+00  0.48399696723E+02  0.48399696723E+02  0.00000000000E+00 0. -1.
          1   -1    0    0  501    0 -0.00000000000E+00 -0.00000000000E+00 -0.12069109014E+04  0.12069109014E+04  0.00000000000E+00 0. -1.
         25    2    1    2    0    0  0.59005872139E+02  0.58945937856E+02 -0.15544056965E+03  0.21620315220E+03  0.12500286312E+03 0.  0.
          2    1    1    2  501    0 -0.12319976189E+03 -0.27601473304E+02 -0.22693585790E+03  0.25969194492E+03  0.00000000000E+00 0. -1.
          1    1    1    2  502    0  0.64193889751E+02 -0.31344464552E+02 -0.77613477716E+03  0.77941550103E+03  0.00000000000E+00 0. -1.
         22    1    3    3    0    0  0.72202352998E+02  0.24982785744E+02 -0.16206283439E+03  0.17916942164E+03  0.00000000000E+00 0.  1.
         22    1    3    3    0    0 -0.13196480860E+02  0.33963152112E+02  0.66222647360E+01  0.37033730553E+02  0.00000000000E+00 0.  1.
</event>
<event>
 7    1  0.6152634E-006  0.1194129E+03  0.7818608E-02  0.1344688E+00
          2   -1    0    0  502    0  0.00000000000E+00  0.00000000000E+00  0.26846769563E+03  0.26846769563E+03  0.00000000000E+00 0. -1.
          1   -1    0    0  501    0 -0.00000000000E+00 -0.00000000000E+00 -0.15722579163E+04  0.15722579163E+04  0.00000000000E+00 0. -1.
         25    2    1    2    0    0 -0.65965296844E+02  0.94171211192E+02  0.20400447148E+02  0.17105381992E+03  0.12499437451E+03 0.  0.
          2    1    1    2  501    0  0.10142108859E+03 -0.63661425154E+02 -0.14913201934E+04  0.14961199596E+04  0.00000000000E+00 0. -1.
          1    1    1    2  502    0 -0.35455791744E+02 -0.30509786038E+02  0.16712952558E+03  0.17355183241E+03  0.00000000000E+00 0. -1.
         22    1    3    3    0    0 -0.36909915606E+02  0.12014972975E+03 -0.27497835315E+01  0.12572136150E+03  0.00000000000E+00 0. -1.
         22    1    3    3    0    0 -0.29055381238E+02 -0.25978518558E+02  0.23150230680E+02  0.45332458414E+02  0.00000000000E+00 0. -1.
</event>
<event>
 7    1  0.6152634E-006  0.1215520E+03  0.7818608E-02  0.1248352E+00
          2   -1    0    0  502    0  0.00000000000E+00  0.00000000000E+00  0.12884990253E+04  0.12884990253E+04  0.00000000000E+00 0. -1.
          1   -1    0    0  501    0 -0.00000000000E+00 -0.00000000000E+00 -0.31349943620E+03  0.31349943620E+03  0.00000000000E+00 0. -1.
         25    2    1    2    0    0 -0.92124057323E+02  0.13078495139E+03  0.27843600350E+03  0.34459232334E+03  0.12500286321E+03 0.  0.
          2    1    1    2  501    0 -0.19740877612E+02 -0.12016897609E+03 -0.26376773415E+03  0.29052315336E+03  0.00000000000E+00 0. -1.
          1    1    1    2  502    0  0.11186493494E+03 -0.10615975303E+02  0.96033131977E+03  0.96688298482E+03  0.00000000000E+00 0. -1.
         22    1    3    3    0    0 -0.97683237825E+02  0.14899844614E+03  0.21978647601E+03  0.28292869586E+03  0.00000000000E+00 0.  1.
         22    1    3    3    0    0  0.55591805020E+01 -0.18213494749E+02  0.58649527488E+02  0.61663627475E+02  0.00000000000E+00 0.  1.
</event>
<event>
 7    1  0.6152634E-006  0.1004720E+03  0.7818608E-02  0.1304577E+00
          2   -1    0    0  502    0  0.00000000000E+00  0.00000000000E+00  0.36125433459E+02  0.36125433459E+02  0.00000000000E+00 0. -1.
          1   -1    0    0  501    0 -0.00000000000E+00 -0.00000000000E+00 -0.19406997495E+04  0.19406997495E+04  0.00000000000E+00 0. -1.
         25    2    1    2    0    0  0.21554900630E+02  0.21604295248E+02 -0.24414505323E+03  0.27597482704E+03  0.12499575523E+03 0.  0.
          2    1    1    2  501    0 -0.92624860560E+02 -0.56906768357E+02 -0.15930322577E+04  0.15967371478E+04  0.00000000000E+00 0. -1.
          1    1    1    2  502    0  0.71069959930E+02  0.35302473109E+02 -0.67397005161E+02  0.10411320818E+03  0.00000000000E+00 0. -1.
         22    1    3    3    0    0  0.67785875312E+02  0.38561262124E+02 -0.16909204596E+03  0.18620960189E+03  0.00000000000E+00 0. -1.
         22    1    3    3    0    0 -0.46230974682E+02 -0.16956966876E+02 -0.75053007276E+02  0.89765225153E+02  0.00000000000E+00 0. -1.
</event>
<event>
 7    1  0.6152634E-006  0.4209388E+03  0.7818608E-02  0.1282802E+00
          2   -1    0    0  502    0  0.00000000000E+00  0.00000000000E+00  0.16015960300E+04  0.16015960300E+04  0.00000000000E+00 0. -1.
          1   -1    0    0  501    0 -0.00000000000E+00 -0.00000000000E+00 -0.15085892049E+03  0.15085892049E+03  0.00000000000E+00 0. -1.
         25    2    1    2    0    0  0.20963986622E+03 -0.37172343960E+03  0.54027964816E+03  0.69975455982E+03  0.12500862655E+03 0.  0.
          2    1    1    2  501    0 -0.22124737246E+03  0.35163824466E+03  0.53905133248E+03  0.68057049156E+03  0.00000000000E+00 0. -1.
          1    1    1    2  502    0  0.11607506242E+02  0.20085194936E+02  0.37140612888E+03  0.37212989913E+03  0.00000000000E+00 0. -1.
         22    1    3    3    0    0  0.41622987145E+02 -0.72372845464E+02  0.19850433009E+03  0.21534686179E+03  0.00000000000E+00 0. -1.
         22    1    3    3    0    0  0.16801687908E+03 -0.29935059414E+03  0.34177531807E+03  0.48440769803E+03  0.00000000000E+00 0. -1.
</event>
<event>
 7    1  0.6152634E-006  0.4649828E+02  0.7818608E-02  0.1520190E+00
          2   -1    0    0  502    0  0.00000000000E+00  0.00000000000E+00  0.14254872558E+04  0.14254872558E+04  0.00000000000E+00 0. -1.
          1   -1    0    0  501    0 -0.00000000000E+00 -0.00000000000E+00 -0.50366661064E+02  0.50366661064E+02  0.00000000000E+00 0. -1.
         25    2    1    2    0    0  0.15542491527E+02 -0.36902943159E+01  0.65966676216E+03  0.67159566757E+03  0.12500126513E+03 0.  0.
          2    1    1    2  501    0 -0.42113633827E+02  0.21053393496E+02 -0.31488299413E+02  0.56642003246E+02  0.00000000000E+00 0. -1.
          1    1    1    2  502    0  0.26571142301E+02 -0.17363099180E+02  0.74694213195E+03  0.74761624601E+03  0.00000000000E+00 0. -1.
         22    1    3    3    0    0  0.16623095788E+02  0.58656553603E+02  0.25720141864E+03  0.26432837219E+03  0.00000000000E+00 0.  1.
         22    1    3    3    0    0 -0.10806042618E+01 -0.62346847918E+02  0.40246534352E+03  0.40726729538E+03  0.00000000000E+00 0.  1.
</event>
<event>
 7    1  0.6152634E-006  0.3062640E+02  0.7818608E-02  0.1604054E+00
          2   -1    0    0  502    0  0.00000000000E+00  0.00000000000E+00  0.20523155749E+03  0.20523155749E+03  0.00000000000E+00 0. -1.
          1   -1    0    0  501    0 -0.00000000000E+00 -0.00000000000E+00 -0.31703957829E+03  0.31703957829E+03  0.00000000000E+00 0. -1.
         25    2    1    2    0    0  0.19302867211E+02 -0.18837781786E+02 -0.12965931272E+03  0.18210512525E+03  0.12499310606E+03 0.  0.
          2    1    1    2  501    0 -0.26054917081E+02 -0.11178733974E+02 -0.15856869078E+03  0.16108337124E+03  0.00000000000E+00 0. -1.
          1    1    1    2  502    0  0.67520498696E+01  0.30016515761E+02  0.17641998270E+03  0.17908263928E+03  0.00000000000E+00 0. -1.
         22    1    3    3    0    0  0.10851950579E+02 -0.46766037011E+02  0.12085220760E+01  0.48023822991E+02  0.00000000000E+00 0.  1.
         22    1    3    3    0    0  0.84509166318E+01  0.27928255224E+02 -0.13086783480E+03  0.13408130226E+03  0.00000000000E+00 0.  1.
</event>
<event>
 7    1  0.6152634E-006  0.1134382E+03  0.7818608E-02  0.1362722E+00
          2   -1    0    0  502    0  0.00000000000E+00  0.00000000000E+00  0.11094259458E+04  0.11094259458E+04  0.00000000000E+00 0. -1.
          1   -1    0    0  501    0 -0.00000000000E+00 -0.00000000000E+00 -0.33169469847E+03  0.33169469847E+03  0.00000000000E+00 0. -1.
         25    2    1    2    0    0 -0.10556079151E+03 -0.11056428266E+03  0.28049252931E+02  0.19944647715E+03  0.12499838140E+03 0.  0.
          2    1    1    2  501    0  0.21820275942E+02  0.36183157495E+02 -0.24100240890E+03  0.24467837343E+03  0.00000000000E+00 0. -1.
          1    1    1    2  502    0  0.83740515563E+02  0.74381125170E+02  0.99068440334E+03  0.99699579374E+03  0.00000000000E+00 0. -1.
         22    1    3    3    0    0 -0.80449369229E+02 -0.10190764954E+03  0.71723665250E+02  0.14832920886E+03  0.00000000000E+00 0. -1.
         22    1    3    3    0    0 -0.25111422276E+02 -0.86566331211E+01 -0.43674412319E+02  0.51117268287E+02  0.00000000000E+00 0. -1.
</event>
<event>
 7    1  0.6152634E-006  0.6376646E+02  0.7818608E-02  0.1447388E+00
          2   -1    0    0  502    0  0.00000000000E+00  0.00000000000E+00  0.72165927404E+03  0.72165927404E+03  0.00000000000E+00 0. -1.
          1   -1    0    0  501    0 -0.00000000000E+00 -0.00000000000E+00 -0.61468425472E+03  0.61468425472E+03  0.00000000000E+00 0. -1.
         25    2    1    2    0    0  0.17418946398E+02 -0.22272782131E+02 -0.14599227261E+03  0.19426270619E+03  0.12499903534E+03 0.  0.
          2    1    1    2  501    0  0.29074167406E+01 -0.38506398094E+02 -0.44224152340E+03  0.44392427371E+03  0.00000000000E+00 0. -1.
          1    1    1    2  502    0 -0.20326363139E+02  0.60779180226E+02  0.69520881535E+03  0.69815654886E+03  0.00000000000E+00 0. -1.
         22    1    3    3    0    0  0.47817031836E+02 -0.55914727613E+02 -0.12324625241E+03  0.14353593289E+03  0.00000000000E+00 0. -1.
         22    1    3    3    0    0 -0.30398085438E+02  0.33641945482E+02 -0.22746020204E+02  0.50726773298E+02  0.00000000000E+00 0. -1.
</event>
<event>
 7    1  0.6152634E-006  0.1560149E+03  0.7818608E-02  0.1383798E+00
          2   -1    0    0  502    0  0.00000000000E+00  0.00000000000E+00  0.21933059308E+04  0.21933059308E+04  0.00000000000E+00 0. -1.
          1   -1    0    0  501    0 -0.00000000000E+00 -0.00000000000E+00 -0.25350949375E+02  0.25350949375E+02  0.00000000000E+00 0. -1.
         25    2    1    2    0    0 -0.28815239010E+02 -0.17176275788E+03  0.10818230765E+04  0.11028592293E+04  0.12499819124E+03 0.  0.
          2    1    1    2  501    0  0.17176771448E+02  0.14870824341E+03  0.36910791587E+03  0.39830872034E+03  0.00000000000E+00 0. -1.
          1    1    1    2  502    0  0.11638467561E+02  0.23054514469E+02  0.71702398901E+03  0.71748893050E+03  0.00000000000E+00 0. -1.
         22    1    3    3    0    0  0.90515477344E+01 -0.11184417558E+02  0.43790796480E+03  0.43814427686E+03  0.00000000000E+00 0.  1.
         22    1    3    3    0    0 -0.37866786744E+02 -0.16057834032E+03  0.64391511169E+03  0.66471495243E+03  0.00000000000E+00 0.  1.
</event>
<event>
 7    1  0.6152634E-006  0.1201270E+03  0.7818608E-02  0.1299576E+00
          2   -1    0    0  502    0  0.00000000000E+00  0.00000000000E+00  0.20167502018E+04  0.20167502018E+04  0.00000000000E+00 0. -1.
          1   -1    0    0  501    0 -0.00000000000E+00 -0.00000000000E+00 -0.19238128671E+03  0.19238128671E+03  0.00000000000E+00 0. -1.
         25    2    1    2    0    0 -0.11275295374E+03 -0.63860939140E+02  0.46125363134E+03  0.49514816950E+03  0.12500139682E+03 0.  0.
          2    1    1    2  501    0  0.57463093348E+02  0.10595799328E+03 -0.15383975803E+03  0.19543739301E+03  0.00000000000E+00 0. -1.
          1    1    1    2  502    0  0.55289860395E+02 -0.42097054136E+02  0.15169550418E+04  0.15185459260E+04  0.00000000000E+00 0. -1.
         22    1    3    3    0    0 -0.11969671375E+02  0.43253031552E+01 -0.47005736916E+01  0.13567485885E+02  0.00000000000E+00 0.  1.
         22    1    3    3    0    0 -0.10078328237E+03 -0.68186242295E+02  0.46595420503E+03  0.48158068361E+03  0.00000000000E+00 0.  1.
</event>
<event>
 7    1  0.6152634E-006  0.4265267E+02  0.7818608E-02  0.1508231E+00
          2   -1    0    0  502    0  0.00000000000E+00  0.00000000000E+00  0.92891843414E+01  0.92891843414E+01  0.00000000000E+00 0. -1.
          1   -1    0    0  501    0 -0.00000000000E+00 -0.00000000000E+00 -0.15980307536E+04  0.15980307536E+04  0.00000000000E+00 0. -1.
         25    2    1    2    0    0  0.46589491462E+02 -0.44424451485E+02 -0.72681220699E+03  0.74028730705E+03  0.12500080058E+03 0.  0.
          2    1    1    2  501    0 -0.84878308211E+01  0.36534240540E+02 -0.67779896214E+03  0.67883593532E+03  0.00000000000E+00 0. -1.
          1    1    1    2  502    0 -0.38101660641E+02  0.78902109451E+01 -0.18413040013E+03  0.18819669558E+03  0.00000000000E+00 0. -1.
         22    1    3    3    0    0 -0.40299624287E+02 -0.19088370889E+02 -0.15244947660E+03  0.15883723913E+03  0.00000000000E+00 0.  1.
         22    1    3    3    0    0  0.86889115749E+02 -0.25336080596E+02 -0.57436273039E+03  0.58145006791E+03  0.00000000000E+00 0.  1.
</event>
<event>
 7    1  0.6152634E-006  0.1058471E+03  0.7818608E-02  0.1316999E+00
          2   -1    0    0  502    0  0.00000000000E+00  0.00000000000E+00  0.24169262932E+04  0.24169262932E+04  0.00000000000E+00 0. -1.
          1   -1    0    0  501    0 -0.00000000000E+00 -0.00000000000E+00 -0.14494227560E+03  0.14494227560E+03  0.00000000000E+00 0. -1.
         25    2    1    2    0    0  0.15602543859E+03 -0.22387970376E+02  0.24768156324E+03  0.31908026003E+03  0.12498358639E+03 0.  0.
          2    1    1    2  501    0 -0.92176935166E+02  0.43679315399E+02 -0.84778125861E+02  0.13263408534E+03  0.00000000000E+00 0. -1.
          1    1    1    2  502    0 -0.63848503420E+02 -0.21291345024E+02  0.21090805802E+04  0.21101542234E+04  0.00000000000E+00 0. -1.
         22    1    3    3    0    0  0.62662064807E+02  0.31367546439E+02  0.30055815234E+02  0.76248340080E+02  0.00000000000E+00 0. -1.
         22    1    3    3    0    0  0.93363373779E+02 -0.53755516815E+02  0.21762574801E+03  0.24283191995E+03  0.00000000000E+00 0. -1.
</event>
<event>
 7    1  0.6152634E-006  0.9662934E+02  0.7818608E-02  0.1387765E+00
          2   -1    0    0  502    0  0.00000000000E+00  0.00000000000E+00  0.99282000832E+03  0.99282000832E+03  0.00000000000E+00 0. -1.
          1   -1    0    0  501    0 -0.00000000000E+00 -0.00000000000E+00 -0.65409122935E+02  0.65409122935E+02  0.00000000000E+00 0. -1.
         25    2    1    2    0    0  0.10272189459E+02  0.91395249973E+02  0.55046305192E+03  0.57192064921E+03  0.12500019146E+03 0.  0.
          2    1    1    2  501    0 -0.49943618337E+02 -0.83856857887E+02 -0.92177897771E+01  0.98037264730E+02  0.00000000000E+00 0. -1.
          1    1    1    2  502    0  0.39671428878E+02 -0.75383920853E+01  0.38616562324E+03  0.38827121732E+03  0.00000000000E+00 0. -1.
         22    1    3    3    0    0 -0.52280701564E+02  0.41564280388E+02  0.16051607815E+03  0.17385704618E+03  0.00000000000E+00 0. -1.
         22    1    3    3    0    0  0.62552891023E+02  0.49830969585E+02  0.38994697377E+03  0.39806360303E+03  0.00000000000E+00 0. -1.
</event>
<event>
 7    1  0.6152634E-006  0.7697763E+02  0.7818608E-02  0.1444884E+00
          2   -1    0    0  502    0  0.00000000000E+00  0.00000000000E+00  0.58449556929E+03  0.58449556929E+03  0.00000000000E+00 0. -1.
          1   -1    0    0  501    0 -0.00000000000E+00 -0.00000000000E+00 -0.29435362729E+03  0.29435362729E+03  0.00000000000E+00 0. -1.
         25    2    1    2    0    0  0.24747577045E+02 -0.49684482892E+02 -0.57812823107E+02  0.14849371652E+03  0.12500828341E+03 0.  0.
          2    1    1    2  501    0  0.32464375489E+02 -0.28299617516E+01 -0.18698734825E+03  0.18980572375E+03  0.00000000000E+00 0. -1.
          1    1    1    2  502    0 -0.57211952533E+02  0.52514444644E+02  0.53494211335E+03  0.54054975631E+03  0.00000000000E+00 0. -1.
         22    1    3    3    0    0  0.26428700505E+02 -0.74363191209E+02  0.68935809810E+01  0.79220463745E+02  0.00000000000E+00 0. -1.
         22    1    3    3    0    0 -0.16811234605E+01  0.24678708317E+02 -0.64706404088E+02  0.69273252777E+02  0.00000000000E+00 0. -1.
</event>
<event>
 7    1  0.6152634E-006  0.9801148E+02  0.7818608E-02  0.1429808E+00
          2   -1    0    0  502    0  0.00000000000E+00  0.00000000000E+00  0.40298639448E+02  0.40298639448E+02  0.00000000000E+00 0. -1.
          1   -1    0    0  501    0 -0.00000000000E+00 -0.00000000000E+00 -0.12153540840E+04  0.12153540840E+04  0.00000000000E+00 0. -1.
         25    2    1    2    0    0 -0.83106482131E+02 -0.81868710707E+02 -0.55137765459E+03  0.57727937172E+03  0.12499992748E+03 0.  0.
          2    1    1    2  501    0  0.76190552121E+02  0.54057427555E+02 -0.63905710031E+03  0.64584919538E+03  0.00000000000E+00 0. -1.
          1    1    1    2  502    0  0.69159300103E+01  0.27811283152E+02  0.15379310362E+02  0.32524156341E+02  0.00000000000E+00 0. -1.
         22    1    3    3    0    0  0.29222594557E+02 -0.70209289770E+00 -0.60141122256E+02  0.66868584203E+02  0.00000000000E+00 0.  1.
         22    1    3    3    0    0 -0.11232907669E+03 -0.81166617809E+02 -0.49123653233E+03  0.51041078752E+03  0.00000000000E+00 0.  1.
</event>
<event>
 7    1  0.6152634E-006  0.9195744E+02  0.7818608E-02  0.1370671E+00
          2   -1    0    0  502    0  0.00000000000E+00  0.00000000000E+00  0.26732056785E+03  0.26732056785E+03  0.00000000000E+00 0. -1.
          1   -1    0    0  501    0 -0.00000000000E+00 -0.00000000000E+00 -0.79255754203E+03  0.79255754203E+03  0.00000000000E+00 0. -1.
         25    2    1    2    0    0 -0.27961073392E+02 -0.38132693904E+02 -0.59286416695E+02  0.14622071754E+03  0.12501877884E+03 0.  0.
          2    1    1    2  501    0  0.46648220577E+02  0.83200288861E+02 -0.68379536409E+03  0.69041613864E+03  0.00000000000E+00 0. -1.
          1    1    1    2  502    0 -0.18687147185E+02 -0.45067594957E+02  0.21784480661E+03  0.22324125370E+03  0.00000000000E+00 0. -1.
         22    1    3    3    0    0 -0.37041714321E+02  0.26606733519E+02  0.14293845992E+02  0.47794569792E+02  0.00000000000E+00 0. -1.
         22    1    3    3    0    0  0.90806409284E+01 -0.64739427423E+02 -0.73580262687E+02  0.98426147744E+02  0.00000000000E+00 0. -1.
</event>
<event>
 7    1  0.6152634E-006  0.7608300E+02  0.7818608E-02  0.1350997E+00
          2   -1    0    0  502    0  0.00000000000E+00  0.00000000000E+00  0.32705612590E+04  0.32705612590E+04  0.00000000000E+00 0. -1.
          1   -1    0    0  501    0 -0.00000000000E+00 -0.00000000000E+00 -0.23472750177E+03  0.23472750177E+03  0.00000000000E+00 0. -1.
         25    2    1    2    0    0  0.19561008410E+02  0.10832329934E+03  0.29574298049E+03  0.33941932295E+03  0.12499998421E+03 0.  0.
          2    1    1    2  501    0 -0.57197741189E+02 -0.49830909114E+02 -0.20570790123E+03  0.21924972458E+03  0.00000000000E+00 0. -1.
          1    1    1    2  502    0  0.37636732779E+02 -0.58492390221E+02  0.29457986780E+04  0.29466197133E+04  0.00000000000E+00 0. -1.
         22    1    3    3    0    0 -0.18843241000E+02  0.12282789719E+03  0.20328478568E+03  0.23825713871E+03  0.00000000000E+00 0.  1.
         22    1    3    3    0    0  0.38404249410E+02 -0.14504597853E+02  0.92458194809E+02  0.10116218423E+03  0.00000000000E+00 0.  1.
</event>
<event>
 7    1  0.6152634E-006  0.8658532E+02  0.7818608E-02  0.1473062E+00
          2   -1    0    0  502    0  0.00000000000E+00  0.00000000000E+00  0.26186136586E+04  0.26186136586E+04  0.00000000000E+00 0. -1.
          1   -1    0    0  501    0 -0.00000000000E+00 -0.00000000000E+00 -0.87596083178E+01  0.87596083178E+01  0.00000000000E+00 0. -1.
         25    2    1    2    0    0 -0.55377565317E+02  0.68030761657E+02  0.11075869863E+04  0.11180655511E+04  0.12500714002E+03 0.  0.
          2    1    1    2  501    0 -0.15552470455E+02 -0.17752603517E+02  0.60786887317E+02  0.65207974501E+02  0.00000000000E+00 0. -1.
          1    1    1    2  502    0  0.70930035772E+02 -0.50278158140E+02  0.14414801767E+04  0.14440997414E+04  0.00000000000E+00 0. -1.
         22    1    3    3    0    0  0.32378512880E+02 -0.89091605596E+01  0.17391164787E+03  0.17712425724E+03  0.00000000000E+00 0. -1.
         22    1    3    3    0    0 -0.87756078197E+02  0.76939922217E+02  0.93367533840E+03  0.94094129382E+03  0.00000000000E+00 0. -1.
</event>
<event>
 7    1  0.6152634E-006  0.1281175E+03  0.7818608E-02  0.1244835E+00
          2   -1    0    0  502    0  0.00000000000E+00  0.00000000000E+00  0.89922647340E+03  0.89922647340E+03  0.00000000000E+00 0. -1.
          1   -1    0    0  501    0 -0.00000000000E+00 -0.00000000000E+00 -0.21605081668E+04  0.21605081668E+04  0.00000000000E+00 0. -1.
         25    2    1    2    0    0 -0.18210024192E+03  0.14369577846E+03 -0.38695993456E+03  0.46815948048E+03  0.12500533330E+03 0.  0.
          2    1    1    2  501    0  0.10278536159E+03 -0.66839025727E+02 -0.17272148369E+04  0.17315609660E+04  0.00000000000E+00 0. -1.
          1    1    1    2  502    0  0.79314880328E+02 -0.76856752733E+02  0.85289307813E+03  0.86001419372E+03  0.00000000000E+00 0. -1.
         22    1    3    3    0    0 -0.42221403993E+02  0.71472706786E+02 -0.51742049911E+02  0.97817352752E+02  0.00000000000E+00 0.  1.
         22    1    3    3    0    0 -0.13987883792E+03  0.72223071674E+02 -0.33521788465E+03  0.37034212773E+03  0.00000000000E+00 0.  1.
</event>
<event>
 7    1  0.6152634E-006  0.9515688E+02  0.7818608E-02  0.1468788E+00
          2   -1    0    0  502    0  0.00000000000E+00  0.00000000000E+00  0.27084756461E+03  0.27084756461E+03  0.00000000000E+00 0. -1.
          1   -1    0    0  501    0 -0.00000000000E+00 -0.00000000000E+00 -0.13233373575E+04  0.13233373575E+04  0.00000000000E+00 0. -1.
         25    2    1    2    0    0  0.42389110463E+02  0.60890232842E+02 -0.23032769674E+03  0.27236010883E+03  0.12499889541E+03 0.  0.
          2    1    1    2  501    0  0.84145420021E+01  0.20481085360E+02 -0.10626653582E+04  0.10628960169E+04  0.00000000000E+00 0. -1.
          1    1    1    2  502    0 -0.50803652465E+02 -0.81371318201E+02  0.24050326203E+03  0.25892879634E+03  0.00000000000E+00 0. -1.
         22    1    3    3    0    0  0.85847858903E+02  0.33064458876E+02 -0.16707266694E+03  0.19072595355E+03  0.00000000000E+00 0. -1.
         22    1    3    3    0    0 -0.43458748440E+02  0.27825773966E+02 -0.63255029800E+02  0.81634155276E+02  0.00000000000E+00 0. -1.
</event>
<event>
 7    1  0.6152634E-006  0.8667015E+02  0.7818608E-02  0.1408459E+00
          2   -1    0    0  502    0  0.00000000000E+00  0.00000000000E+00  0.10449222293E+04  0.10449222293E+04  0.00000000000E+00 0. -1.
          1   -1    0    0  501    0 -0.00000000000E+00 -0.00000000000E+00 -0.55341550905E+02  0.55341550905E+02  0.00000000000E+00 0. -1.
         25    2    1    2    0    0 -0.28530419173E+02  0.86992101750E+02  0.28085714591E+03  0.32076418576E+03  0.12500926314E+03 0.  0.
          2    1    1    2  501    0 -0.30453310797E+02 -0.23060603766E+02 -0.21687996669E+02  0.43926811677E+02  0.00000000000E+00 0. -1.
          1    1    1    2  502    0  0.58983729970E+02 -0.63931497984E+02  0.73041152920E+03  0.73557278282E+03  0.00000000000E+00 0. -1.
         22    1    3    3    0    0 -0.86967220000E+01  0.82362010191E+02  0.68625163063E+02  0.10755717875E+03  0.00000000000E+00 0. -1.
         22    1    3    3    0    0 -0.19833697173E+02  0.46300915587E+01  0.21223198285E+03  0.21320700700E+03  0.00000000000E+00 0. -1.
</event>
<event>
 7    1  0.6152634E-006  0.8090763E+02  0.7818608E-02  0.1355499E+00
          2   -1    0    0  502    0  0.00000000000E+00  0.00000000000E+00  0.14898178722E+04  0.14898178722E+04  0.00000000000E+00 0. -1.
          1   -1    0    0  501    0 -0.00000000000E+00 -0.00000000000E+00 -0.25890660177E+03  0.25890660177E+03  0.00000000000E+00 0. -1.
         25    2    1    2    0    0  0.72586973560E+02 -0.56647664332E+02  0.14537972158E+03  0.21269155306E+03  0.12499842676E+03 0.  0.
          2    1    1    2  501    0 -0.58422444876E+02 -0.23455030481E+02 -0.21956070778E+03  0.22840802289E+03  0.00000000000E+00 0. -1.
          1    1    1    2  502    0 -0.14164528684E+02  0.80102694813E+02  0.13050922567E+04  0.13076248981E+04  0.00000000000E+00 0. -1.
         22    1    3    3    0    0 -0.19685232922E+02 -0.16604153197E+02 -0.99745558444E+01  0.27616988664E+02  0.00000000000E+00 0. -1.
         22    1    3    3    0    0  0.92272206481E+02 -0.40043511136E+02  0.15535427742E+03  0.18507456440E+03  0.00000000000E+00 0. -1.
</event>
<event>
 7    1  0.6152634E-006  0.3547209E+02  0.7818608E-02  0.1570232E+00
          2   -1    0    0  502    0  0.00000000000E+00  0.00000000000E+00  0.68257056036E+03  0.68257056036E+03  0.00000000000E+00 0. -1.
          1   -1    0    0  501    0 -0.00000000000E+00 -0.00000000000E+00 -0.29149865949E+03  0.29149865949E+03  0.00000000000E+00 0. -1.
         25    2    1    2    0    0  0.97597118552E+01 -0.63201926724E+02  0.59389959724E+02  0.15245329848E+03  0.12500042153E+03 0.  0.
          2    1    1    2  501    0 -0.10898139777E+02  0.28064334965E+02 -0.24350326647E+03  0.24535732540E+03  0.00000000000E+00 0. -1.
          1    1    1    2  502    0  0.11384279222E+01  0.35137591760E+02  0.57518520762E+03  0.57625859598E+03  0.00000000000E+00 0. -1.
         22    1    3    3    0    0  0.47476344871E+02  0.16314095840E+02  0.34771448904E+02  0.61067231018E+02  0.00000000000E+00 0.  1.
         22    1    3    3    0    0 -0.37716633016E+02 -0.79516022564E+02  0.24618510820E+02  0.91386067458E+02  0.00000000000E+00 0.  1.
</event>
<event>
 7    1  0.6152634E-006  0.7648320E+02  0.7818608E-02  0.1414850E+00
          2   -1    0    0  502    0  0.00000000000E+00  0.00000000000E+00  0.13122316900E+04  0.13122316900E+04  0.00000000000E+00 0. -1.
          1   -1    0    0  501    0 -0.00000000000E+00 -0.00000000000E+00 -0.60005500700E+03  0.60005500700E+03  0.00000000000E+00 0. -1.
         25    2    1    2    0    0  0.53644203384E+02 -0.98237304063E+02  0.35078767274E+03  0.38885101959E+03  0.12499942249E+03 0.  0.
          2    1    1    2  501    0 -0.75301600754E+01  0.40492280653E+02 -0.57884182007E+03  0.58030524793E+03  0.00000000000E+00 0. -1.
          1    1    1    2  502    0 -0.46114043308E+02  0.57745023410E+02  0.94023083033E+03  0.94313042949E+03  0.00000000000E+00 0. -1.
         22    1    3    3    0    0  0.85173621900E+02 -0.10154122635E+03  0.24675138115E+03  0.28009178963E+03  0.00000000000E+00 0. -1.
         22    1    3    3    0    0 -0.31529418516E+02  0.33039222901E+01  0.10403629159E+03  0.10875922996E+03  0.00000000000E+00 0. -1.
</event>
<event>
 7    1  0.6152634E-006  0.4928266E+02  0.7818608E-02  0.1491472E+00
          2   -1    0    0  502    0  0.00000000000E+00  0.00000000000E+00  0.26047801193E+04  0.26047801193E+04  0.00000000000E+00 0. -1.
          1   -1    0    0  501    0 -0.00000000000E+00 -0.00000000000E+00 -0.16006380412E+02  0.16006380412E+02  0.00000000000E+00 0. -1.
         25    2    1    2    0    0 -0.15453266446E+02  0.15157541163E+02  0.56901824021E+03  0.58298944605E+03  0.12500552792E+03 0.  0.
          2    1    1    2  501    0  0.14450632309E+02 -0.51568000815E+02  0.72164230718E+02  0.89865208381E+02  0.00000000000E+00 0. -1.
          1    1    1    2  502    0  0.10026341375E+01  0.36410459653E+02  0.19475912679E+04  0.19479318453E+04  0.00000000000E+00 0. -1.
         22    1    3    3    0    0  0.50544732791E+02  0.18327658689E+02  0.16322020182E+03  0.17184733739E+03  0.00000000000E+00 0. -1.
         22    1    3    3    0    0 -0.65997999237E+02 -0.31701175263E+01  0.40579803839E+03  0.41114210866E+03  0.00000000000E+00 0. -1.
</event>
<event>
 7    1  0.6152634E-006  0.6135878E+02  0.7818608E-02  0.1401415E+00
          2   -1    0    0  502    0  0.00000000000E+00  0.00000000000E+00  0.21430401887E+04  0.21430401887E+04  0.00000000000E+00 0. -1.
          1   -1    0    0  501    0 -0.00000000000E+00 -0.00000000000E+00 -0.97904782018E+02  0.97904782018E+02  0.00000000000E+00 0. -1.
         25    2    1    2    0    0  0.20604004900E+02  0.23702820190E+02  0.78738496120E+02  0.15103273489E+03  0.12499915014E+03 0.  0.
          2    1    1    2  501    0 -0.68026237978E+02  0.79749526028E+01 -0.42237448854E+02  0.80468447283E+02  0.00000000000E+00 0. -1.
          1    1    1    2  502    0  0.47422233078E+02 -0.31677772793E+02  0.20086343594E+04  0.20094437885E+04  0.00000000000E+00 0. -1.
         22    1    3    3    0    0 -0.14144099832E+02 -0.39607493022E+00  0.10185952485E+03  0.10283761587E+03  0.00000000000E+00 0.  1.
         22    1    3    3    0    0  0.34748104732E+02  0.24098895120E+02 -0.23121028728E+02  0.48195119025E+02  0.00000000000E+00 0.  1.
</event>
<event>
 7    1  0.6152634E-006  0.5748846E+02  0.7818608E-02  0.1428841E+00
          2   -1    0    0  502    0  0.00000000000E+00  0.00000000000E+00  0.99932771944E+02  0.99932771944E+02  0.00000000000E+00 0. -1.
          1   -1    0    0  501    0 -0.00000000000E+00 -0.00000000000E+00 -0.12380233268E+04  0.12380233268E+04  0.00000000000E+00 0. -1.
         25    2    1    2    0    0  0.42610913056E+02  0.10757671321E+02 -0.35288207239E+03  0.37693690528E+03  0.12499702453E+03 0.  0.
          2    1    1    2  501    0  0.12842240093E+01 -0.49202326428E+02 -0.86265139070E+03  0.86405436173E+03  0.00000000000E+00 0. -1.
          1    1    1    2  502    0 -0.43895137066E+02  0.38444655107E+02  0.77442908213E+02  0.96964831753E+02  0.00000000000E+00 0. -1.
         22    1    3    3    0    0  0.28249363849E+02  0.51933181810E+02 -0.74241686173E+02  0.94904741170E+02  0.00000000000E+00 0.  1.
         22    1    3    3    0    0  0.14361549207E+02 -0.41175510489E+02 -0.27864038622E+03  0.28203216411E+03  0.00000000000E+00 0.  1.
</event>
<event>
 7    1  0.6152634E-006  0.6027406E+02  0.7818608E-02  0.1433077E+00
          2   -1    0    0  502    0  0.00000000000E+00  0.00000000000E+00  0.61087930880E+03  0.61087930880E+03  0.00000000000E+00 0. -1.
          1   -1    0    0  501    0 -0.00000000000E+00 -0.00000000000E+00 -0.11529306383E+03  0.11529306383E+03  0.00000000000E+00 0. -1.
         25    2    1    2    0    0 -0.73513695185E+02 -0.30593221786E+02  0.37177688169E+03  0.40022742584E+03  0.12499493605E+03 0.  0.
          2    1    1    2  501    0  0.32644054505E+02  0.50507321262E+02 -0.89509162768E+02  0.10783558789E+03  0.00000000000E+00 0. -1.
          1    1    1    2  502    0  0.40869640681E+02 -0.19914099476E+02  0.21331852605E+03  0.21810935891E+03  0.00000000000E+00 0. -1.
         22    1    3    3    0    0 -0.44180349945E+02  0.47155804053E+02  0.17883908524E+03  0.19015517765E+03  0.00000000000E+00 0. -1.
         22    1    3    3    0    0 -0.29333345241E+02 -0.77749025839E+02  0.19293779645E+03  0.21007224819E+03  0.00000000000E+00 0. -1.
</event>
<event>
 7    1  0.6152634E-006  0.1285400E+03  0.7818608E-02  0.1238214E+00
          2   -1    0    0  502    0  0.00000000000E+00  0.00000000000E+00  0.71475939043E+03  0.71475939043E+03  0.00000000000E+00 0. -1.
          1   -1    0    0  501    0 -0.00000000000E+00 -0.00000000000E+00 -0.49597820841E+03  0.49597820841E+03  0.00000000000E+00 0. -1.
         25    2    1    2    0    0 -0.10183858900E+02  0.19882374636E+02  0.10375151473E+03  0.16397657671E+03  0.12499968439E+03 0.  0.
          2    1    1    2  501    0  0.11318374255E+03 -0.76873382497E+02 -0.44961722617E+03  0.46997417650E+03  0.00000000000E+00 0. -1.
          1    1    1    2  502    0 -0.10299988365E+03  0.56991007861E+02  0.56464689346E+03  0.57678684563E+03  0.00000000000E+00 0. -1.
         22    1    3    3    0    0  0.10375420881E+02 -0.50920446829E+02  0.31609010606E+02  0.60824919361E+02  0.00000000000E+00 0. -1.
         22    1    3    3    0    0 -0.20559279781E+02  0.70802821465E+02  0.72142504123E+02  0.10315165735E+03  0.00000000000E+00 0. -1.
</event>
<event>
 7    1  0.6152634E-006  0.7059462E+02  0.7818608E-02  0.1524190E+00
          2   -1    0    0  502    0  0.00000000000E+00  0.00000000000E+00  0.41155705631E+03  0.41155705631E+03  0.00000000000E+00 0. -1.
          1   -1    0    0  501    0 -0.00000000000E+00 -0.00000000000E+00 -0.11895091570E+04  0.11895091570E+04  0.00000000000E+00 0. -1.
         25    2    1    2    0    0  0.66824066040E+01 -0.85753543791E+02  0.12391601247E+03  0.19592108622E+03  0.12502627343E+03 0.  0.
          2    1    1    2  501    0 -0.10884604579E+02  0.17202374080E+02 -0.11487285536E+04  0.11489089111E+04  0.00000000000E+00 0. -1.
          1    1    1    2  502    0  0.42021979752E+01  0.68551169710E+02  0.24686044040E+03  0.25623621597E+03  0.00000000000E+00 0. -1.
         22    1    3    3    0    0 -0.33677064292E+01 -0.35522460914E+02  0.13820668145E+03  0.14273847930E+03  0.00000000000E+00 0. -1.
         22    1    3    3    0    0  0.10050113033E+02 -0.50231082876E+02 -0.14290668977E+02  0.53182606919E+02  0.00000000000E+00 0. -1.
</event>
<event>
 7    1  0.6152634E-006  0.2337776E+02  0.7818608E-02  0.1689988E+00
          2   -1    0    0  502    0  0.00000000000E+00  0.00000000000E+00  0.16647108429E+04  0.16647108429E+04  0.00000000000E+00 0. -1.
          1   -1    0    0  501    0 -0.00000000000E+00 -0.00000000000E+00 -0.30542280667E+03  0.30542280667E+03  0.00000000000E+00 0. -1.
         25    2    1    2    0    0  0.20873551234E+02  0.40723315457E+02  0.36013869344E+02  0.13789994583E+03  0.12500121084E+03 0.  0.
          2    1    1    2  501    0 -0.82170560149E+01 -0.21741885745E+02 -0.25386637704E+03  0.25492816047E+03  0.00000000000E+00 0. -1.
          1    1    1    2  502    0 -0.12656495219E+02 -0.18981429712E+02  0.15771405439E+04  0.15773055433E+04  0.00000000000E+00 0. -1.
         22    1    3    3    0    0 -0.28351357569E+02 -0.33576207642E+02  0.13542872249E+02  0.45984460249E+02  0.00000000000E+00 0.  1.
         22    1    3    3    0    0  0.49224908802E+02  0.74299523100E+02  0.22470997096E+02  0.91915485583E+02  0.00000000000E+00 0.  1.
</event>
<event>
 7    1  0.6152634E-006  0.3621149E+02  0.7818608E-02  0.1579456E+00
          2   -1    0    0  502    0  0.00000000000E+00  0.00000000000E+00  0.23012727135E+04  0.23012727135E+04  0.00000000000E+00 0. -1.
          1   -1    0    0  501    0 -0.00000000000E+00 -0.00000000000E+00 -0.48455581015E+03  0.48455581015E+03  0.00000000000E+00 0. -1.
         25    2    1    2    0    0  0.30680138208E+02 -0.34804119236E+02  0.19228455218E+03  0.23398903655E+03  0.12499969048E+03 0.  0.
          2    1    1    2  501    0  0.47664159240E+01  0.27436999025E+02 -0.46312836351E+03  0.46396485721E+03  0.00000000000E+00 0. -1.
          1    1    1    2  502    0 -0.35446554132E+02  0.73671202103E+01  0.20875607147E+04  0.20878746299E+04  0.00000000000E+00 0. -1.
         22    1    3    3    0    0  0.77267822759E+02 -0.16384908930E+02  0.87703217521E+02  0.11802811546E+03  0.00000000000E+00 0. -1.
         22    1    3    3    0    0 -0.46587684552E+02 -0.18419210305E+02  0.10458133466E+03  0.11596092109E+03  0.00000000000E+00 0. -1.
</event>
<event>
 7    1  0.6152634E-006  0.7999505E+02  0.7818608E-02  0.1348972E+00
          2   -1    0    0  502    0  0.00000000000E+00  0.00000000000E+00  0.25756253119E+03  0.25756253119E+03  0.00000000000E+00 0. -1.
          1   -1    0    0  501    0 -0.00000000000E+00 -0.00000000000E+00 -0.26920622868E+04  0.26920622868E+04  0.00000000000E+00 0. -1.
         25    2    1    2    0    0 -0.66319996844E+02  0.72103612077E+02 -0.82704270130E+02  0.17905969253E+03  0.12500041734E+03 0.  0.
          2    1    1    2  501    0  0.79860473165E+02 -0.61730969152E+01 -0.25551275476E+04  0.25563827153E+04  0.00000000000E+00 0. -1.
          1    1    1    2  502    0 -0.13540476321E+02 -0.65930515162E+02  0.20333206215E+03  0.21418241017E+03  0.00000000000E+00 0. -1.
         22    1    3    3    0    0 -0.64240785677E+02  0.94098892447E+02 -0.24138465110E+02  0.11646521198E+03  0.00000000000E+00 0.  1.
         22    1    3    3    0    0 -0.20792111671E+01 -0.21995280369E+02 -0.58565805020E+02  0.62594480550E+02  0.00000000000E+00 0.  1.
</event>
<event>
 7    1  0.6152634E-006  0.5990709E+02  0.7818608E-02  0.1509197E+00
          2   -1    0    0  502    0  0.00000000000E+00  0.00000000000E+00  0.13212320600E+04  0.13212320600E+04  0.00000000000E+00 0. -1.
          1   -1    0    0  501    0 -0.00000000000E+00 -0.00000000000E+00 -0.28327467295E+03  0.28327467295E+03  0.00000000000E+00 0. -1.
         25    2    1    2    0    0  0.32680169183E+02  0.29628820635E+02 -0.20977459887E+02  0.13420493288E+03  0.12500019887E+03 0.  0.
          2    1    1    2  501    0 -0.81818905282E+01  0.25236804542E+02 -0.20411078835E+03  0.20582772786E+03  0.00000000000E+00 0. -1.
          1    1    1    2  502    0 -0.24498278655E+02 -0.54865625177E+02  0.12630456353E+04  0.12644740722E+04  0.00000000000E+00 0. -1.
         22    1    3    3    0    0  0.58943933800E+01 -0.33287401286E+02  0.32882579185E+02  0.47159929724E+02  0.00000000000E+00 0.  1.
         22    1    3    3    0    0  0.26785775803E+02  0.62916221921E+02 -0.53860039072E+02  0.87045003160E+02  0.00000000000E+00 0.  1.
</event>
<event>
 7    1  0.6152634E-006  0.1556344E+03  0.7818608E-02  0.1308220E+00
          2   -1    0    0  502    0  0.00000000000E+00  0.00000000000E+00  0.24871240244E+03  0.24871240244E+03  0.00000000000E+00 0. -1.
          1   -1    0    0  501    0 -0.00000000000E+00 -0.00000000000E+00 -0.19899188778E+04  0.19899188778E+04  0.00000000000E+00 0. -1.
         25    2    1    2    0    0 -0.11434598632E+03  0.43106665457E+02 -0.87121518814E+02  0.19531629850E+03  0.12500043290E+03 0.  0.
          2    1    1    2  501    0 -0.47416428009E+02 -0.14395149253E+02 -0.18136282979E+04  0.18143051400E+04  0.00000000000E+00 0. -1.
          1    1    1    2  502    0  0.16176241433E+03 -0.28711516204E+02  0.15954334136E+03  0.22900984176E+03  0.00000000000E+00 0. -1.
         22    1    3    3    0    0 -0.10148134492E+01  0.48492237810E+02  0.55517596713E+01  0.48819555606E+02  0.00000000000E+00 0.  1.
         22    1    3    3    0    0 -0.11333117287E+03 -0.53855723526E+01 -0.92673278485E+02  0.14649674289E+03  0.00000000000E+00 0.  1.
</event>
<event>
 7    1  0.6152634E-006  0.5237804E+02  0.7818608E-02  0.1521761E+00
          2   -1    0    0  502    0  0.00000000000E+00  0.00000000000E+00  0.24991496046E+03  0.24991496046E+03  0.00000000000E+00 0. -1.
          1   -1    0    0  501    0 -0.00000000000E+00 -0.00000000000E+00 -0.59271843725E+03  0.59271843725E+03  0.00000000000E+00 0. -1.
         25    2    1    2    0    0 -0.29646930950E+02  0.74055821500E+02  0.34622352725E+02  0.15226259811E+03  0.12498794446E+03 0.  0.
          2    1    1    2  501    0  0.17367241732E+02 -0.49021250973E+02 -0.53137642333E+03  0.53391535603E+03  0.00000000000E+00 0. -1.
          1    1    1    2  502    0  0.12279689219E+02 -0.25034570527E+02  0.15395059382E+03  0.15645544358E+03  0.00000000000E+00 0. -1.
         22    1    3    3    0    0 -0.44090123856E+02 -0.20553166355E+02  0.28460570944E+02  0.56359344987E+02  0.00000000000E+00 0.  1.
         22    1    3    3    0    0  0.14443192906E+02  0.94608987854E+02  0.61617817808E+01  0.95903253119E+02  0.00000000000E+00 0.  1.
</event>
<event>
 7    1  0.6152634E-006  0.7397883E+02  0.7818608E-02  0.1412750E+00
          2   -1    0    0  502    0  0.00000000000E+00  0.00000000000E+00  0.35204773840E+04  0.35204773840E+04  0.00000000000E+00 0. -1.
          1   -1    0    0  501    0 -0.00000000000E+00 -0.00000000000E+00 -0.18473902567E+02  0.18473902567E+02  0.00000000000E+00 0. -1.
         25    2    1    2    0    0  0.28182406626E+02  0.40417661034E+02  0.56652124567E+03  0.58223552279E+03  0.12499618727E+03 0.  0.
          2    1    1    2  501    0 -0.24736492400E+02  0.35514542876E+02  0.36161564394E+02  0.56398896721E+02  0.00000000000E+00 0. -1.
          1    1    1    2  502    0 -0.34459142261E+01 -0.75932203910E+02  0.28993206714E+04  0.29003168670E+04  0.00000000000E+00 0. -1.
         22    1    3    3    0    0 -0.22784655934E+02  0.41149087057E+02  0.78161284346E+02  0.91222663205E+02  0.00000000000E+00 0.  1.
         22    1    3    3    0    0  0.50967062560E+02 -0.73142602280E+00  0.48835996133E+03  0.49101285959E+03  0.00000000000E+00 0.  1.
</event>
<event>
 7    1  0.6152634E-006  0.1785155E+03  0.7818608E-02  0.1228626E+00
          2   -1    0    0  502    0  0.00000000000E+00  0.00000000000E+00  0.21577890294E+04  0.21577890294E+04  0.00000000000E+00 0. -1.
          1   -1    0    0  501    0 -0.00000000000E+00 -0.00000000000E+00 -0.13425983927E+04  0.13425983927E+04  0.00000000000E+00 0. -1.
         25    2    1    2    0    0 -0.11430656903E+03 -0.13643208276E+03  0.38885255592E+03  0.44554639870E+03  0.12500231287E+03 0.  0.
          2    1    1    2  501    0 -0.56849561941E+02  0.74268466282E+02 -0.13078142631E+04  0.13111543863E+04  0.00000000000E+00 0. -1.
          1    1    1    2  502    0  0.17115613097E+03  0.62163616473E+02  0.17341523439E+04  0.17436866371E+04  0.00000000000E+00 0. -1.
         22    1    3    3    0    0 -0.14102575700E+03 -0.12467430897E+03  0.33263423152E+03  0.38220083652E+03  0.00000000000E+00 0. -1.
         22    1    3    3    0    0  0.26719187972E+02 -0.11757773790E+02  0.56218324393E+02  0.63345562180E+02  0.00000000000E+00 0. -1.
</event>
<event>
 7    1  0.6152634E-006  0.9024340E+02  0.7818608E-02  0.1304000E+00
          2   -1    0    0  502    0  0.00000000000E+00  0.00000000000E+00  0.80646454140E+03  0.80646454140E+03  0.00000000000E+00 0. -1.
          1   -1    0    0  501    0 -0.00000000000E+00 -0.00000000000E+00 -0.19167030965E+03  0.19167030965E+03  0.00000000000E+00 0. -1.
         25    2    1    2    0    0 -0.25863051000E+02 -0.64767572271E+02 -0.74528882658E+02  0.16137723174E+03  0.12499728296E+03 0.  0.
          2    1    1    2  501    0  0.90231025515E+02  0.14943185023E+01 -0.42245438932E+02  0.99642099857E+02  0.00000000000E+00 0. -1.
          1    1    1    2  502    0 -0.64367974515E+02  0.63273253769E+02  0.73156855334E+03  0.73711551945E+03  0.00000000000E+00 0. -1.
         22    1    3    3    0    0 -0.69987758969E+02 -0.68881086859E+02 -0.58193946481E+02  0.11414651085E+03  0.00000000000E+00 0.  1.
         22    1    3    3    0    0  0.44124707969E+02  0.41135145885E+01 -0.16334936177E+02  0.47230720887E+02  0.00000000000E+00 0.  1.
</event>
<event>
 7    1  0.6152634E-006  0.6877103E+02  0.7818608E-02  0.1431800E+00
          2   -1    0    0  502    0  0.00000000000E+00  0.00000000000E+00  0.15587666441E+03  0.15587666441E+03  0.00000000000E+00 0. -1.
          1   -1    0    0  501    0 -0.00000000000E+00 -0.00000000000E+00 -0.16660375730E+04  0.16660375730E+04  0.00000000000E+00 0. -1.
         25    2    1    2    0    0  0.46762640526E+02  0.14305081460E+02 -0.68330407950E+03  0.69636271251E+03  0.12500072968E+03 0.  0.
          2    1    1    2  501    0 -0.72451700517E+02  0.16657820000E+02 -0.97204933567E+03  0.97488801554E+03  0.00000000000E+00 0. -1.
          1    1    1    2  502    0  0.25689059991E+02 -0.30962901460E+02  0.14519250660E+03  0.15066350933E+03  0.00000000000E+00 0. -1.
         22    1    3    3    0    0  0.54821640993E+02  0.44553661150E+02 -0.63424613095E+03  0.63816815626E+03  0.00000000000E+00 0.  1.
         22    1    3    3    0    0 -0.80590004667E+01 -0.30248579689E+02 -0.49057948546E+02  0.58194556252E+02  0.00000000000E+00 0.  1.
</event>
<event>
 7    1  0.6152634E-006  0.8433568E+02  0.7818608E-02  0.1372154E+00
          2   -1    0    0  502    0  0.00000000000E+00  0.00000000000E+00  0.17554178171E+03  0.17554178171E+03  0.00000000000E+00 0. -1.
          1   -1    0    0  501    0 -0.00000000000E+00 -0.00000000000E+00 -0.16216901084E+04  0.16216901084E+04  0.00000000000E+00 0. -1.
         25    2    1    2    0    0  0.25793199278E+02  0.44723219185E+02 -0.94370434831E+02  0.16491287702E+03  0.12500009030E+03 0.  0.
          2    1    1    2  501    0  0.73714070241E+01 -0.85485886243E+02 -0.14858452379E+04  0.14883206124E+04  0.00000000000E+00 0. -1.
          1    1    1    2  502    0 -0.33164606303E+02  0.40762667058E+02  0.13406734600E+03  0.14399840069E+03  0.00000000000E+00 0. -1.
         22    1    3    3    0    0 -0.47546592304E+02  0.53432495595E+01 -0.15644791145E+02  0.50338735041E+02  0.00000000000E+00 0. -1.
         22    1    3    3    0    0  0.73339791583E+02  0.39379969625E+02 -0.78725643686E+02  0.11457414198E+03  0.00000000000E+00 0. -1.
</event>
<event>
 7    1  0.6152634E-006  0.5532547E+02  0.7818608E-02  0.1452944E+00
          2   -1    0    0  502    0  0.00000000000E+00  0.00000000000E+00  0.48922291471E+03  0.48922291471E+03  0.00000000000E+00 0. -1.
          1   -1    0    0  501    0 -0.00000000000E+00 -0.00000000000E+00 -0.56319499623E+03  0.56319499623E+03  0.00000000000E+00 0. -1.
         25    2    1    2    0    0 -0.24860101616E+02 -0.77517058146E+02  0.28037389495E+03  0.31758571827E+03  0.12499699406E+03 0.  0.
          2    1    1    2  501    0  0.40378799546E+02  0.37712393698E+02 -0.54076503027E+03  0.54358025172E+03  0.00000000000E+00 0. -1.
          1    1    1    2  502    0 -0.15518697930E+02  0.39804664448E+02  0.18641905380E+03  0.19125194095E+03  0.00000000000E+00 0. -1.
         22    1    3    3    0    0 -0.69257683184E+02 -0.19007526749E+02  0.17477776083E+03  0.18895813937E+03  0.00000000000E+00 0. -1.
         22    1    3    3    0    0  0.44397581568E+02 -0.58509531397E+02  0.10559613412E+03  0.12862757890E+03  0.00000000000E+00 0. -1.
</event>
<event>
 7    1  0.6152634E-006  0.2581506E+02  0.7818608E-02  0.1676336E+00
          2   -1    0    0  502    0  0.00000000000E+00  0.00000000000E+00  0.15351912764E+04  0.15351912764E+04  0.00000000000E+00 0. -1.
          1   -1    0    0  501    0 -0.00000000000E+00 -0.00000000000E+00 -0.37732898174E+03  0.37732898174E+03  0.00000000000E+00 0. -1.
         25    2    1    2    0    0  0.18428687302E+01 -0.47497646732E+02  0.44163248553E+02  0.14083622333E+03  0.12500010667E+03 0.  0.
          2    1    1    2  501    0  0.21376694118E+01  0.25610036365E+02 -0.32840470336E+03  0.32940870174E+03  0.00000000000E+00 0. -1.
          1    1    1    2  502    0 -0.39805381420E+01  0.21887610367E+02  0.14421037494E+04  0.14422753330E+04  0.00000000000E+00 0. -1.
         22    1    3    3    0    0  0.62359270622E+02 -0.11881150342E+02  0.22514641464E+02  0.67355396564E+02  0.00000000000E+00 0.  1.
         22    1    3    3    0    0 -0.60516401892E+02 -0.35616496390E+02  0.21648607088E+02  0.73480826764E+02  0.00000000000E+00 0.  1.
</event>
<event>
 7    1  0.6152634E-006  0.3195020E+03  0.7818608E-02  0.1188073E+00
          2   -1    0    0  502    0  0.00000000000E+00  0.00000000000E+00  0.13927409635E+04  0.13927409635E+04  0.00000000000E+00 0. -1.
          1   -1    0    0  501    0 -0.00000000000E+00 -0.00000000000E+00 -0.17371894636E+04  0.17371894636E+04  0.00000000000E+00 0. -1.
         25    2    1    2    0    0 -0.25387654620E+03  0.21450264026E+03 -0.33559321533E+02  0.35667274232E+03  0.12499813464E+03 0.  0.
          2    1    1    2  501    0  0.67364598940E+02  0.44398689729E+02 -0.15203113024E+04  0.15224505539E+04  0.00000000000E+00 0. -1.
          1    1    1    2  502    0  0.18651194726E+03 -0.25890132999E+03  0.12094221238E+04  0.12508071309E+04  0.00000000000E+00 0. -1.
         22    1    3    3    0    0 -0.37171560115E+02  0.84987017482E+02 -0.46738968226E+02  0.10387034790E+03  0.00000000000E+00 0. -1.
         22    1    3    3    0    0 -0.21670498609E+03  0.12951562278E+03  0.13179646693E+02  0.25280239442E+03  0.00000000000E+00 0. -1.
</event>
<event>
 7    1  0.6152634E-006  0.1292626E+03  0.7818608E-02  0.1376469E+00
          2   -1    0    0  502    0  0.00000000000E+00  0.00000000000E+00  0.53480803863E+03  0.53480803863E+03  0.00000000000E+00 0. -1.
          1   -1    0    0  501    0 -0.00000000000E+00 -0.00000000000E+00 -0.24192948830E+03  0.24192948830E+03  0.00000000000E+00 0. -1.
         25    2    1    2    0    0  0.56452265130E+02 -0.14732089799E+03 -0.90930628945E+02  0.22087095947E+03  0.12500118493E+03 0.  0.
          2    1    1    2  501    0  0.62741596079E+00  0.33084203505E+02 -0.73743322042E+02  0.80827196649E+02  0.00000000000E+00 0. -1.
          1    1    1    2  502    0 -0.57079681091E+02  0.11423669448E+03  0.45755250132E+03  0.47503937081E+03  0.00000000000E+00 0. -1.
         22    1    3    3    0    0  0.63342986834E+02 -0.18506422110E+02 -0.56526632837E+01  0.66232727881E+02  0.00000000000E+00 0. -1.
         22    1    3    3    0    0 -0.68907217042E+01 -0.12881447588E+03 -0.85277965661E+02  0.15463823159E+03  0.00000000000E+00 0. -1.
</event>
<event>
 7    1  0.6152634E-006  0.1289419E+03  0.7818608E-02  0.1270850E+00
          2   -1    0    0  502    0  0.00000000000E+00  0.00000000000E+00  0.11915405643E+04  0.11915405643E+04  0.00000000000E+00 0. -1.
          1   -1    0    0  501    0 -0.00000000000E+00 -0.00000000000E+00 -0.11264039610E+04  0.11264039610E+04  0.00000000000E+00 0. -1.
         25    2    1    2    0    0  0.11209066589E+03 -0.17736294676E+02 -0.34637825804E+02  0.17234663508E+03  0.12499876047E+03 0.  0.
          2    1    1    2  501    0 -0.86717330966E+02  0.98758708530E+02 -0.10170722547E+04  0.10255287170E+04  0.00000000000E+00 0. -1.
          1    1    1    2  502    0 -0.25373334921E+02 -0.81022413854E+02  0.11168466839E+04  0.11200691733E+04  0.00000000000E+00 0. -1.
         22    1    3    3    0    0  0.58267889389E+02 -0.69049804486E+02 -0.89828796274E-01  0.90349490882E+02  0.00000000000E+00 0.  1.
         22    1    3    3    0    0  0.53822776498E+02  0.51313509810E+02 -0.34547997008E+02  0.81997144196E+02  0.00000000000E+00 0.  1.
</event>
<event>
 7    1  0.6152634E-006  0.6358744E+02  0.7818608E-02  0.1400553E+00
          2   -1    0    0  502    0  0.00000000000E+00  0.00000000000E+00  0.13572406774E+04  0.13572406774E+04  0.00000000000E+00 0. -1.
          1   -1    0    0  501    0 -0.00000000000E+00 -0.00000000000E+00 -0.28795923250E+03  0.28795923250E+03  0.00000000000E+00 0. -1.
         25    2    1    2    0    0 -0.10449463987E+03  0.38172738084E+02  0.24834519676E+03  0.29946260490E+03  0.12500490904E+03 0.  0.
          2    1    1    2  501    0  0.42450858295E+02 -0.35606932422E+02 -0.25857343481E+03  0.26444309444E+03  0.00000000000E+00 0. -1.
          1    1    1    2  502    0  0.62043781578E+02 -0.25658056619E+01  0.10795096830E+04  0.10812942106E+04  0.00000000000E+00 0. -1.
         22    1    3    3    0    0 -0.12399015474E+03  0.31071941803E+02  0.24766167603E+03  0.27870294188E+03  0.00000000000E+00 0. -1.
         22    1    3    3    0    0  0.19495514871E+02  0.71007962807E+01  0.68352072839E+00  0.20759663015E+02  0.00000000000E+00 0. -1.
</event>
<event>
 7    1  0.6152634E-006  0.8999596E+02  0.7818608E-02  0.1380002E+00
          2   -1    0    0  502    0  0.00000000000E+00  0.00000000000E+00  0.14651689727E+04  0.14651689727E+04  0.00000000000E+00 0. -1.
          1   -1    0    0  501    0 -0.00000000000E+00 -0.00000000000E+00 -0.16432433498E+03  0.16432433498E+03  0.00000000000E+00 0. -1.
         25    2    1    2    0    0 -0.90757621923E+02  0.32501083406E+02  0.37701798812E+03  0.40873085688E+03  0.12500033458E+03 0.  0.
          2    1    1    2  501    0  0.13239987843E+01 -0.46155268765E+02 -0.14291614858E+03  0.15019017056E+03  0.00000000000E+00 0. -1.
          1    1    1    2  502    0  0.89433623138E+02  0.13654185359E+02  0.10667427982E+04  0.10705722803E+04  0.00000000000E+00 0. -1.
         22    1    3    3    0    0 -0.28739134887E+02 -0.39149221349E+02  0.56531803367E+02  0.74528143666E+02  0.00000000000E+00 0. -1.
         22    1    3    3    0    0 -0.62018487036E+02  0.71650304755E+02  0.32048618475E+03  0.33420271322E+03  0.00000000000E+00 0. -1.
</event>
<event>
 7    1  0.6152634E-006  0.8390243E+02  0.7818608E-02  0.1352912E+00
          2   -1    0    0  502    0  0.00000000000E+00  0.00000000000E+00  0.92354832297E+03  0.92354832297E+03  0.00000000000E+00 0. -1.
          1   -1    0    0  501    0 -0.00000000000E+00 -0.00000000000E+00 -0.52342179293E+03  0.52342179293E+03  0.00000000000E+00 0. -1.
         25    2    1    2    0    0  0.81410373803E+02 -0.19589460931E+02  0.71274028355E+02  0.16649432940E+03  0.12501591363E+03 0.  0.
          2    1    1    2  501    0 -0.75824536900E+01  0.61588798037E+02 -0.47153168675E+03  0.47559731418E+03  0.00000000000E+00 0. -1.
          1    1    1    2  502    0 -0.73827920113E+02 -0.41999337106E+02  0.80038418843E+03  0.80487847232E+03  0.00000000000E+00 0. -1.
         22    1    3    3    0    0  0.97804705035E+02 -0.44661601787E+02  0.81417214708E+02  0.13486727495E+03  0.00000000000E+00 0.  1.
         22    1    3    3    0    0 -0.16394331232E+02  0.25072140856E+02 -0.10143186353E+02  0.31627054448E+02  0.00000000000E+00 0.  1.
</event>
<event>
 7    1  0.6152634E-006  0.5418830E+02  0.7818608E-02  0.1518961E+00
          2   -1    0    0  502    0  0.00000000000E+00  0.00000000000E+00  0.64366742971E+03  0.64366742971E+03  0.00000000000E+00 0. -1.
          1   -1    0    0  501    0 -0.00000000000E+00 -0.00000000000E+00 -0.22046843125E+03  0.22046843125E+03  0.00000000000E+00 0. -1.
         25    2    1    2    0    0 -0.11088196708E+02 -0.26674863801E+02 -0.11172909557E+02  0.12878499730E+03  0.12500498053E+03 0.  0.
          2    1    1    2  501    0 -0.21239028669E+02 -0.17408246555E+02 -0.14794576211E+03  0.15047289428E+03  0.00000000000E+00 0. -1.
          1    1    1    2  502    0  0.32327225377E+02  0.44083110357E+02  0.58231767012E+03  0.58487796937E+03  0.00000000000E+00 0. -1.
         22    1    3    3    0    0  0.32655695467E+02  0.31173491338E+02  0.20576675213E+02  0.49614318210E+02  0.00000000000E+00 0.  1.
         22    1    3    3    0    0 -0.43743892174E+02 -0.57848355139E+02 -0.31749584770E+02  0.79170679092E+02  0.00000000000E+00 0.  1.
</event>
<event>
 7    1  0.6152634E-006  0.8147683E+02  0.7818608E-02  0.1364674E+00
          2   -1    0    0  502    0  0.00000000000E+00  0.00000000000E+00  0.23830625282E+04  0.23830625282E+04  0.00000000000E+00 0. -1.
          1   -1    0    0  501    0 -0.00000000000E+00 -0.00000000000E+00 -0.10677842834E+04  0.10677842834E+04  0.00000000000E+00 0. -1.
         25    2    1    2    0    0 -0.28901227218E+01 -0.25342777904E+02  0.14513541915E+03  0.19323664612E+03  0.12500200923E+03 0.  0.
          2    1    1    2  501    0 -0.10382799349E+01 -0.57867462856E+02 -0.10421468187E+04  0.10437527068E+04  0.00000000000E+00 0. -1.
          1    1    1    2  502    0  0.39284026566E+01  0.83210240760E+02  0.22122896444E+04  0.22138574586E+04  0.00000000000E+00 0. -1.
         22    1    3    3    0    0 -0.25284224872E+02 -0.45340846564E+02  0.15352339551E+03  0.16206331283E+03  0.00000000000E+00 0.  1.
         22    1    3    3    0    0  0.22394102150E+02  0.19998068661E+02 -0.83879763649E+01  0.31173333296E+02  0.00000000000E+00 0.  1.
</event>
<event>
 7    1  0.6152634E-006  0.2118066E+03  0.7818608E-02  0.1296500E+00
          2   -1    0    0  502    0  0.00000000000E+00  0.00000000000E+00  0.14207008766E+04  0.14207008766E+04  0.00000000000E+00 0. -1.
          1   -1    0    0  501    0 -0.00000000000E+00 -0.00000000000E+00 -0.35523059427E+03  0.35523059427E+03  0.00000000000E+00 0. -1.
         25    2    1    2    0    0 -0.16962438036E+03  0.89595761551E+02 -0.44148856979E+02  0.23317402887E+03  0.12498470013E+03 0.  0.
          2    1    1    2  501    0  0.74322822786E+00  0.40542611868E+02 -0.20601089494E+03  0.20996367447E+03  0.00000000000E+00 0. -1.
          1    1    1    2  502    0  0.16888115213E+03 -0.13013837342E+03  0.13156300342E+04  0.13327937675E+04  0.00000000000E+00 0. -1.
         22    1    3    3    0    0 -0.11592033688E+03  0.10043542898E+03 -0.74529918018E+02  0.17052714909E+03  0.00000000000E+00 0.  1.
         22    1    3    3    0    0 -0.53704043479E+02 -0.10839667433E+02  0.30381061039E+02  0.62646879778E+02  0.00000000000E+00 0.  1.
</event>
<event>
 7    1  0.6152634E-006  0.1208566E+03  0.7818608E-02  0.1435512E+00
          2   -1    0    0  502    0  0.00000000000E+00  0.00000000000E+00  0.32745080952E+03  0.32745080952E+03  0.00000000000E+00 0. -1.
          1   -1    0    0  501    0 -0.00000000000E+00 -0.00000000000E+00 -0.54864654892E+03  0.54864654892E+03  0.00000000000E+00 0. -1.
         25    2    1    2    0    0  0.12653298752E+03 -0.21066849671E+02 -0.65558215660E+01  0.17922894061E+03  0.12500250105E+03 0.  0.
          2    1    1    2  501    0 -0.12032378555E+03 -0.31091229214E+00 -0.44727181837E+03  0.46317382217E+03  0.00000000000E+00 0. -1.
          1    1    1    2  502    0 -0.62092019698E+01  0.21377761963E+02  0.23263190053E+03  0.23369459566E+03  0.00000000000E+00 0. -1.
         22    1    3    3    0    0  0.59385785649E+02 -0.57182579145E+02  0.38155296775E+02  0.90842421626E+02  0.00000000000E+00 0. -1.
         22    1    3    3    0    0  0.67147201870E+02  0.36115729475E+02 -0.44711118341E+02  0.88386518982E+02  0.00000000000E+00 0. -1.
</event>
<event>
 7    1  0.6152634E-006  0.7425352E+02  0.7818608E-02  0.1402336E+00
          2   -1    0    0  502    0  0.00000000000E+00  0.00000000000E+00  0.11257041703E+03  0.11257041703E+03  0.00000000000E+00 0. -1.
          1   -1    0    0  501    0 -0.00000000000E+00 -0.00000000000E+00 -0.22624632953E+04  0.22624632953E+04  0.00000000000E+00 0. -1.
         25    2    1    2    0    0  0.46071763690E+00  0.73513046685E+02 -0.17871912900E+04  0.17930647916E+04  0.12499703761E+03 0.  0.
          2    1    1    2  501    0  0.46091849925E+02 -0.68864292022E+02 -0.46349646246E+03  0.47084574975E+03  0.00000000000E+00 0. -1.
          1    1    1    2  502    0 -0.46552567562E+02 -0.46487546635E+01  0.10079487420E+03  0.11112317100E+03  0.00000000000E+00 0. -1.
         22    1    3    3    0    0  0.61027721061E+02  0.51470545416E+02 -0.89891194845E+03  0.90245015976E+03  0.00000000000E+00 0.  1.
         22    1    3    3    0    0 -0.60567003424E+02  0.22042501270E+02 -0.88827934153E+03  0.89061463179E+03  0.00000000000E+00 0.  1.
</event>
<event>
 7    1  0.6152634E-006  0.1705545E+03  0.7818608E-02  0.1232277E+00
          2   -1    0    0  502    0  0.00000000000E+00  0.00000000000E+00  0.37818110135E+03  0.37818110135E+03  0.00000000000E+00 0. -1.
          1   -1    0    0  501    0 -0.00000000000E+00 -0.00000000000E+00 -0.22611416230E+04  0.22611416230E+04  0.00000000000E+00 0. -1.
         25    2    1    2    0    0  0.20944540772E+02 -0.86834133108E+02 -0.19399358052E+03  0.24745122909E+03  0.12497904238E+03 0.  0.
          2    1    1    2  501    0 -0.18882160890E+02 -0.92365376151E+02 -0.20164003343E+04  0.20186030335E+04  0.00000000000E+00 0. -1.
          1    1    1    2  502    0 -0.20623798821E+01  0.17919950926E+03  0.32743339320E+03  0.37326846172E+03  0.00000000000E+00 0. -1.
         22    1    3    3    0    0  0.53349886944E+02 -0.57916966273E+01 -0.12553946949E+03  0.13652806519E+03  0.00000000000E+00 0.  1.
         22    1    3    3    0    0 -0.32405346172E+02 -0.81042436481E+02 -0.68454111036E+02  0.11092316390E+03  0.00000000000E+00 0.  1.
</event>
<event>
 7    1  0.6152634E-006  0.1111001E+03  0.7818608E-02  0.1285259E+00
          2   -1    0    0  502    0  0.00000000000E+00  0.00000000000E+00  0.91868486985E+03  0.91868486985E+03  0.00000000000E+00 0. -1.
          1   -1    0    0  501    0 -0.00000000000E+00 -0.00000000000E+00 -0.30064356560E+04  0.30064356560E+04  0.00000000000E+00 0. -1.
         25    2    1    2    0    0  0.33178594497E+02  0.18092310560E+03  0.45119784418E+03  0.50302896994E+03  0.12499864293E+03 0.  0.
          2    1    1    2  501    0  0.15131559472E+02 -0.10992556120E+03 -0.29753009261E+04  0.29773693412E+04  0.00000000000E+00 0. -1.
          1    1    1    2  502    0 -0.48310153970E+02 -0.70997544401E+02  0.43635229573E+03  0.44472221473E+03  0.00000000000E+00 0. -1.
         22    1    3    3    0    0  0.73575009947E+02  0.16167433137E+03  0.36284299644E+03  0.40398875180E+03  0.00000000000E+00 0.  1.
         22    1    3    3    0    0 -0.40396415450E+02  0.19248774226E+02  0.88354847741E+02  0.99040218143E+02  0.00000000000E+00 0.  1.
</event>
<event>
 7    1  0.6152634E-006  0.4879883E+02  0.7818608E-02  0.1468411E+00
          2   -1    0    0  502    0  0.00000000000E+00  0.00000000000E+00  0.55688354365E+02  0.55688354365E+02  0.00000000000E+00 0. -1.
          1   -1    0    0  501    0 -0.00000000000E+00 -0.00000000000E+00 -0.20069768216E+04  0.20069768216E+04  0.00000000000E+00 0. -1.
         25    2    1    2    0    0  0.59428819083E+02  0.11896008680E+02 -0.11461842086E+04  0.11545699124E+04  0.12498057078E+03 0.  0.
          2    1    1    2  501    0 -0.32350816187E+02  0.28771498915E+02 -0.84433026030E+03  0.84543950872E+03  0.00000000000E+00 0. -1.
          1    1    1    2  502    0 -0.27078002897E+02 -0.40667507595E+02  0.39226001614E+02  0.62655754863E+02  0.00000000000E+00 0. -1.
         22    1    3    3    0    0 -0.14796016251E+02  0.41429352011E+02 -0.18875037636E+03  0.19380923064E+03  0.00000000000E+00 0. -1.
         22    1    3    3    0    0  0.74224835334E+02 -0.29533343331E+02 -0.95743383220E+03  0.96076068174E+03  0.00000000000E+00 0. -1.
</event>
<event>
 7    1  0.6152634E-006  0.9608596E+02  0.7818608E-02  0.1379124E+00
          2   -1    0    0  502    0  0.00000000000E+00  0.00000000000E+00  0.31290012192E+03  0.31290012192E+03  0.00000000000E+00 0. -1.
          1   -1    0    0  501    0 -0.00000000000E+00 -0.00000000000E+00 -0.43059766219E+03  0.43059766219E+03  0.00000000000E+00 0. -1.
         25    2    1    2    0    0  0.55185873958E+02  0.72204916494E+01 -0.81433501366E+02  0.15923049354E+03  0.12500127498E+03 0.  0.
          2    1    1    2  501    0  0.42517194257E+02  0.94682541727E+01 -0.29967546471E+03  0.30282460897E+03  0.00000000000E+00 0. -1.
          1    1    1    2  502    0 -0.97703068215E+02 -0.16688745822E+02  0.26341142581E+03  0.28144268160E+03  0.00000000000E+00 0. -1.
         22    1    3    3    0    0  0.51189141774E+02  0.21244730137E+02  0.18354323333E+02  0.58382771253E+02  0.00000000000E+00 0.  1.
         22    1    3    3    0    0  0.39967321841E+01 -0.14024238487E+02 -0.99787824699E+02  0.10084772229E+03  0.00000000000E+00 0.  1.
</event>
<event>
 7    1  0.6152634E-006  0.3849498E+02  0.7818608E-02  0.1622759E+00
          2   -1    0    0  502    0  0.00000000000E+00  0.00000000000E+00  0.52107684902E+03  0.52107684902E+03  0.00000000000E+00 0. -1.
          1   -1    0    0  501    0 -0.00000000000E+00 -0.00000000000E+00 -0.61887782913E+02  0.61887782913E+02  0.00000000000E+00 0. -1.
         25    2    1    2    0    0  0.21923074951E+02  0.25934270657E+01  0.25165595111E+03  0.28185801367E+03  0.12500350018E+03 0.  0.
          2    1    1    2  501    0 -0.37762799652E+02  0.99332713571E+01 -0.38152624960E+02  0.54592322801E+02  0.00000000000E+00 0. -1.
          1    1    1    2  502    0  0.15839724701E+02 -0.12526698423E+02  0.24568573996E+03  0.24651429547E+03  0.00000000000E+00 0. -1.
         22    1    3    3    0    0  0.61000534518E+01 -0.59065202766E+02  0.15637238095E+03  0.16726694340E+03  0.00000000000E+00 0.  1.
         22    1    3    3    0    0  0.15823021499E+02  0.61658629832E+02  0.95283570160E+02  0.11459107027E+03  0.00000000000E+00 0.  1.
</event>
<event>
 7    1  0.6152634E-006  0.8268881E+02  0.7818608E-02  0.1342872E+00
          2   -1    0    0  502    0  0.00000000000E+00  0.00000000000E+00  0.74875694250E+03  0.74875694250E+03  0.00000000000E+00 0. -1.
          1   -1    0    0  501    0 -0.00000000000E+00 -0.00000000000E+00 -0.27509139897E+03  0.27509139897E+03  0.00000000000E+00 0. -1.
         25    2    1    2    0    0  0.77827453319E+02  0.98469008515E+02 -0.25388187983E+01  0.17716082622E+03  0.12500501837E+03 0.  0.
          2    1    1    2  501    0 -0.15293399433E+01 -0.68597484379E+02 -0.17623617480E+03  0.18912203217E+03  0.00000000000E+00 0. -1.
          1    1    1    2  502    0 -0.76298113376E+02 -0.29871524136E+02  0.65244053712E+03  0.65756548308E+03  0.00000000000E+00 0. -1.
         22    1    3    3    0    0  0.67207898720E+01  0.42613206109E+02  0.55063652178E+02  0.69950412025E+02  0.00000000000E+00 0.  1.
         22    1    3    3    0    0  0.71106663447E+02  0.55855802406E+02 -0.57602470976E+02  0.10721041419E+03  0.00000000000E+00 0.  1.
</event>
<event>
 7    1  0.6152634E-006  0.3483626E+03  0.7818608E-02  0.1199402E+00
          2   -1    0    0  502    0  0.00000000000E+00  0.00000000000E+00  0.46377276167E+03  0.46377276167E+03  0.00000000000E+00 0. -1.
          1   -1    0    0  501    0 -0.00000000000E+00 -0.00000000000E+00 -0.14480048469E+04  0.14480048469E+04  0.00000000000E+00 0. -1.
         25    2    1    2    0    0  0.37669381729E+03 -0.97724884710E+02 -0.64984172052E+03  0.76770251540E+03  0.12499802140E+03 0.  0.
          2    1    1    2  501    0 -0.34888180915E+02  0.55250065388E+02 -0.66407775134E+03  0.66728480780E+03  0.00000000000E+00 0. -1.
          1    1    1    2  502    0 -0.34180563637E+03  0.42474819321E+02  0.32968738662E+03  0.47679028538E+03  0.00000000000E+00 0. -1.
         22    1    3    3    0    0  0.78880519053E+02  0.31090285454E+01 -0.23004404172E+03  0.24321197231E+03  0.00000000000E+00 0. -1.
         22    1    3    3    0    0  0.29781329823E+03 -0.10083391326E+03 -0.41979767880E+03  0.52449054310E+03  0.00000000000E+00 0. -1.
</event>
<event>
 7    1  0.6152634E-006  0.9741145E+02  0.7818608E-02  0.1290892E+00
          2   -1    0    0  502    0  0.00000000000E+00  0.00000000000E+00  0.91220607909E+03  0.91220607909E+03  0.00000000000E+00 0. -1.
          1   -1    0    0  501    0 -0.00000000000E+00 -0.00000000000E+00 -0.30010381764E+03  0.30010381764E+03  0.00000000000E+00 0. -1.
         25    2    1    2    0    0 -0.31971243207E+02 -0.21465078538E+01  0.27978653031E+02  0.13203973835E+03  0.12499967836E+03 0.  0.
          2    1    1    2  501    0 -0.19395578073E+02  0.90846856628E+02 -0.23607366645E+03  0.25369295575E+03  0.00000000000E+00 0. -1.
          1    1    1    2  502    0  0.51366821280E+02 -0.88700348774E+02  0.82019727487E+03  0.82657720262E+03  0.00000000000E+00 0. -1.
         22    1    3    3    0    0 -0.58267593392E+02 -0.17265900890E+02 -0.29116728605E+02  0.67386999175E+02  0.00000000000E+00 0.  1.
         22    1    3    3    0    0  0.26296350185E+02  0.15119393036E+02  0.57095381636E+02  0.64652739176E+02  0.00000000000E+00 0.  1.
</event>
<event>
 7    1  0.6152634E-006  0.6156895E+02  0.7818608E-02  0.1442962E+00
          2   -1    0    0  502    0  0.00000000000E+00  0.00000000000E+00  0.20357263167E+04  0.20357263167E+04  0.00000000000E+00 0. -1.
          1   -1    0    0  501    0 -0.00000000000E+00 -0.00000000000E+00 -0.54488365848E+03  0.54488365848E+03  0.00000000000E+00 0. -1.
         25    2    1    2    0    0  0.65600518337E+01 -0.61886296579E+02  0.35890229102E+03  0.38510789336E+03  0.12499714813E+03 0.  0.
          2    1    1    2  501    0 -0.40186896690E+02  0.96487378472E+01 -0.53039674361E+03  0.53200450227E+03  0.00000000000E+00 0. -1.
          1    1    1    2  502    0  0.33626844857E+02  0.52237558732E+02  0.16623371108E+04  0.16634975795E+04  0.00000000000E+00 0. -1.
         22    1    3    3    0    0 -0.41295828743E+02  0.19058888121E+02  0.10970979209E+03  0.11876373676E+03  0.00000000000E+00 0. -1.
         22    1    3    3    0    0  0.47855880577E+02 -0.80945184699E+02  0.24919249893E+03  0.26634415660E+03  0.00000000000E+00 0. -1.
</event>
<event>
 7    1  0.6152634E-006  0.5396800E+02  0.7818608E-02  0.1466443E+00
          2   -1    0    0  502    0  0.00000000000E+00  0.00000000000E+00  0.11464582184E+04  0.11464582184E+04  0.00000000000E+00 0. -1.
          1   -1    0    0  501    0 -0.00000000000E+00 -0.00000000000E+00 -0.59402563838E+02  0.59402563838E+02  0.00000000000E+00 0. -1.
         25    2    1    2    0    0 -0.74212027752E+02  0.52106888517E+02  0.63787071696E+03  0.65629704524E+03  0.12499682853E+03 0.  0.
          2    1    1    2  501    0  0.37027826931E+02 -0.38184836908E+02 -0.35052632357E+02  0.63701089254E+02  0.00000000000E+00 0. -1.
          1    1    1    2  502    0  0.37184200820E+02 -0.13922051609E+02  0.48423756994E+03  0.48586264772E+03  0.00000000000E+00 0. -1.
         22    1    3    3    0    0  0.21935529509E+01  0.71149046102E+02  0.38230910504E+03  0.38887948034E+03  0.00000000000E+00 0.  1.
         22    1    3    3    0    0 -0.76405580703E+02 -0.19042157585E+02  0.25556161192E+03  0.26741756490E+03  0.00000000000E+00 0.  1.
</event>
<event>
 7    1  0.6152634E-006  0.4957008E+02  0.7818608E-02  0.1511497E+00
          2   -1    0    0  502    0  0.00000000000E+00  0.00000000000E+00  0.14846991011E+02  0.14846991011E+02  0.00000000000E+00 0. -1.
          1   -1    0    0  501    0 -0.00000000000E+00 -0.00000000000E+00 -0.34854758471E+04  0.34854758471E+04  0.00000000000E+00 0. -1.
         25    2    1    2    0    0  0.38129124994E+02 -0.44280817252E+02 -0.70825687613E+03  0.72157229345E+03  0.12499660449E+03 0.  0.
          2    1    1    2  501    0 -0.69303705847E+01  0.49085468700E+02 -0.27390612172E+04  0.27395097673E+04  0.00000000000E+00 0. -1.
          1    1    1    2  502    0 -0.31198754409E+02 -0.48046514476E+01 -0.23310762765E+02  0.39240777424E+02  0.00000000000E+00 0. -1.
         22    1    3    3    0    0 -0.33182642763E+02 -0.13903259937E+02 -0.70767370562E+02  0.79387714124E+02  0.00000000000E+00 0.  1.
         22    1    3    3    0    0  0.71311767757E+02 -0.30377557316E+02 -0.63748950557E+03  0.64218457932E+03  0.00000000000E+00 0.  1.
</event>
<event>
 7    1  0.6152634E-006  0.1028017E+03  0.7818608E-02  0.1313332E+00
          2   -1    0    0  502    0  0.00000000000E+00  0.00000000000E+00  0.35052356826E+04  0.35052356826E+04  0.00000000000E+00 0. -1.
          1   -1    0    0  501    0 -0.00000000000E+00 -0.00000000000E+00 -0.16140672346E+04  0.16140672346E+04  0.00000000000E+00 0. -1.
         25    2    1    2    0    0  0.80768894161E+02 -0.14369125877E+03  0.20652382225E+03  0.29231469727E+03  0.12500000389E+03 0.  0.
          2    1    1    2  501    0 -0.72280429517E+02  0.72571984895E+02 -0.15691079454E+04  0.15724474229E+04  0.00000000000E+00 0. -1.
          1    1    1    2  502    0 -0.84884646442E+01  0.71119273875E+02  0.32537525711E+04  0.32545407970E+04  0.00000000000E+00 0. -1.
         22    1    3    3    0    0 -0.24288900358E+02 -0.42599995193E+02  0.10119807398E+03  0.11245337011E+03  0.00000000000E+00 0.  1.
         22    1    3    3    0    0  0.10505779452E+03 -0.10109126358E+03  0.10532574827E+03  0.17986132717E+03  0.00000000000E+00 0.  1.
</event>
<event>
 7    1  0.6152634E-006  0.2650158E+03  0.7818608E-02  0.1262453E+00
          2   -1    0    0  502    0  0.00000000000E+00  0.00000000000E+00  0.74796997856E+03  0.74796997856E+03  0.00000000000E+00 0. -1.
          1   -1    0    0  501    0 -0.00000000000E+00 -0.00000000000E+00 -0.57124623804E+03  0.57124623804E+03  0.00000000000E+00 0. -1.
         25    2    1    2    0    0  0.26593253505E+03  0.71842635641E+02 -0.13062609764E+03  0.32949637133E+03  0.12499281516E+03 0.  0.
          2    1    1    2  501    0 -0.25944123728E+03 -0.27492745454E+02 -0.29034847207E+03  0.39034323599E+03  0.00000000000E+00 0. -1.
          1    1    1    2  502    0 -0.64912977691E+01 -0.44349890187E+02  0.59769831022E+03  0.59937660928E+03  0.00000000000E+00 0. -1.
         22    1    3    3    0    0  0.16367166364E+03  0.81673785145E+02 -0.13393554668E+03  0.22671072168E+03  0.00000000000E+00 0. -1.
         22    1    3    3    0    0  0.10226087141E+03 -0.98311495043E+01  0.33094490419E+01  0.10278564965E+03  0.00000000000E+00 0. -1.
</event>
<event>
 7    1  0.6152634E-006  0.1423164E+03  0.7818608E-02  0.1240319E+00
          2   -1    0    0  502    0  0.00000000000E+00  0.00000000000E+00  0.10578905184E+04  0.10578905184E+04  0.00000000000E+00 0. -1.
          1   -1    0    0  501    0 -0.00000000000E+00 -0.00000000000E+00 -0.61130875511E+02  0.61130875511E+02  0.00000000000E+00 0. -1.
         25    2    1    2    0    0  0.97912990837E+02 -0.10171795208E+03  0.45081100182E+03  0.48866073983E+03  0.12500105496E+03 0.  0.
          2    1    1    2  501    0  0.58659300372E+02  0.85963425862E+02  0.61249326933E+02  0.12075638350E+03  0.00000000000E+00 0. -1.
          1    1    1    2  502    0 -0.15657229121E+03  0.15754526217E+02  0.48469931419E+03  0.50960427063E+03  0.00000000000E+00 0. -1.
         22    1    3    3    0    0  0.34332151379E+02  0.84956729920E+01  0.22661971480E+02  0.42005214311E+02  0.00000000000E+00 0. -1.
         22    1    3    3    0    0  0.63580839457E+02 -0.11021362507E+03  0.42814903034E+03  0.44665552552E+03  0.00000000000E+00 0. -1.
</event>
<event>
 7    1  0.6152634E-006  0.2144579E+03  0.7818608E-02  0.1264158E+00
          2   -1    0    0  502    0  0.00000000000E+00  0.00000000000E+00  0.36964329879E+04  0.36964329879E+04  0.00000000000E+00 0. -1.
          1   -1    0    0  501    0 -0.00000000000E+00 -0.00000000000E+00 -0.14170397450E+03  0.14170397450E+03  0.00000000000E+00 0. -1.
         25    2    1    2    0    0 -0.14348612204E+03 -0.22415532991E+03  0.22388530956E+04  0.22580793042E+04  0.12500032547E+03 0.  0.
          2    1    1    2  501    0  0.12155689720E+03  0.17429037053E+03 -0.45733828501E+02  0.21735867957E+03  0.00000000000E+00 0. -1.
          1    1    1    2  502    0  0.21929224842E+02  0.49864959382E+02  0.13616097464E+04  0.13626989787E+04  0.00000000000E+00 0. -1.
         22    1    3    3    0    0 -0.19095106522E+02  0.14956535759E+02  0.16069030109E+03  0.16251059633E+03  0.00000000000E+00 0.  1.
         22    1    3    3    0    0 -0.12439101552E+03 -0.23911186567E+03  0.20781627945E+04  0.20955687079E+04  0.00000000000E+00 0.  1.
</event>
<event>
 7    1  0.6152634E-006  0.1194030E+03  0.7818608E-02  0.1399767E+00
          2   -1    0    0  502    0  0.00000000000E+00  0.00000000000E+00  0.18088074735E+04  0.18088074735E+04  0.00000000000E+00 0. -1.
          1   -1    0    0  501    0 -0.00000000000E+00 -0.00000000000E+00 -0.14082945049E+03  0.14082945049E+03  0.00000000000E+00 0. -1.
         25    2    1    2    0    0 -0.96162942111E+02 -0.21451159634E+02  0.10243467428E+03  0.18927596523E+03  0.12500025934E+03 0.  0.
          2    1    1    2  501    0 -0.24291853904E+02  0.17071647402E+02 -0.92907181691E+02  0.97536043188E+02  0.00000000000E+00 0. -1.
          1    1    1    2  502    0  0.12045479602E+03  0.43795122327E+01  0.16584505304E+04  0.16628249155E+04  0.00000000000E+00 0. -1.
         22    1    3    3    0    0 -0.21291991586E+02  0.50249898493E+02  0.25841139627E+02  0.60383488650E+02  0.00000000000E+00 0. -1.
         22    1    3    3    0    0 -0.74870950525E+02 -0.71701058127E+02  0.76593534653E+02  0.12889247658E+03  0.00000000000E+00 0. -1.
</event>
<event>
 7    1  0.6152634E-006  0.4341328E+02  0.7818608E-02  0.1558198E+00
          2   -1    0    0  502    0  0.00000000000E+00  0.00000000000E+00  0.71058424089E+02  0.71058424089E+02  0.00000000000E+00 0. -1.
          1   -1    0    0  501    0 -0.00000000000E+00 -0.00000000000E+00 -0.13454096630E+04  0.13454096630E+04  0.00000000000E+00 0. -1.
         25    2    1    2    0    0 -0.20099046264E+00  0.32123887390E+02 -0.43332313940E+03  0.45213584293E+03  0.12500357112E+03 0.  0.
          2    1    1    2  501    0  0.26503726393E+02 -0.35647592028E+02 -0.89925057132E+03  0.90034703773E+03  0.00000000000E+00 0. -1.
          1    1    1    2  502    0 -0.26302735931E+02  0.35237046377E+01  0.58222471830E+02  0.63985206398E+02  0.00000000000E+00 0. -1.
         22    1    3    3    0    0 -0.51188169763E+02  0.45501950388E+02 -0.31865293916E+03  0.32592997998E+03  0.00000000000E+00 0.  1.
         22    1    3    3    0    0  0.50987179301E+02 -0.13378062997E+02 -0.11467020024E+03  0.12620586296E+03  0.00000000000E+00 0.  1.
</event>
<event>
 7    1  0.6152634E-006  0.4315280E+02  0.7818608E-02  0.1488015E+00
          2   -1    0    0  502    0  0.00000000000E+00  0.00000000000E+00  0.84339654444E+02  0.84339654444E+02  0.00000000000E+00 0. -1.
          1   -1    0    0  501    0 -0.00000000000E+00 -0.00000000000E+00 -0.13358656993E+04  0.13358656993E+04  0.00000000000E+00 0. -1.
         25    2    1    2    0    0  0.43727740338E+02  0.13258436422E+02 -0.44481373216E+03  0.46429852518E+03  0.12500385094E+03 0.  0.
          2    1    1    2  501    0 -0.12550038229E+02 -0.42306650077E+02 -0.87462207122E+03  0.87573461937E+03  0.00000000000E+00 0. -1.
          1    1    1    2  502    0 -0.31177702109E+02  0.29048213655E+02  0.67909758523E+02  0.80172209200E+02  0.00000000000E+00 0. -1.
         22    1    3    3    0    0 -0.36760639336E+02  0.24157716077E+02 -0.88306810351E+02  0.98656133133E+02  0.00000000000E+00 0. -1.
         22    1    3    3    0    0  0.80488379674E+02 -0.10899279654E+02 -0.35650692181E+03  0.36564239204E+03  0.00000000000E+00 0. -1.
</event>
<event>
 7    1  0.6152634E-006  0.4306004E+02  0.7818608E-02  0.1574534E+00
          2   -1    0    0  502    0  0.00000000000E+00  0.00000000000E+00  0.13299075494E+03  0.13299075494E+03  0.00000000000E+00 0. -1.
          1   -1    0    0  501    0 -0.00000000000E+00 -0.00000000000E+00 -0.52127892732E+03  0.52127892732E+03  0.00000000000E+00 0. -1.
         25    2    1    2    0    0  0.23683041774E+02 -0.17423045950E+02 -0.13126182881E+03  0.18362705423E+03  0.12499911338E+03 0.  0.
          2    1    1    2  501    0  0.19743188930E+02  0.13898088390E+02 -0.35896885982E+03  0.35977992258E+03  0.00000000000E+00 0. -1.
          1    1    1    2  502    0 -0.43426230703E+02  0.35249575598E+01  0.10194251626E+03  0.11086270545E+03  0.00000000000E+00 0. -1.
         22    1    3    3    0    0  0.54385317805E+02 -0.53319933710E+02 -0.10458600207E+03  0.12937932583E+03  0.00000000000E+00 0.  1.
         22    1    3    3    0    0 -0.30702276031E+02  0.35896887759E+02 -0.26675826741E+02  0.54247728401E+02  0.00000000000E+00 0.  1.
</event>
<event>
 7    1  0.6152634E-006  0.6144265E+02  0.7818608E-02  0.1510334E+00
          2   -1    0    0  502    0  0.00000000000E+00  0.00000000000E+00  0.27299232165E+03  0.27299232165E+03  0.00000000000E+00 0. -1.
          1   -1    0    0  501    0 -0.00000000000E+00 -0.00000000000E+00 -0.19842071442E+03  0.19842071442E+03  0.00000000000E+00 0. -1.
         25    2    1    2    0    0 -0.60573647535E+02  0.31604853347E+02 -0.37217829331E+02  0.14723344283E+03  0.12499794533E+03 0.  0.
          2    1    1    2  501    0  0.39607965141E+02 -0.46413589834E+02 -0.96577510674E+02  0.11423759360E+03  0.00000000000E+00 0. -1.
          1    1    1    2  502    0  0.20965682394E+02  0.14808736488E+02  0.20836694723E+03  0.20994199964E+03  0.00000000000E+00 0. -1.
         22    1    3    3    0    0 -0.88013586621E+02  0.10091901885E+02  0.93237186102E+01  0.89079569163E+02  0.00000000000E+00 0. -1.
         22    1    3    3    0    0  0.27439939086E+02  0.21512951462E+02 -0.46541547942E+02  0.58153873667E+02  0.00000000000E+00 0. -1.
</event>
<event>
 7    1  0.6152634E-006  0.5068358E+02  0.7818608E-02  0.1519708E+00
          2   -1    0    0  502    0  0.00000000000E+00  0.00000000000E+00  0.38259563997E+04  0.38259563997E+04  0.00000000000E+00 0. -1.
          1   -1    0    0  501    0 -0.00000000000E+00 -0.00000000000E+00 -0.14586964936E+04  0.14586964936E+04  0.00000000000E+00 0. -1.
         25    2    1    2    0    0 -0.48737876151E+01  0.72206733559E+02  0.12187639469E+03  0.18898882585E+03  0.12500141814E+03 0.  0.
          2    1    1    2  501    0  0.17672750482E+02 -0.23262289852E+02 -0.14248162182E+04  0.14251156851E+04  0.00000000000E+00 0. -1.
          1    1    1    2  502    0 -0.12798962867E+02 -0.48944443707E+02  0.36701997296E+04  0.36705483824E+04  0.00000000000E+00 0. -1.
         22    1    3    3    0    0  0.15486732403E+02  0.37732336582E+02 -0.17199101250E+02  0.44264852742E+02  0.00000000000E+00 0.  1.
         22    1    3    3    0    0 -0.20360520018E+02  0.34474396978E+02  0.13907549594E+03  0.14472397311E+03  0.00000000000E+00 0.  1.
</event>
<event>
 7    1  0.6152634E-006  0.2674078E+02  0.7818608E-02  0.1682511E+00
          2   -1    0    0  502    0  0.00000000000E+00  0.00000000000E+00  0.27913482216E+03  0.27913482216E+03  0.00000000000E+00 0. -1.
          1   -1    0    0  501    0 -0.00000000000E+00 -0.00000000000E+00 -0.26952564379E+03  0.26952564379E+03  0.00000000000E+00 0. -1.
         25    2    1    2    0    0  0.73636318092E+01 -0.43030999319E+02  0.22841921153E+03  0.26401939189E+03  0.12500005249E+03 0.  0.
          2    1    1    2  501    0 -0.40706082916E+01  0.20363601391E+02 -0.24725201939E+03  0.24812256488E+03  0.00000000000E+00 0. -1.
          1    1    1    2  502    0 -0.32930235176E+01  0.22667397928E+02  0.28441986225E+02  0.36518509185E+02  0.00000000000E+00 0. -1.
         22    1    3    3    0    0 -0.36806451318E+02 -0.42403722477E+02  0.36241328326E+02  0.66829816829E+02  0.00000000000E+00 0. -1.
         22    1    3    3    0    0  0.44170083128E+02 -0.62727684206E+00  0.19217788321E+03  0.19718957506E+03  0.00000000000E+00 0. -1.
</event>
<event>
 7    1  0.6152634E-006  0.1008831E+03  0.7818608E-02  0.1389078E+00
          2   -1    0    0  502    0  0.00000000000E+00  0.00000000000E+00  0.61757881630E+03  0.61757881630E+03  0.00000000000E+00 0. -1.
          1   -1    0    0  501    0 -0.00000000000E+00 -0.00000000000E+00 -0.14184856521E+04  0.14184856521E+04  0.00000000000E+00 0. -1.
         25    2    1    2    0    0  0.23503896390E+02 -0.96097391345E+02 -0.74664623793E+01  0.15958723734E+03  0.12500078597E+03 0.  0.
          2    1    1    2  501    0  0.35698482118E+02  0.13796504342E+02 -0.13299359523E+04  0.13304865134E+04  0.00000000000E+00 0. -1.
          1    1    1    2  502    0 -0.59202378509E+02  0.82300887003E+02  0.53649557887E+03  0.54599071766E+03  0.00000000000E+00 0. -1.
         22    1    3    3    0    0 -0.76191276087E+01 -0.11617704831E+03 -0.24247469382E+02  0.11892475534E+03  0.00000000000E+00 0.  1.
         22    1    3    3    0    0  0.31123023999E+02  0.20079656969E+02  0.16781007003E+02  0.40662482006E+02  0.00000000000E+00 0.  1.
</event>
<event>
 7    1  0.6152634E-006  0.1137039E+03  0.7818608E-02  0.1387724E+00
          2   -1    0    0  502    0  0.00000000000E+00  0.00000000000E+00  0.10123220284E+04  0.10123220284E+04  0.00000000000E+00 0. -1.
          1   -1    0    0  501    0 -0.00000000000E+00 -0.00000000000E+00 -0.91875150757E+03  0.91875150757E+03  0.00000000000E+00 0. -1.
         25    2    1    2    0    0  0.22567910065E+02 -0.10597377296E+03 -0.48149849945E+03  0.50912286480E+03  0.12500214146E+03 0.  0.
          2    1    1    2  501    0  0.94654946568E+01  0.11831537357E+03 -0.41481979767E+03  0.43146678638E+03  0.00000000000E+00 0. -1.
          1    1    1    2  502    0 -0.32033404722E+02 -0.12341600612E+02  0.98988881795E+03  0.99048388479E+03  0.00000000000E+00 0. -1.
         22    1    3    3    0    0  0.23984025730E+02 -0.13448907313E+03 -0.38689558201E+03  0.41030566126E+03  0.00000000000E+00 0.  1.
         22    1    3    3    0    0 -0.14161156650E+01  0.28515300171E+02 -0.94602917431E+02  0.98817203532E+02  0.00000000000E+00 0.  1.
</event>
<event>
 7    1  0.6152634E-006  0.1130901E+03  0.7818608E-02  0.1351588E+00
          2   -1    0    0  502    0  0.00000000000E+00  0.00000000000E+00  0.41301977999E+03  0.41301977999E+03  0.00000000000E+00 0. -1.
          1   -1    0    0  501    0 -0.00000000000E+00 -0.00000000000E+00 -0.16507387860E+04  0.16507387860E+04  0.00000000000E+00 0. -1.
         25    2    1    2    0    0 -0.24084683160E+02  0.95687840081E+02  0.69651787202E+02  0.17381934450E+03  0.12500223342E+03 0.  0.
          2    1    1    2  501    0  0.70183895126E+02 -0.89159748451E+02 -0.15947657171E+04  0.15987973393E+04  0.00000000000E+00 0. -1.
          1    1    1    2  502    0 -0.46099211966E+02 -0.65280916304E+01  0.28739492383E+03  0.29114188219E+03  0.00000000000E+00 0. -1.
         22    1    3    3    0    0 -0.71636254322E+02  0.66279658244E+02  0.21279361907E+02  0.99887723336E+02  0.00000000000E+00 0. -1.
         22    1    3    3    0    0  0.47551571162E+02  0.29408181837E+02  0.48372425295E+02  0.73931621163E+02  0.00000000000E+00 0. -1.
</event>
<event>
 7    1  0.6152634E-006  0.1276757E+03  0.7818608E-02  0.1286926E+00
          2   -1    0    0  502    0  0.00000000000E+00  0.00000000000E+00  0.14977693377E+03  0.14977693377E+03  0.00000000000E+00 0. -1.
          1   -1    0    0  501    0 -0.00000000000E+00 -0.00000000000E+00 -0.64378601088E+03  0.64378601088E+03  0.00000000000E+00 0. -1.
         25    2    1    2    0    0  0.63814326602E+02  0.15095116762E+03 -0.36052915682E+03  0.41529299475E+03  0.12501390036E+03 0.  0.
          2    1    1    2  501    0 -0.33847032061E+00 -0.11377424536E+03 -0.23018386484E+03  0.25676702495E+03  0.00000000000E+00 0. -1.
          1    1    1    2  502    0 -0.63475856281E+02 -0.37176922257E+02  0.96703944556E+02  0.12150292495E+03  0.00000000000E+00 0. -1.
         22    1    3    3    0    0  0.26101735296E+02 -0.10756496939E+02 -0.11825536339E+03  0.12157850871E+03  0.00000000000E+00 0.  1.
         22    1    3    3    0    0  0.37712591306E+02  0.16170766456E+03 -0.24227379344E+03  0.29371448603E+03  0.00000000000E+00 0.  1.
</event>
<event>
 7    1  0.6152634E-006  0.9978459E+02  0.7818608E-02  0.1301011E+00
          2   -1    0    0  502    0  0.00000000000E+00  0.00000000000E+00  0.11171585523E+04  0.11171585523E+04  0.00000000000E+00 0. -1.
          1   -1    0    0  501    0 -0.00000000000E+00 -0.00000000000E+00 -0.10232103663E+03  0.10232103663E+03  0.00000000000E+00 0. -1.
         25    2    1    2    0    0 -0.91886266416E+02 -0.10664857321E+03  0.12473132836E+03  0.22583114604E+03  0.12499919249E+03 0.  0.
          2    1    1    2  501    0 -0.39856180096E+01  0.82463339056E+02 -0.14355432395E+02  0.83798364414E+02  0.00000000000E+00 0. -1.
          1    1    1    2  502    0  0.95871884426E+02  0.24185234153E+02  0.90446161974E+03  0.90985007851E+03  0.00000000000E+00 0. -1.
         22    1    3    3    0    0 -0.98796975436E+02 -0.10712673464E+03  0.14429300942E+03  0.20507913642E+03  0.00000000000E+00 0.  1.
         22    1    3    3    0    0  0.69107090192E+01  0.47816143340E+00 -0.19561681052E+02  0.20752009615E+02  0.00000000000E+00 0.  1.
</event>
<event>
 7    1  0.6152634E-006  0.1244128E+03  0.7818608E-02  0.1238377E+00
          2   -1    0    0  502    0  0.00000000000E+00  0.00000000000E+00  0.66219638379E+03  0.66219638379E+03  0.00000000000E+00 0. -1.
          1   -1    0    0  501    0 -0.00000000000E+00 -0.00000000000E+00 -0.13212414227E+04  0.13212414227E+04  0.00000000000E+00 0. -1.
         25    2    1    2    0    0 -0.87556176198E+02 -0.18247004627E+02 -0.58588905043E+02  0.16449067871E+03  0.12500194567E+03 0.  0.
          2    1    1    2  501    0  0.86578734924E+01  0.12111044761E+03 -0.11997062841E+04  0.12058349254E+04  0.00000000000E+00 0. -1.
          1    1    1    2  502    0  0.78898302706E+02 -0.10286344298E+03  0.59925015025E+03  0.61311220233E+03  0.00000000000E+00 0. -1.
         22    1    3    3    0    0 -0.61320719776E+02 -0.49769808268E+01 -0.97763529274E+02  0.11551064309E+03  0.00000000000E+00 0. -1.
         22    1    3    3    0    0 -0.26235456422E+02 -0.13270023801E+02  0.39174624232E+02  0.48980035617E+02  0.00000000000E+00 0. -1.
</event>
<event>
 7    1  0.6361968E-006  0.1162048E+03  0.7818608E-02  0.1332529E+00
          2   -1    0    0  502    0  0.00000000000E+00  0.00000000000E+00  0.11120714307E+04  0.11120714307E+04  0.00000000000E+00 0. -1.
          1   -1    0    0  501    0 -0.00000000000E+00 -0.00000000000E+00 -0.99353791050E+03  0.99353791050E+03  0.00000000000E+00 0. -1.
         25    2    1    2    0    0 -0.12289490216E+03  0.27337668182E+02 -0.32328826911E+03  0.36876962958E+03  0.12500091870E+03 0.  0.
          2    1    1    2  501    0  0.94450115457E+01 -0.52576223592E+02 -0.64329875558E+03  0.64551278567E+03  0.00000000000E+00 0. -1.
          1    1    1    2  502    0  0.11344989061E+03  0.25238555410E+02  0.10851205449E+04  0.10913269260E+04  0.00000000000E+00 0. -1.
         22    1    3    3    0    0 -0.54513967383E+02  0.20276071716E+02 -0.28336629116E+03  0.28927382649E+03  0.00000000000E+00 0.  1.
         22    1    3    3    0    0 -0.68380934776E+02  0.70615964656E+01 -0.39921977946E+02  0.79495803088E+02  0.00000000000E+00 0.  1.
</event>
<event>
 7    1  0.6152634E-006  0.6822865E+02  0.7818608E-02  0.1523321E+00
          2   -1    0    0  502    0  0.00000000000E+00  0.00000000000E+00  0.13205944973E+03  0.13205944973E+03  0.00000000000E+00 0. -1.
          1   -1    0    0  501    0 -0.00000000000E+00 -0.00000000000E+00 -0.38519373572E+03  0.38519373572E+03  0.00000000000E+00 0. -1.
         25    2    1    2    0    0 -0.49285168982E+02  0.17979265445E+02 -0.10523375589E+03  0.17161083379E+03  0.12499541203E+03 0.  0.
          2    1    1    2  501    0 -0.10042782548E+02  0.18653038937E+02 -0.23393988828E+03  0.23489713636E+03  0.00000000000E+00 0. -1.
          1    1    1    2  502    0  0.59327951530E+02 -0.36632304382E+02  0.86039358180E+02  0.11074521531E+03  0.00000000000E+00 0. -1.
         22    1    3    3    0    0  0.15425920246E+02 -0.30643622342E+02 -0.79644998433E+02  0.86719757732E+02  0.00000000000E+00 0. -1.
         22    1    3    3    0    0 -0.64711089228E+02  0.48622887787E+02 -0.25588757457E+02  0.84891076057E+02  0.00000000000E+00 0. -1.
</event>
<event>
 7    1  0.6152634E-006  0.1409752E+03  0.7818608E-02  0.1275264E+00
          2   -1    0    0  502    0  0.00000000000E+00  0.00000000000E+00  0.14934326123E+04  0.14934326123E+04  0.00000000000E+00 0. -1.
          1   -1    0    0  501    0 -0.00000000000E+00 -0.00000000000E+00 -0.10938491816E+03  0.10938491816E+03  0.00000000000E+00 0. -1.
         25    2    1    2    0    0 -0.46412657954E+02 -0.92909871262E+02  0.24450813838E+03  0.29359065917E+03  0.12499946569E+03 0.  0.
          2    1    1    2  501    0  0.23261629515E+01  0.15287377226E+03 -0.13777381981E+02  0.15351096878E+03  0.00000000000E+00 0. -1.
          1    1    1    2  502    0  0.44086495002E+02 -0.59963901002E+02  0.11533169377E+04  0.11557159025E+04  0.00000000000E+00 0. -1.
         22    1    3    3    0    0 -0.38428294855E+02 -0.79879717850E+02  0.25824964810E+03  0.27303916187E+03  0.00000000000E+00 0.  1.
         22    1    3    3    0    0 -0.79843630982E+01 -0.13030153412E+02 -0.13741509720E+02  0.20551497303E+02  0.00000000000E+00 0.  1.
</event>
<event>
 7    1  0.6152634E-006  0.2038618E+03  0.7818608E-02  0.1220896E+00
          2   -1    0    0  502    0  0.00000000000E+00  0.00000000000E+00  0.34014224216E+04  0.34014224216E+04  0.00000000000E+00 0. -1.
          1   -1    0    0  501    0 -0.00000000000E+00 -0.00000000000E+00 -0.47808377173E+03  0.47808377173E+03  0.00000000000E+00 0. -1.
         25    2    1    2    0    0  0.19084507367E+03 -0.18842689025E+02  0.79408594126E+03  0.82642284594E+03  0.12500139645E+03 0.  0.
          2    1    1    2  501    0  0.82807296364E+01  0.88379968079E+02 -0.45331135260E+03  0.46192074172E+03  0.00000000000E+00 0. -1.
          1    1    1    2  502    0 -0.19912580331E+03 -0.69537279054E+02  0.25825640612E+04  0.25911626056E+04  0.00000000000E+00 0. -1.
         22    1    3    3    0    0  0.11114876088E+03 -0.52569274679E+02  0.61929121635E+03  0.63137879782E+03  0.00000000000E+00 0.  1.
         22    1    3    3    0    0  0.79696312787E+02  0.33726585654E+02  0.17479472491E+03  0.19504404812E+03  0.00000000000E+00 0.  1.
</event>
<event>
 7    1  0.6152634E-006  0.9970157E+02  0.7818608E-02  0.1326342E+00
          2   -1    0    0  502    0  0.00000000000E+00  0.00000000000E+00  0.14816336071E+04  0.14816336071E+04  0.00000000000E+00 0. -1.
          1   -1    0    0  501    0 -0.00000000000E+00 -0.00000000000E+00 -0.10325766458E+04  0.10325766458E+04  0.00000000000E+00 0. -1.
         25    2    1    2    0    0  0.42313797132E+02  0.15732608333E+03 -0.86536816611E+02  0.22283530604E+03  0.12499999625E+03 0.  0.
          2    1    1    2  501    0 -0.28376683748E+02 -0.59306285978E+02 -0.87492202610E+03  0.87738875277E+03  0.00000000000E+00 0. -1.
          1    1    1    2  502    0 -0.13937113384E+02 -0.98019797355E+02  0.14105158040E+04  0.14139861941E+04  0.00000000000E+00 0. -1.
         22    1    3    3    0    0 -0.29182412096E+02  0.10391094124E+03 -0.78032726945E+02  0.13318484659E+03  0.00000000000E+00 0.  1.
         22    1    3    3    0    0  0.71496209229E+02  0.53415142091E+02 -0.85040896663E+01  0.89650459451E+02  0.00000000000E+00 0.  1.
</event>
<event>
 7    1  0.6152634E-006  0.8727618E+02  0.7818608E-02  0.1382367E+00
          2   -1    0    0  502    0  0.00000000000E+00  0.00000000000E+00  0.13530513330E+04  0.13530513330E+04  0.00000000000E+00 0. -1.
          1   -1    0    0  501    0 -0.00000000000E+00 -0.00000000000E+00 -0.40547095993E+03  0.40547095993E+03  0.00000000000E+00 0. -1.
         25    2    1    2    0    0 -0.20152010482E+02 -0.86485126363E+02 -0.26457531128E+01  0.15335379067E+03  0.12499841797E+03 0.  0.
          2    1    1    2  501    0 -0.26486560093E+02  0.83985449066E+02 -0.32111417265E+03  0.33297057738E+03  0.00000000000E+00 0. -1.
          1    1    1    2  502    0  0.46638570575E+02  0.24996772965E+01  0.12713402988E+04  0.12721979249E+04  0.00000000000E+00 0. -1.
         22    1    3    3    0    0  0.22822871464E+02  0.15808905253E+02 -0.28115884887E+02  0.39513389251E+02  0.00000000000E+00 0. -1.
         22    1    3    3    0    0 -0.42974881946E+02 -0.10229403162E+03  0.25470131774E+02  0.11384040142E+03  0.00000000000E+00 0. -1.
</event>
<event>
 7    1  0.9554023E-006  0.6753604E+02  0.7818608E-02  0.1427538E+00
          2   -1    0    0  502    0  0.00000000000E+00  0.00000000000E+00  0.22047027450E+04  0.22047027450E+04  0.00000000000E+00 0. -1.
          1   -1    0    0  501    0 -0.00000000000E+00 -0.00000000000E+00 -0.68137689213E+03  0.68137689213E+03  0.00000000000E+00 0. -1.
         25    2    1    2    0    0 -0.52275191353E+02  0.28740346150E+01 -0.27838356350E+03  0.30961870685E+03  0.12500151799E+03 0.  0.
          2    1    1    2  501    0 -0.26671139080E+01 -0.42229631091E+02 -0.38569679505E+03  0.38801091860E+03  0.00000000000E+00 0. -1.
          1    1    1    2  502    0  0.54942305261E+02  0.39355596476E+02  0.21874062114E+04  0.21884500117E+04  0.00000000000E+00 0. -1.
         22    1    3    3    0    0  0.36322282816E+02 -0.21267617747E+01 -0.14440206086E+03  0.14891536699E+03  0.00000000000E+00 0. -1.
         22    1    3    3    0    0 -0.88597474169E+02  0.50007963898E+01 -0.13398150264E+03  0.16070333987E+03  0.00000000000E+00 0. -1.
</event>
<event>
 7    1  0.6152634E-006  0.5214425E+02  0.7818608E-02  0.1454012E+00
          2   -1    0    0  502    0  0.00000000000E+00  0.00000000000E+00  0.21148717421E+04  0.21148717421E+04  0.00000000000E+00 0. -1.
          1   -1    0    0  501    0 -0.00000000000E+00 -0.00000000000E+00 -0.25699006279E+03  0.25699006279E+03  0.00000000000E+00 0. -1.
         25    2    1    2    0    0  0.38653232850E+02 -0.55787491852E+02  0.67184727727E+02  0.15730610834E+03  0.12500042970E+03 0.  0.
          2    1    1    2  501    0  0.61456763625E+01  0.51802717588E+02 -0.20846247097E+03  0.21489042019E+03  0.00000000000E+00 0. -1.
          1    1    1    2  502    0 -0.44798909213E+02  0.39847742640E+01  0.19991594226E+04  0.19996652764E+04  0.00000000000E+00 0. -1.
         22    1    3    3    0    0  0.38170610618E+02 -0.72081846080E+02 -0.65156194236E+01  0.81824454448E+02  0.00000000000E+00 0.  1.
         22    1    3    3    0    0  0.48262223207E+00  0.16294354228E+02  0.73700347151E+02  0.75481653891E+02  0.00000000000E+00 0.  1.
</event>
<event>
 7    1  0.6152634E-006  0.1084585E+03  0.7818608E-02  0.1360219E+00
          2   -1    0    0  502    0  0.00000000000E+00  0.00000000000E+00  0.52468736911E+03  0.52468736911E+03  0.00000000000E+00 0. -1.
          1   -1    0    0  501    0 -0.00000000000E+00 -0.00000000000E+00 -0.11199155356E+04  0.11199155356E+04  0.00000000000E+00 0. -1.
         25    2    1    2    0    0  0.14223828181E+03 -0.29855446644E+02  0.55737067506E+02  0.19963565772E+03  0.12499879452E+03 0.  0.
          2    1    1    2  501    0 -0.10771598997E+03  0.78679189649E+00 -0.10439031423E+04  0.10494461034E+04  0.00000000000E+00 0. -1.
          1    1    1    2  502    0 -0.34522291842E+02  0.29068654748E+02  0.39293790823E+03  0.39552114362E+03  0.00000000000E+00 0. -1.
         22    1    3    3    0    0 -0.52764478109E+01  0.19882170656E+02  0.37664941798E+02  0.42916074520E+02  0.00000000000E+00 0.  1.
         22    1    3    3    0    0  0.14751472962E+03 -0.49737617301E+02  0.18072125708E+02  0.15671958320E+03  0.00000000000E+00 0.  1.
</event>
<event>
 7    1  0.6152634E-006  0.3873500E+02  0.7818608E-02  0.1524661E+00
          2   -1    0    0  502    0  0.00000000000E+00  0.00000000000E+00  0.24312381767E+02  0.24312381767E+02  0.00000000000E+00 0. -1.
          1   -1    0    0  501    0 -0.00000000000E+00 -0.00000000000E+00 -0.16953400715E+04  0.16953400715E+04  0.00000000000E+00 0. -1.
         25    2    1    2    0    0  0.81622181747E+01  0.13812290418E+02 -0.26564385561E+03  0.29402285355E+03  0.12500151684E+03 0.  0.
          2    1    1    2  501    0  0.33215708525E+02 -0.19927796404E+02 -0.13708256433E+04  0.13713727957E+04  0.00000000000E+00 0. -1.
          1    1    1    2  502    0 -0.41377926700E+02  0.61155059867E+01 -0.34558190771E+02  0.54256804005E+02  0.00000000000E+00 0. -1.
         22    1    3    3    0    0 -0.56444707107E+02 -0.16239959037E+01 -0.90112166377E+02  0.10634305268E+03  0.00000000000E+00 0.  1.
         22    1    3    3    0    0  0.64606925282E+02  0.15436286321E+02 -0.17553168924E+03  0.18767980087E+03  0.00000000000E+00 0.  1.
</event>
<event>
 7    1  0.6152634E-006  0.7932110E+02  0.7818608E-02  0.1498234E+00
          2   -1    0    0  502    0  0.00000000000E+00  0.00000000000E+00  0.41926744349E+03  0.41926744349E+03  0.00000000000E+00 0. -1.
          1   -1    0    0  501    0 -0.00000000000E+00 -0.00000000000E+00 -0.10690107407E+04  0.10690107407E+04  0.00000000000E+00 0. -1.
         25    2    1    2    0    0 -0.61310185047E+02 -0.25593074098E+01 -0.11618203015E+03  0.18135106023E+03  0.12499781628E+03 0.  0.
          2    1    1    2  501    0 -0.16912363109E+02 -0.13429914084E+02 -0.91599434515E+03  0.91624889139E+03  0.00000000000E+00 0. -1.
          1    1    1    2  502    0  0.78222548156E+02  0.15989221494E+02  0.38243307805E+03  0.39067823261E+03  0.00000000000E+00 0. -1.
         22    1    3    3    0    0  0.15496567325E+02  0.26313572974E+02  0.88539893700E+01  0.31795296024E+02  0.00000000000E+00 0. -1.
         22    1    3    3    0    0 -0.76806752372E+02 -0.28872880384E+02 -0.12503601952E+03  0.14955576421E+03  0.00000000000E+00 0. -1.
</event>
<event>
 7    1  0.6152634E-006  0.1071490E+03  0.7818608E-02  0.1377028E+00
          2   -1    0    0  502    0  0.00000000000E+00  0.00000000000E+00  0.29921651073E+04  0.29921651073E+04  0.00000000000E+00 0. -1.
          1   -1    0    0  501    0 -0.00000000000E+00 -0.00000000000E+00 -0.40321070415E+02  0.40321070415E+02  0.00000000000E+00 0. -1.
         25    2    1    2    0    0 -0.88711066910E+02  0.99883082336E+02  0.97485151643E+03  0.99187022706E+03  0.12499913892E+03 0.  0.
          2    1    1    2  501    0  0.49642347301E+02 -0.92627737254E+02  0.55751873190E+02  0.11896441366E+03  0.00000000000E+00 0. -1.
          1    1    1    2  502    0  0.39068719609E+02 -0.72553450827E+01  0.19212406472E+04  0.19216515369E+04  0.00000000000E+00 0. -1.
         22    1    3    3    0    0 -0.11225777789E+03  0.53483665923E+02  0.55217538942E+03  0.56600350873E+03  0.00000000000E+00 0. -1.
         22    1    3    3    0    0  0.23546710981E+02  0.46399416414E+02  0.42267612701E+03  0.42586671833E+03  0.00000000000E+00 0. -1.
</event>
<event>
 7    1  0.6152634E-006  0.1879826E+03  0.7818608E-02  0.1283693E+00
          2   -1    0    0  502    0  0.00000000000E+00  0.00000000000E+00  0.53985560724E+03  0.53985560724E+03  0.00000000000E+00 0. -1.
          1   -1    0    0  501    0 -0.00000000000E+00 -0.00000000000E+00 -0.72240539431E+03  0.72240539431E+03  0.00000000000E+00 0. -1.
         25    2    1    2    0    0  0.11571240317E+03  0.20158538363E+03 -0.15523138565E+03  0.30618354763E+03  0.12500221841E+03 0.  0.
          2    1    1    2  501    0 -0.96655729027E+01 -0.50594718904E+02 -0.47191329006E+03  0.47471612804E+03  0.00000000000E+00 0. -1.
          1    1    1    2  502    0 -0.10604683027E+03 -0.15099066473E+03  0.44459488865E+03  0.48136132588E+03  0.00000000000E+00 0. -1.
         22    1    3    3    0    0  0.36060063454E+02  0.17678693162E+03 -0.10930534525E+03  0.21095403733E+03  0.00000000000E+00 0. -1.
         22    1    3    3    0    0  0.79652339718E+02  0.24798452018E+02 -0.45926040405E+02  0.95229510302E+02  0.00000000000E+00 0. -1.
</event>
<event>
 7    1  0.6152634E-006  0.3476143E+02  0.7818608E-02  0.1551327E+00
          2   -1    0    0  502    0  0.00000000000E+00  0.00000000000E+00  0.20360865744E+04  0.20360865744E+04  0.00000000000E+00 0. -1.
          1   -1    0    0  501    0 -0.00000000000E+00 -0.00000000000E+00 -0.68002557660E+02  0.68002557660E+02  0.00000000000E+00 0. -1.
         25    2    1    2    0    0 -0.14846782905E+01  0.28283204399E+01  0.20693776148E+03  0.24178214431E+03  0.12500065805E+03 0.  0.
          2    1    1    2  501    0 -0.31046382571E+02 -0.15635833411E+02 -0.44418630687E+02  0.56403651560E+02  0.00000000000E+00 0. -1.
          1    1    1    2  502    0  0.32531060861E+02  0.12807512972E+02  0.18055648860E+04  0.18059033362E+04  0.00000000000E+00 0. -1.
         22    1    3    3    0    0 -0.40586714486E+01 -0.22009884245E+02 -0.92062306986E+01  0.24200464914E+02  0.00000000000E+00 0.  1.
         22    1    3    3    0    0  0.25739931582E+01  0.24838204685E+02  0.21614399218E+03  0.21758167940E+03  0.00000000000E+00 0.  1.
</event>
<event>
 7    1  0.6152634E-006  0.6681514E+02  0.7818608E-02  0.1415021E+00
          2   -1    0    0  502    0  0.00000000000E+00  0.00000000000E+00  0.22501106927E+04  0.22501106927E+04  0.00000000000E+00 0. -1.
          1   -1    0    0  501    0 -0.00000000000E+00 -0.00000000000E+00 -0.13135452739E+02  0.13135452739E+02  0.00000000000E+00 0. -1.
         25    2    1    2    0    0  0.27415856855E+02 -0.51088369545E+01  0.55090145754E+03  0.56559226347E+03  0.12499785261E+03 0.  0.
          2    1    1    2  501    0  0.42090359049E+02  0.21101701412E+02  0.10618046656E+03  0.11615150282E+03  0.00000000000E+00 0. -1.
          1    1    1    2  502    0 -0.69506215904E+02 -0.15992864457E+02  0.15798933159E+04  0.15815023792E+04  0.00000000000E+00 0. -1.
         22    1    3    3    0    0  0.46171716517E+02 -0.55123606165E+02  0.25669274389E+03  0.26657382491E+03  0.00000000000E+00 0. -1.
         22    1    3    3    0    0 -0.18755859662E+02  0.50014769211E+02  0.29420871365E+03  0.29901843856E+03  0.00000000000E+00 0. -1.
</event>
<event>
 7    1  0.6152634E-006  0.9125693E+02  0.7818608E-02  0.1426915E+00
          2   -1    0    0  502    0  0.00000000000E+00  0.00000000000E+00  0.19782096965E+04  0.19782096965E+04  0.00000000000E+00 0. -1.
          1   -1    0    0  501    0 -0.00000000000E+00 -0.00000000000E+00 -0.45409408896E+03  0.45409408896E+03  0.00000000000E+00 0. -1.
         25    2    1    2    0    0 -0.47188826830E+02  0.10352499201E+03 -0.68229748415E+02  0.18227337824E+03  0.12499630593E+03 0.  0.
          2    1    1    2  501    0 -0.73703538400E+01 -0.30588165963E+02 -0.32700740970E+03  0.32851758555E+03  0.00000000000E+00 0. -1.
          1    1    1    2  502    0  0.54559180670E+02 -0.72936826049E+02  0.19193527657E+04  0.19215128217E+04  0.00000000000E+00 0. -1.
         22    1    3    3    0    0 -0.71383778117E+02  0.67276728628E+02 -0.90384990779E+02  0.13338383917E+03  0.00000000000E+00 0.  1.
         22    1    3    3    0    0  0.24194951286E+02  0.36248263384E+02  0.22155242364E+02  0.48889539068E+02  0.00000000000E+00 0.  1.
</event>
<event>
 7    1  0.6152634E-006  0.4332620E+02  0.7818608E-02  0.1486937E+00
          2   -1    0    0  502    0  0.00000000000E+00  0.00000000000E+00  0.58494142828E+03  0.58494142828E+03  0.00000000000E+00 0. -1.
          1   -1    0    0  501    0 -0.00000000000E+00 -0.00000000000E+00 -0.49111922553E+03  0.49111922553E+03  0.00000000000E+00 0. -1.
         25    2    1    2    0    0  0.12178446957E+02  0.91691007958E+00 -0.29882371290E+03  0.32414757738E+03  0.12500754070E+03 0.  0.
          2    1    1    2  501    0 -0.45511052010E+02  0.26761553410E+02 -0.17491067142E+03  0.18270517117E+03  0.00000000000E+00 0. -1.
          1    1    1    2  502    0  0.33332605053E+02 -0.27678463489E+02  0.56755658707E+03  0.56920790527E+03  0.00000000000E+00 0. -1.
         22    1    3    3    0    0  0.49966068589E+02 -0.38801828785E+02 -0.10374706076E+03  0.12151396028E+03  0.00000000000E+00 0.  1.
         22    1    3    3    0    0 -0.37787621632E+02  0.39718738865E+02 -0.19507665214E+03  0.20263361709E+03  0.00000000000E+00 0.  1.
</event>
<event>
 7    1  0.6152634E-006  0.4673967E+02  0.7818608E-02  0.1573438E+00
          2   -1    0    0  502    0  0.00000000000E+00  0.00000000000E+00  0.16721289905E+03  0.16721289905E+03  0.00000000000E+00 0. -1.
          1   -1    0    0  501    0 -0.00000000000E+00 -0.00000000000E+00 -0.15691747815E+03  0.15691747815E+03  0.00000000000E+00 0. -1.
         25    2    1    2    0    0 -0.17315391736E+02 -0.58400972601E+02  0.24236457658E+02  0.14114663949E+03  0.12499788625E+03 0.  0.
          2    1    1    2  501    0  0.26157816690E+02  0.37824692131E+02 -0.91418583084E+02  0.10233423690E+03  0.00000000000E+00 0. -1.
          1    1    1    2  502    0 -0.88424249538E+01  0.20576280470E+02  0.77477546325E+02  0.80649500815E+02  0.00000000000E+00 0. -1.
         22    1    3    3    0    0  0.50285077128E+02 -0.49148129680E+02  0.62907584011E+01  0.70595334648E+02  0.00000000000E+00 0.  1.
         22    1    3    3    0    0 -0.67600468864E+02 -0.92528429206E+01  0.17945699257E+02  0.70551304840E+02  0.00000000000E+00 0.  1.
</event>
<event>
 7    1  0.6152634E-006  0.1123988E+03  0.7818608E-02  0.1322361E+00
          2   -1    0    0  502    0  0.00000000000E+00  0.00000000000E+00  0.18422831611E+03  0.18422831611E+03  0.00000000000E+00 0. -1.
          1   -1    0    0  501    0 -0.00000000000E+00 -0.00000000000E+00 -0.50799377909E+03  0.50799377909E+03  0.00000000000E+00 0. -1.
         25    2    1    2    0    0  0.61678899533E+02  0.81394632403E+02 -0.61012997025E+02  0.17256034056E+03  0.12500044999E+03 0.  0.
          2    1    1    2  501    0 -0.48828790643E+02  0.35577751818E+02 -0.36121095003E+03  0.36622858659E+03  0.00000000000E+00 0. -1.
          1    1    1    2  502    0 -0.12850108890E+02 -0.11697238422E+03  0.98458484078E+02  0.15343316804E+03  0.00000000000E+00 0. -1.
         22    1    3    3    0    0 -0.60457899580E+01 -0.13804569328E+02  0.23813923633E+02  0.28181920966E+02  0.00000000000E+00 0. -1.
         22    1    3    3    0    0  0.67724689491E+02  0.95199201731E+02 -0.84826920658E+02  0.14437841960E+03  0.00000000000E+00 0. -1.
</event>
<event>
 7    1  0.6152634E-006  0.4250735E+02  0.7818608E-02  0.1578428E+00
          2   -1    0    0  502    0  0.00000000000E+00  0.00000000000E+00  0.98323136819E+03  0.98323136819E+03  0.00000000000E+00 0. -1.
          1   -1    0    0  501    0 -0.00000000000E+00 -0.00000000000E+00 -0.49655256988E+03  0.49655256988E+03  0.00000000000E+00 0. -1.
         25    2    1    2    0    0 -0.29928563532E+02  0.13391754952E+01  0.10048188444E+03  0.16315366321E+03  0.12499998565E+03 0.  0.
          2    1    1    2  501    0 -0.71110789027E+01 -0.22791001938E+02 -0.46437186156E+03  0.46498518581E+03  0.00000000000E+00 0. -1.
          1    1    1    2  502    0  0.37039642435E+02  0.21451826443E+02  0.85056877543E+03  0.85164508905E+03  0.00000000000E+00 0. -1.
         22    1    3    3    0    0 -0.95303806400E+01  0.38058382685E+02 -0.13647899809E+02  0.41539545219E+02  0.00000000000E+00 0.  1.
         22    1    3    3    0    0 -0.20398182892E+02 -0.36719207190E+02  0.11412978425E+03  0.12161411799E+03  0.00000000000E+00 0.  1.
</event>
<event>
 7    1  0.6152634E-006  0.4273150E+02  0.7818608E-02  0.1573962E+00
          2   -1    0    0  502    0  0.00000000000E+00  0.00000000000E+00  0.57571173033E+03  0.57571173033E+03  0.00000000000E+00 0. -1.
          1   -1    0    0  501    0 -0.00000000000E+00 -0.00000000000E+00 -0.67792501473E+02  0.67792501473E+02  0.00000000000E+00 0. -1.
         25    2    1    2    0    0 -0.33140673429E+02  0.50867525333E+02  0.16556562055E+03  0.21616195927E+03  0.12501283358E+03 0.  0.
          2    1    1    2  501    0  0.22138688853E+02 -0.10298240492E+02 -0.37729984281E+02  0.44941373090E+02  0.00000000000E+00 0. -1.
          1    1    1    2  502    0  0.11001984576E+02 -0.40569284841E+02  0.38008359259E+03  0.38240089944E+03  0.00000000000E+00 0. -1.
         22    1    3    3    0    0 -0.44120361084E+01  0.66990407285E+02  0.17013600671E+03  0.18290281986E+03  0.00000000000E+00 0. -1.
         22    1    3    3    0    0 -0.28728637320E+02 -0.16122881953E+02 -0.45703861686E+01  0.33259139413E+02  0.00000000000E+00 0. -1.
</event>
<event>
 7    1  0.6152634E-006  0.9208732E+02  0.7818608E-02  0.1459178E+00
          2   -1    0    0  502    0  0.00000000000E+00  0.00000000000E+00  0.15851093831E+04  0.15851093831E+04  0.00000000000E+00 0. -1.
          1   -1    0    0  501    0 -0.00000000000E+00 -0.00000000000E+00 -0.17418759200E+03  0.17418759200E+03  0.00000000000E+00 0. -1.
         25    2    1    2    0    0  0.19867958315E+02  0.65408459733E+02  0.43701087283E+03  0.45964630148E+03  0.12499286830E+03 0.  0.
          2    1    1    2  501    0 -0.29378990536E+02 -0.88014207274E+02 -0.14950967778E+03  0.17596240938E+03  0.00000000000E+00 0. -1.
          1    1    1    2  502    0  0.95110322207E+01  0.22605747541E+02  0.11234205960E+04  0.11236882642E+04  0.00000000000E+00 0. -1.
         22    1    3    3    0    0  0.67250843873E+02  0.36040910374E+02  0.16235120009E+03  0.17938655299E+03  0.00000000000E+00 0.  1.
         22    1    3    3    0    0 -0.47382885557E+02  0.29367549359E+02  0.27465967273E+03  0.28025974849E+03  0.00000000000E+00 0.  1.
</event>
<event>
 7    1  0.6152634E-006  0.8796962E+02  0.7818608E-02  0.1464271E+00
          2   -1    0    0  502    0  0.00000000000E+00  0.00000000000E+00  0.34413624807E+04  0.34413624807E+04  0.00000000000E+00 0. -1.
          1   -1    0    0  501    0 -0.00000000000E+00 -0.00000000000E+00 -0.79036925992E+03  0.79036925992E+03  0.00000000000E+00 0. -1.
         25    2    1    2    0    0 -0.38509522095E+02 -0.53200554207E+02  0.18610401115E+04  0.18663890952E+04  0.12499870311E+03 0.  0.
          2    1    1    2  501    0  0.61070998774E+02  0.63358596119E+02 -0.78513950298E+03  0.79005570546E+03  0.00000000000E+00 0. -1.
          1    1    1    2  502    0 -0.22561476679E+02 -0.10158041912E+02  0.15750926123E+04  0.15752869400E+04  0.00000000000E+00 0. -1.
         22    1    3    3    0    0 -0.82167858118E+02 -0.24640418495E+02  0.13402361019E+04  0.13429785984E+04  0.00000000000E+00 0. -1.
         22    1    3    3    0    0  0.43658336023E+02 -0.28560135713E+02  0.52080400962E+03  0.52341049674E+03  0.00000000000E+00 0. -1.
</event>
<event>
 7    1  0.6152634E-006  0.4859943E+02  0.7818608E-02  0.1577100E+00
          2   -1    0    0  502    0  0.00000000000E+00  0.00000000000E+00  0.14142160718E+04  0.14142160718E+04  0.00000000000E+00 0. -1.
          1   -1    0    0  501    0 -0.00000000000E+00 -0.00000000000E+00 -0.59454794894E+02  0.59454794894E+02  0.00000000000E+00 0. -1.
         25    2    1    2    0    0  0.59492139455E+02  0.30386627375E+02  0.51154795823E+03  0.53081800327E+03  0.12499510889E+03 0.  0.
          2    1    1    2  501    0 -0.46090290116E+02 -0.14148577676E+02 -0.37999984981E+02  0.61388076626E+02  0.00000000000E+00 0. -1.
          1    1    1    2  502    0 -0.13401849339E+02 -0.16238049699E+02  0.88121330365E+03  0.88146478679E+03  0.00000000000E+00 0. -1.
         22    1    3    3    0    0  0.79540038227E+02 -0.14145223724E+02  0.41306530776E+03  0.42089149850E+03  0.00000000000E+00 0. -1.
         22    1    3    3    0    0 -0.20047898772E+02  0.44531851098E+02  0.98482650470E+02  0.10992650477E+03  0.00000000000E+00 0. -1.
</event>
<event>
 7    1  0.6152634E-006  0.8406052E+02  0.7818608E-02  0.1352864E+00
          2   -1    0    0  502    0  0.00000000000E+00  0.00000000000E+00  0.17677287234E+04  0.17677287234E+04  0.00000000000E+00 0. -1.
          1   -1    0    0  501    0 -0.00000000000E+00 -0.00000000000E+00 -0.21317498019E+03  0.21317498019E+03  0.00000000000E+00 0. -1.
         25    2    1    2    0    0  0.33033665356E+02 -0.13367255661E+03  0.11235847286E+04  0.11388715204E+04  0.12500448917E+03 0.  0.
          2    1    1    2  501    0 -0.42043126641E+02  0.72368567429E+02 -0.19541874707E+03  0.21258720741E+03  0.00000000000E+00 0. -1.
          1    1    1    2  502    0  0.90094612853E+01  0.61303989176E+02  0.62638776170E+03  0.62944497574E+03  0.00000000000E+00 0. -1.
         22    1    3    3    0    0 -0.26749974872E+02 -0.36350534530E+02  0.11039677911E+03  0.11926596897E+03  0.00000000000E+00 0. -1.
         22    1    3    3    0    0  0.59783640227E+02 -0.97322022076E+02  0.10131879495E+04  0.10196055514E+04  0.00000000000E+00 0. -1.
</event>
<event>
 7    1  0.6152634E-006  0.1328010E+03  0.7818608E-02  0.1286172E+00
          2   -1    0    0  502    0  0.00000000000E+00  0.00000000000E+00  0.96901422358E+02  0.96901422358E+02  0.00000000000E+00 0. -1.
          1   -1    0    0  501    0 -0.00000000000E+00 -0.00000000000E+00 -0.72973368032E+03  0.72973368032E+03  0.00000000000E+00 0. -1.
         25    2    1    2    0    0 -0.11749422688E+03  0.43989219344E+02 -0.29039397110E+03  0.34013740911E+03  0.12499941542E+03 0.  0.
          2    1    1    2  501    0 -0.17955152968E+02 -0.68925991543E+02 -0.34141772684E+03  0.34876818093E+03  0.00000000000E+00 0. -1.
          1    1    1    2  502    0  0.13544937985E+03  0.24936772199E+02 -0.10205600187E+01  0.13772951264E+03  0.00000000000E+00 0. -1.
         22    1    3    3    0    0  0.22899455552E+02  0.11901891836E+02 -0.16333057393E+02  0.30541919679E+02  0.00000000000E+00 0.  1.
         22    1    3    3    0    0 -0.14039368243E+03  0.32087327507E+02 -0.27406091371E+03  0.30959548943E+03  0.00000000000E+00 0.  1.
</event>
<event>
 7    1  0.6152634E-006  0.7041528E+02  0.7818608E-02  0.1375498E+00
          2   -1    0    0  502    0  0.00000000000E+00  0.00000000000E+00  0.37864664498E+03  0.37864664498E+03  0.00000000000E+00 0. -1.
          1   -1    0    0  501    0 -0.00000000000E+00 -0.00000000000E+00 -0.26822567293E+03  0.26822567293E+03  0.00000000000E+00 0. -1.
         25    2    1    2    0    0  0.20155832930E+02 -0.48000796866E+01  0.86792764882E+02  0.15357723927E+03  0.12499474397E+03 0.  0.
          2    1    1    2  501    0  0.45546094574E+02 -0.40922554613E+02 -0.22443475494E+03  0.23263718841E+03  0.00000000000E+00 0. -1.
          1    1    1    2  502    0 -0.65701927504E+02  0.45722634299E+02  0.24806296211E+03  0.26065789022E+03  0.00000000000E+00 0. -1.
         22    1    3    3    0    0  0.76326964260E+01 -0.18261731420E+02  0.11675652218E+03  0.11842227139E+03  0.00000000000E+00 0. -1.
         22    1    3    3    0    0  0.12523136504E+02  0.13461651733E+02 -0.29963757301E+02  0.35154967884E+02  0.00000000000E+00 0. -1.
</event>
<event>
 7    1  0.6152634E-006  0.4802421E+02  0.7818608E-02  0.1579536E+00
          2   -1    0    0  502    0  0.00000000000E+00  0.00000000000E+00  0.11422878021E+04  0.11422878021E+04  0.00000000000E+00 0. -1.
          1   -1    0    0  501    0 -0.00000000000E+00 -0.00000000000E+00 -0.30933501298E+03  0.30933501298E+03  0.00000000000E+00 0. -1.
         25    2    1    2    0    0 -0.42784752095E+02 -0.42781905862E+02  0.75129263664E+03  0.76402130331E+03  0.12500839794E+03 0.  0.
          2    1    1    2  501    0  0.42767282899E+02  0.21794160079E+02 -0.30077994912E+03  0.30458595453E+03  0.00000000000E+00 0. -1.
          1    1    1    2  502    0  0.17469196557E-01  0.20987745783E+02  0.38244010160E+03  0.38301555724E+03  0.00000000000E+00 0. -1.
         22    1    3    3    0    0 -0.52971466649E+02 -0.25802196589E+02  0.73759399900E+03  0.73994367150E+03  0.00000000000E+00 0. -1.
         22    1    3    3    0    0  0.10186714553E+02 -0.16979709273E+02  0.13698637640E+02  0.24077631810E+02  0.00000000000E+00 0. -1.
</event>
<event>
 7    1  0.6152634E-006  0.4640734E+02  0.7818608E-02  0.1488655E+00
          2   -1    0    0  502    0  0.00000000000E+00  0.00000000000E+00  0.98548669693E+03  0.98548669693E+03  0.00000000000E+00 0. -1.
          1   -1    0    0  501    0 -0.00000000000E+00 -0.00000000000E+00 -0.15564191171E+04  0.15564191171E+04  0.00000000000E+00 0. -1.
         25    2    1    2    0    0 -0.78670564696E+02  0.25006399624E+02  0.36820863334E+03  0.39751274669E+03  0.12499763335E+03 0.  0.
          2    1    1    2  501    0  0.46312397300E+02 -0.24439240395E+01 -0.15407722265E+04  0.15414700337E+04  0.00000000000E+00 0. -1.
          1    1    1    2  502    0  0.32358167396E+02 -0.22562475584E+02  0.60163117293E+03  0.60292303368E+03  0.00000000000E+00 0. -1.
         22    1    3    3    0    0 -0.17281544495E+02  0.63765889871E+02  0.10156370612E+03  0.12116074815E+03  0.00000000000E+00 0.  1.
         22    1    3    3    0    0 -0.61389020202E+02 -0.38759490247E+02  0.26664492722E+03  0.27635199854E+03  0.00000000000E+00 0.  1.
</event>
<event>
 7    1  0.6152634E-006  0.8562685E+02  0.7818608E-02  0.1343661E+00
          2   -1    0    0  502    0  0.00000000000E+00  0.00000000000E+00  0.68234702273E+02  0.68234702273E+02  0.00000000000E+00 0. -1.
          1   -1    0    0  501    0 -0.00000000000E+00 -0.00000000000E+00 -0.41250704641E+04  0.41250704641E+04  0.00000000000E+00 0. -1.
         25    2    1    2    0    0  0.12955261336E+03  0.23364557383E+02 -0.19361242970E+04  0.19446175099E+04  0.12502073531E+03 0.  0.
          2    1    1    2  501    0 -0.47391430907E+02 -0.45663040052E+02 -0.21556568783E+04  0.21566612247E+04  0.00000000000E+00 0. -1.
          1    1    1    2  502    0 -0.82161182453E+02  0.22298482669E+02  0.34945413462E+02  0.92026431820E+02  0.00000000000E+00 0. -1.
         22    1    3    3    0    0  0.87376274025E+02  0.12581483992E+02 -0.17892781662E+04  0.17914545104E+04  0.00000000000E+00 0. -1.
         22    1    3    3    0    0  0.42176339336E+02  0.10783073391E+02 -0.14684613084E+03  0.15316299950E+03  0.00000000000E+00 0. -1.
</event>
<event>
 7    1  0.6152634E-006  0.2004197E+03  0.7818608E-02  0.1215980E+00
          2   -1    0    0  502    0  0.00000000000E+00  0.00000000000E+00  0.11515870409E+04  0.11515870409E+04  0.00000000000E+00 0. -1.
          1   -1    0    0  501    0 -0.00000000000E+00 -0.00000000000E+00 -0.12268765365E+04  0.12268765365E+04  0.00000000000E+00 0. -1.
         25    2    1    2    0    0 -0.70218053621E+02  0.23937998999E+03  0.23276809104E+03  0.36337184045E+03  0.12499902225E+03 0.  0.
          2    1    1    2  501    0 -0.45612078569E+02 -0.83433084792E+02 -0.11485313497E+04  0.11524607596E+04  0.00000000000E+00 0. -1.
          1    1    1    2  502    0  0.11583013219E+03 -0.15594690520E+03  0.84047376303E+03  0.86263097737E+03  0.00000000000E+00 0. -1.
         22    1    3    3    0    0  0.33015806627E+02  0.86743452206E+02  0.58260651540E+02  0.10958454958E+03  0.00000000000E+00 0. -1.
         22    1    3    3    0    0 -0.10323386025E+03  0.15263653779E+03  0.17450743950E+03  0.25378729088E+03  0.00000000000E+00 0. -1.
</event>
<event>
 7    1  0.6152634E-006  0.5300735E+02  0.7818608E-02  0.1497066E+00
          2   -1    0    0  502    0  0.00000000000E+00  0.00000000000E+00  0.35597102115E+03  0.35597102115E+03  0.00000000000E+00 0. -1.
          1   -1    0    0  501    0 -0.00000000000E+00 -0.00000000000E+00 -0.11267745328E+04  0.11267745328E+04  0.00000000000E+00 0. -1.
         25    2    1    2    0    0 -0.20038025439E+02 -0.95248322803E+01 -0.20420332532E+02  0.12858545246E+03  0.12499993484E+03 0.  0.
          2    1    1    2  501    0 -0.23169806182E+02 -0.22901658708E+02 -0.10496001016E+04  0.10501055657E+04  0.00000000000E+00 0. -1.
          1    1    1    2  502    0  0.43207831621E+02  0.32426490988E+02  0.29921692247E+03  0.30405453577E+03  0.00000000000E+00 0. -1.
         22    1    3    3    0    0 -0.56287151898E+01  0.45420516971E+02  0.28248677529E+02  0.53783766870E+02  0.00000000000E+00 0.  1.
         22    1    3    3    0    0 -0.14409310249E+02 -0.54945349251E+02 -0.48669010062E+02  0.74801685587E+02  0.00000000000E+00 0.  1.
</event>
<event>
 7    1  0.6152634E-006  0.3509843E+03  0.7818608E-02  0.1186350E+00
          2   -1    0    0  502    0  0.00000000000E+00  0.00000000000E+00  0.67911355475E+03  0.67911355475E+03  0.00000000000E+00 0. -1.
          1   -1    0    0  501    0 -0.00000000000E+00 -0.00000000000E+00 -0.16283172511E+04  0.16283172511E+04  0.00000000000E+00 0. -1.
         25    2    1    2    0    0 -0.13936607289E+02  0.29558321125E+03 -0.15502116348E+03  0.35667988305E+03  0.12500125620E+03 0.  0.
          2    1    1    2  501    0 -0.16190376881E+02 -0.36411492870E+03 -0.13456956294E+04  0.13941802382E+04  0.00000000000E+00 0. -1.
          1    1    1    2  502    0  0.30126984170E+02  0.68531717445E+02  0.55151309646E+03  0.55657068468E+03  0.00000000000E+00 0. -1.
         22    1    3    3    0    0 -0.59391777593E+02  0.23222379330E+03 -0.93242793724E+02  0.25719543542E+03  0.00000000000E+00 0. -1.
         22    1    3    3    0    0  0.45455170304E+02  0.63359417948E+02 -0.61778369761E+02  0.99484447630E+02  0.00000000000E+00 0. -1.
</event>
<event>
 7    1  0.6152634E-006  0.9185068E+02  0.7818608E-02  0.1310753E+00
          2   -1    0    0  502    0  0.00000000000E+00  0.00000000000E+00  0.17058389029E+04  0.17058389029E+04  0.00000000000E+00 0. -1.
          1   -1    0    0  501    0 -0.00000000000E+00 -0.00000000000E+00 -0.21792466415E+04  0.21792466415E+04  0.00000000000E+00 0. -1.
         25    2    1    2    0    0  0.54322646215E+02  0.15926867876E+03  0.21623594389E+01  0.20963484822E+03  0.12499852746E+03 0.  0.
          2    1    1    2  501    0 -0.92561944798E+01 -0.90696816793E+02 -0.20734559961E+04  0.20754593124E+04  0.00000000000E+00 0. -1.
          1    1    1    2  502    0 -0.45066451735E+02 -0.68571861965E+02  0.15978858979E+04  0.15999913838E+04  0.00000000000E+00 0. -1.
         22    1    3    3    0    0  0.39791662808E+02  0.12084326843E+03  0.58400906782E+02  0.13998977773E+03  0.00000000000E+00 0.  1.
         22    1    3    3    0    0  0.14530983406E+02  0.38425410324E+02 -0.56238547343E+02  0.69645070498E+02  0.00000000000E+00 0.  1.
</event>
<event>
 7    1  0.6152634E-006  0.6975221E+02  0.7818608E-02  0.1507303E+00
          2   -1    0    0  502    0  0.00000000000E+00  0.00000000000E+00  0.31718342675E+03  0.31718342675E+03  0.00000000000E+00 0. -1.
          1   -1    0    0  501    0 -0.00000000000E+00 -0.00000000000E+00 -0.46206006467E+02  0.46206006467E+02  0.00000000000E+00 0. -1.
         25    2    1    2    0    0  0.74458103462E+02 -0.19589802578E+02  0.20540270324E+03  0.25247012472E+03  0.12499249514E+03 0.  0.
          2    1    1    2  501    0 -0.90586663376E+01  0.21228437676E+02  0.24571886311E+02  0.33711772408E+02  0.00000000000E+00 0. -1.
          1    1    1    2  502    0 -0.65399437125E+02 -0.16386350981E+01  0.41002830732E+02  0.77207536091E+02  0.00000000000E+00 0. -1.
         22    1    3    3    0    0  0.39651428689E+02 -0.71451161816E+01  0.21123964058E+03  0.21504760923E+03  0.00000000000E+00 0. -1.
         22    1    3    3    0    0  0.34806674774E+02 -0.12444686397E+02 -0.58369373372E+01  0.37422515493E+02  0.00000000000E+00 0. -1.
</event>
<event>
 7    1  0.6152634E-006  0.9628040E+02  0.7818608E-02  0.1413664E+00
          2   -1    0    0  502    0  0.00000000000E+00  0.00000000000E+00  0.20555089586E+02  0.20555089586E+02  0.00000000000E+00 0. -1.
          1   -1    0    0  501    0 -0.00000000000E+00 -0.00000000000E+00 -0.15935208355E+04  0.15935208355E+04  0.00000000000E+00 0. -1.
         25    2    1    2    0    0  0.10813068543E+03 -0.43434316152E+02 -0.10082537396E+04  0.10226334880E+04  0.12499944942E+03 0.  0.
          2    1    1    2  501    0 -0.31534050420E+02 -0.97940356713E+01 -0.40607472161E+03  0.40741502059E+03  0.00000000000E+00 0. -1.
          1    1    1    2  502    0 -0.76596635014E+02  0.53228351824E+02 -0.15863728468E+03  0.18402741650E+03  0.00000000000E+00 0. -1.
         22    1    3    3    0    0  0.11237124077E+03 -0.41169883565E+02 -0.49159793613E+03  0.50595532004E+03  0.00000000000E+00 0. -1.
         22    1    3    3    0    0 -0.42405553358E+01 -0.22644325871E+01 -0.51665580345E+03  0.51667816792E+03  0.00000000000E+00 0. -1.
</event>
<event>
 7    1  0.6152634E-006  0.1877035E+03  0.7818608E-02  0.1177435E+00
          2   -1    0    0  502    0  0.00000000000E+00  0.00000000000E+00  0.25364390149E+04  0.25364390149E+04  0.00000000000E+00 0. -1.
          1   -1    0    0  501    0 -0.00000000000E+00 -0.00000000000E+00 -0.17957488653E+04  0.17957488653E+04  0.00000000000E+00 0. -1.
         25    2    1    2    0    0  0.12191462555E+03  0.16227987875E+02 -0.71042928203E+03  0.73175239654E+03  0.12500112626E+03 0.  0.
          2    1    1    2  501    0 -0.34854391504E+02  0.15070691723E+03 -0.10655571971E+04  0.10767263087E+04  0.00000000000E+00 0. -1.
          1    1    1    2  502    0 -0.87060234041E+02 -0.16693490510E+03  0.25166766287E+04  0.25237091751E+04  0.00000000000E+00 0. -1.
         22    1    3    3    0    0  0.10838342216E+03 -0.28852699060E+02 -0.61728276933E+03  0.62738940201E+03  0.00000000000E+00 0. -1.
         22    1    3    3    0    0  0.13531203390E+02  0.45080686935E+02 -0.93146512701E+02  0.10436299453E+03  0.00000000000E+00 0. -1.
</event>
<event>
 7    1  0.6152634E-006  0.1413975E+03  0.7818608E-02  0.1286590E+00
          2   -1    0    0  502    0  0.00000000000E+00  0.00000000000E+00  0.39520154360E+03  0.39520154360E+03  0.00000000000E+00 0. -1.
          1   -1    0    0  501    0 -0.00000000000E+00 -0.00000000000E+00 -0.89564646667E+03  0.89564646667E+03  0.00000000000E+00 0. -1.
         25    2    1    2    0    0 -0.41934093941E+02  0.17948505542E+03 -0.35133184969E+03  0.41597255318E+03  0.12500297213E+03 0.  0.
          2    1    1    2  501    0  0.61809765782E+02 -0.11588542154E+03 -0.50038757151E+03  0.51733702728E+03  0.00000000000E+00 0. -1.
          1    1    1    2  502    0 -0.19875671841E+02 -0.63599633880E+02  0.35127449812E+03  0.35753842981E+03  0.00000000000E+00 0. -1.
         22    1    3    3    0    0 -0.20058549134E+02  0.37110650907E+02 -0.70475992018E+01  0.42769316789E+02  0.00000000000E+00 0. -1.
         22    1    3    3    0    0 -0.21875544807E+02  0.14237440451E+03 -0.34428425049E+03  0.37320323639E+03  0.00000000000E+00 0. -1.
</event>
<event>
 7    1  0.6152634E-006  0.1502710E+03  0.7818608E-02  0.1293649E+00
          2   -1    0    0  502    0  0.00000000000E+00  0.00000000000E+00  0.45858035565E+03  0.45858035565E+03  0.00000000000E+00 0. -1.
          1   -1    0    0  501    0 -0.00000000000E+00 -0.00000000000E+00 -0.11628042779E+04  0.11628042779E+04  0.00000000000E+00 0. -1.
         25    2    1    2    0    0  0.45380121827E+02  0.88999489339E+02 -0.13518248740E+03  0.20946052353E+03  0.12497656364E+03 0.  0.
          2    1    1    2  501    0  0.47431602806E+02  0.34562710522E+02 -0.97540442063E+03  0.97716842032E+03  0.00000000000E+00 0. -1.
          1    1    1    2  502    0 -0.92811724633E+02 -0.12356219986E+03  0.40636298581E+03  0.43475568967E+03  0.00000000000E+00 0. -1.
         22    1    3    3    0    0  0.69099473140E+02  0.45188862049E+02 -0.13660886028E+03  0.15962064763E+03  0.00000000000E+00 0.  1.
         22    1    3    3    0    0 -0.23719351314E+02  0.43810627290E+02  0.14263728819E+01  0.49839875901E+02  0.00000000000E+00 0.  1.
</event>
<event>
 7    1  0.6152634E-006  0.6527164E+02  0.7818608E-02  0.1403681E+00
          2   -1    0    0  502    0  0.00000000000E+00  0.00000000000E+00  0.15356771027E+04  0.15356771027E+04  0.00000000000E+00 0. -1.
          1   -1    0    0  501    0 -0.00000000000E+00 -0.00000000000E+00 -0.21636946814E+03  0.21636946814E+03  0.00000000000E+00 0. -1.
         25    2    1    2    0    0  0.55369355054E+02  0.51972054464E+01  0.20385549337E+03  0.24553371065E+03  0.12504784870E+03 0.  0.
          2    1    1    2  501    0 -0.46614754447E+02  0.46730497181E+02 -0.18941376895E+03  0.20058477153E+03  0.00000000000E+00 0. -1.
          1    1    1    2  502    0 -0.87546006068E+01 -0.51927702628E+02  0.13048659101E+04  0.13059280886E+04  0.00000000000E+00 0. -1.
         22    1    3    3    0    0  0.70948279883E+02 -0.21377763889E+02  0.20143780962E+03  0.21463424320E+03  0.00000000000E+00 0.  1.
         22    1    3    3    0    0 -0.15578924829E+02  0.26574969335E+02  0.24176837444E+01  0.30899467450E+02  0.00000000000E+00 0.  1.
</event>
<event>
 7    1  0.6152634E-006  0.6168820E+02  0.7818608E-02  0.1477794E+00
          2   -1    0    0  502    0  0.00000000000E+00  0.00000000000E+00  0.56256616381E+03  0.56256616381E+03  0.00000000000E+00 0. -1.
          1   -1    0    0  501    0 -0.00000000000E+00 -0.00000000000E+00 -0.50451640325E+03  0.50451640325E+03  0.00000000000E+00 0. -1.
         25    2    1    2    0    0  0.18546070172E+02 -0.23487365387E+02 -0.25951033394E+03  0.28959660660E+03  0.12499987234E+03 0.  0.
          2    1    1    2  501    0  0.17429037377E+02 -0.26874408388E+02 -0.22708634549E+03  0.22933428326E+03  0.00000000000E+00 0. -1.
          1    1    1    2  502    0 -0.35975107548E+02  0.50361773776E+02  0.54464643999E+03  0.54815167719E+03  0.00000000000E+00 0. -1.
         22    1    3    3    0    0  0.44503679139E+02 -0.51370862146E+02 -0.75087425903E+02  0.10128012867E+03  0.00000000000E+00 0.  1.
         22    1    3    3    0    0 -0.25957608967E+02  0.27883496759E+02 -0.18442290803E+03  0.18831647794E+03  0.00000000000E+00 0.  1.
</event>
<event>
 7    1  0.6152634E-006  0.1172848E+03  0.7818608E-02  0.1323727E+00
          2   -1    0    0  502    0  0.00000000000E+00  0.00000000000E+00  0.12026702240E+04  0.12026702240E+04  0.00000000000E+00 0. -1.
          1   -1    0    0  501    0 -0.00000000000E+00 -0.00000000000E+00 -0.31205207547E+04  0.31205207547E+04  0.00000000000E+00 0. -1.
         25    2    1    2    0    0 -0.18369485629E+02 -0.96986601155E+02 -0.72429788469E+02  0.17499297635E+03  0.12503051110E+03 0.  0.
          2    1    1    2  501    0 -0.56878871558E+02  0.60489930393E+01 -0.29935104034E+04  0.29940568351E+04  0.00000000000E+00 0. -1.
          1    1    1    2  502    0  0.75248357187E+02  0.90937608116E+02  0.11480896612E+04  0.11541411673E+04  0.00000000000E+00 0. -1.
         22    1    3    3    0    0 -0.12334658650E+02 -0.24741434254E+02  0.35487890782E+02  0.44985250529E+02  0.00000000000E+00 0. -1.
         22    1    3    3    0    0 -0.60348269786E+01 -0.72245166902E+02 -0.10791767925E+03  0.13000772582E+03  0.00000000000E+00 0. -1.
</event>
<event>
 7    1  0.6152634E-006  0.1649892E+03  0.7818608E-02  0.1289435E+00
          2   -1    0    0  502    0  0.00000000000E+00  0.00000000000E+00  0.13635836604E+04  0.13635836604E+04  0.00000000000E+00 0. -1.
          1   -1    0    0  501    0 -0.00000000000E+00 -0.00000000000E+00 -0.35340498519E+03  0.35340498519E+03  0.00000000000E+00 0. -1.
         25    2    1    2    0    0  0.13188114125E+03 -0.69970102694E+02 -0.25579284701E+02  0.19638827066E+03  0.12500240941E+03 0.  0.
          2    1    1    2  501    0 -0.11991719681E+03  0.12426683190E+03 -0.21096812074E+03  0.27263515468E+03  0.00000000000E+00 0. -1.
          1    1    1    2  502    0 -0.11963944440E+02 -0.54296729201E+02  0.12467260807E+04  0.12479652203E+04  0.00000000000E+00 0. -1.
         22    1    3    3    0    0  0.86677589235E+02 -0.14862877570E+02  0.42633173899E+02  0.97731761070E+02  0.00000000000E+00 0.  1.
         22    1    3    3    0    0  0.45203552016E+02 -0.55107225124E+02 -0.68212458600E+02  0.98656509588E+02  0.00000000000E+00 0.  1.
</event>
<event>
 7    1  0.6152634E-006  0.8584358E+02  0.7818608E-02  0.1408291E+00
          2   -1    0    0  502    0  0.00000000000E+00  0.00000000000E+00  0.68795120490E+03  0.68795120490E+03  0.00000000000E+00 0. -1.
          1   -1    0    0  501    0 -0.00000000000E+00 -0.00000000000E+00 -0.91903024618E+03  0.91903024618E+03  0.00000000000E+00 0. -1.
         25    2    1    2    0    0  0.77738325104E+02 -0.85146066999E+02 -0.18804308877E+03  0.25353010373E+03  0.12499684135E+03 0.  0.
          2    1    1    2  501    0 -0.37363539510E+02  0.97624000024E+01 -0.69491499215E+03  0.69598720164E+03  0.00000000000E+00 0. -1.
          1    1    1    2  502    0 -0.40374785595E+02  0.75383666996E+02  0.65187903964E+03  0.65746414570E+03  0.00000000000E+00 0. -1.
         22    1    3    3    0    0 -0.26117676491E+02 -0.15491638996E+02 -0.34423886586E+01  0.30560987284E+02  0.00000000000E+00 0.  1.
         22    1    3    3    0    0  0.10385600160E+03 -0.69654428003E+02 -0.18460070011E+03  0.22296911645E+03  0.00000000000E+00 0.  1.
</event>
<event>
 7    1  0.6152634E-006  0.4935214E+02  0.7818608E-02  0.1456377E+00
          2   -1    0    0  502    0  0.00000000000E+00  0.00000000000E+00  0.13856853466E+04  0.13856853466E+04  0.00000000000E+00 0. -1.
          1   -1    0    0  501    0 -0.00000000000E+00 -0.00000000000E+00 -0.99177268700E+03  0.99177268700E+03  0.00000000000E+00 0. -1.
         25    2    1    2    0    0 -0.56865397411E+01  0.42705498702E+02 -0.69564952316E+03  0.70810272694E+03  0.12500046589E+03 0.  0.
          2    1    1    2  501    0  0.50528398590E+02 -0.22093814477E+02 -0.28682759386E+03  0.29208102352E+03  0.00000000000E+00 0. -1.
          1    1    1    2  502    0 -0.44841858849E+02 -0.20611684225E+02  0.13763897766E+04  0.13772742831E+04  0.00000000000E+00 0. -1.
         22    1    3    3    0    0  0.24347450571E+02  0.19105437244E+01 -0.59426421720E+03  0.59476584331E+03  0.00000000000E+00 0.  1.
         22    1    3    3    0    0 -0.30033990312E+02  0.40794954978E+02 -0.10138530597E+03  0.11333688363E+03  0.00000000000E+00 0.  1.
</event>
<event>
 7    1  0.6152634E-006  0.1890095E+03  0.7818608E-02  0.1209889E+00
          2   -1    0    0  502    0  0.00000000000E+00  0.00000000000E+00  0.23638804346E+04  0.23638804346E+04  0.00000000000E+00 0. -1.
          1   -1    0    0  501    0 -0.00000000000E+00 -0.00000000000E+00 -0.11059118307E+04  0.11059118307E+04  0.00000000000E+00 0. -1.
         25    2    1    2    0    0  0.80457082729E+01 -0.11487091455E+03  0.57481282015E+02  0.17941445363E+03  0.12500155183E+03 0.  0.
          2    1    1    2  501    0  0.77938559577E+02  0.17950419508E+03 -0.10344781052E+04  0.10528253061E+04  0.00000000000E+00 0. -1.
          1    1    1    2  502    0 -0.85984267850E+02 -0.64633280534E+02  0.22349654270E+04  0.22375525056E+04  0.00000000000E+00 0. -1.
         22    1    3    3    0    0 -0.18495300320E+02 -0.13128641804E+03  0.26041703088E+02  0.13511613521E+03  0.00000000000E+00 0. -1.
         22    1    3    3    0    0  0.26541008593E+02  0.16415503487E+02  0.31439578927E+02  0.44298318421E+02  0.00000000000E+00 0. -1.
</event>
<event>
 7    1  0.6152634E-006  0.1393342E+03  0.7818608E-02  0.1329048E+00
          2   -1    0    0  502    0  0.00000000000E+00  0.00000000000E+00  0.34571442669E+04  0.34571442669E+04  0.00000000000E+00 0. -1.
          1   -1    0    0  501    0 -0.00000000000E+00 -0.00000000000E+00 -0.15823627164E+03  0.15823627164E+03  0.00000000000E+00 0. -1.
         25    2    1    2    0    0 -0.10360840859E+03 -0.77027130270E+02  0.65016813212E+02  0.19110508231E+03  0.12500434135E+03 0.  0.
          2    1    1    2  501    0  0.84503819088E+02  0.11879977954E+03 -0.39116894673E+02  0.15094507116E+03  0.00000000000E+00 0. -1.
          1    1    1    2  502    0  0.19104589502E+02 -0.41772649270E+02  0.32730080767E+04  0.32733303851E+04  0.00000000000E+00 0. -1.
         22    1    3    3    0    0 -0.88925551552E+02 -0.11116250519E+03  0.55091333738E+02  0.15264308478E+03  0.00000000000E+00 0.  1.
         22    1    3    3    0    0 -0.14682857038E+02  0.34135374916E+02  0.99254794733E+01  0.38461997533E+02  0.00000000000E+00 0.  1.
</event>
<event>
 7    1  0.6152634E-006  0.1168813E+03  0.7818608E-02  0.1311996E+00
          2   -1    0    0  502    0  0.00000000000E+00  0.00000000000E+00  0.12251720306E+04  0.12251720306E+04  0.00000000000E+00 0. -1.
          1   -1    0    0  501    0 -0.00000000000E+00 -0.00000000000E+00 -0.10148274626E+04  0.10148274626E+04  0.00000000000E+00 0. -1.
         25    2    1    2    0    0 -0.15035845699E+03  0.34358549227E+02 -0.16212836345E+03  0.25631389988E+03  0.12499213393E+03 0.  0.
          2    1    1    2  501    0  0.94359504564E+02 -0.64848771443E+02 -0.80066813647E+03  0.80881304640E+03  0.00000000000E+00 0. -1.
          1    1    1    2  502    0  0.55998952428E+02  0.30490222216E+02  0.11731410679E+04  0.11748725469E+04  0.00000000000E+00 0. -1.
         22    1    3    3    0    0 -0.36063039534E+01  0.13521505435E+02 -0.90706813941E+02  0.91779968582E+02  0.00000000000E+00 0.  1.
         22    1    3    3    0    0 -0.14675215304E+03  0.20837043791E+02 -0.71421549510E+02  0.16453393130E+03  0.00000000000E+00 0.  1.
</event>
<event>
 7    1  0.6152634E-006  0.8247569E+02  0.7818608E-02  0.1425613E+00
          2   -1    0    0  502    0  0.00000000000E+00  0.00000000000E+00  0.18039182771E+03  0.18039182771E+03  0.00000000000E+00 0. -1.
          1   -1    0    0  501    0 -0.00000000000E+00 -0.00000000000E+00 -0.58052858293E+03  0.58052858293E+03  0.00000000000E+00 0. -1.
         25    2    1    2    0    0  0.49518605913E+02 -0.81796951278E+01 -0.21536812835E+03  0.25401982992E+03  0.12499457405E+03 0.  0.
          2    1    1    2  501    0  0.30453204594E+02 -0.17574948135E+02 -0.33389197711E+03  0.33573818498E+03  0.00000000000E+00 0. -1.
          1    1    1    2  502    0 -0.79971810507E+02  0.25754643263E+02  0.14912335025E+03  0.17116239574E+03  0.00000000000E+00 0. -1.
         22    1    3    3    0    0  0.86317571455E+02  0.16030292141E+02 -0.16650677666E+03  0.18823442852E+03  0.00000000000E+00 0. -1.
         22    1    3    3    0    0 -0.36798965542E+02 -0.24209987269E+02 -0.48861351690E+02  0.65785401401E+02  0.00000000000E+00 0. -1.
</event>
<event>
 7    1  0.6152634E-006  0.8377109E+02  0.7818608E-02  0.1426260E+00
          2   -1    0    0  502    0  0.00000000000E+00  0.00000000000E+00  0.63462947693E+03  0.63462947693E+03  0.00000000000E+00 0. -1.
          1   -1    0    0  501    0 -0.00000000000E+00 -0.00000000000E+00 -0.42992372320E+03  0.42992372320E+03  0.00000000000E+00 0. -1.
         25    2    1    2    0    0  0.39068027057E+01  0.52825536053E+02  0.28477998466E+03  0.31548415249E+03  0.12499924175E+03 0.  0.
          2    1    1    2  501    0  0.12027047227E+02 -0.83365604896E+02 -0.40938579778E+03  0.41796077013E+03  0.00000000000E+00 0. -1.
          1    1    1    2  502    0 -0.15933849933E+02  0.30540068842E+02  0.32931156685E+03  0.33110827752E+03  0.00000000000E+00 0. -1.
         22    1    3    3    0    0 -0.68027777778E+01  0.92230639953E+02  0.22313845209E+03  0.24154406954E+03  0.00000000000E+00 0. -1.
         22    1    3    3    0    0  0.10709580483E+02 -0.39405103899E+02  0.61641532575E+02  0.73940082943E+02  0.00000000000E+00 0. -1.
</event>
<event>
 7    1  0.6152634E-006  0.1027506E+03  0.7818608E-02  0.1346916E+00
          2   -1    0    0  502    0  0.00000000000E+00  0.00000000000E+00  0.26107890932E+04  0.26107890932E+04  0.00000000000E+00 0. -1.
          1   -1    0    0  501    0 -0.00000000000E+00 -0.00000000000E+00 -0.52014817954E+02  0.52014817954E+02  0.00000000000E+00 0. -1.
         25    2    1    2    0    0 -0.19664560133E+02  0.60384998369E+02  0.37035663378E+03  0.39600682864E+03  0.12499731675E+03 0.  0.
          2    1    1    2  501    0 -0.48423302438E+02  0.22345984341E+02 -0.19124634263E+02  0.56656075322E+02  0.00000000000E+00 0. -1.
          1    1    1    2  502    0  0.68087862571E+02 -0.82730982709E+02  0.22075422758E+04  0.22101410072E+04  0.00000000000E+00 0. -1.
         22    1    3    3    0    0 -0.63796667051E+02  0.56933343936E+02  0.30722329140E+03  0.31890056625E+03  0.00000000000E+00 0.  1.
         22    1    3    3    0    0  0.44132106918E+02  0.34516544324E+01  0.63133342377E+02  0.77106262385E+02  0.00000000000E+00 0.  1.
</event>
<event>
 7    1  0.6152634E-006  0.1283463E+03  0.7818608E-02  0.1364272E+00
          2   -1    0    0  502    0  0.00000000000E+00  0.00000000000E+00  0.13232079829E+03  0.13232079829E+03  0.00000000000E+00 0. -1.
          1   -1    0    0  501    0 -0.00000000000E+00 -0.00000000000E+00 -0.14066599699E+04  0.14066599699E+04  0.00000000000E+00 0. -1.
         25    2    1    2    0    0 -0.14967842719E+03 -0.55969732371E+02 -0.38484400004E+03  0.43504746739E+03  0.12500060806E+03 0.  0.
          2    1    1    2  501    0  0.11352390737E+03  0.48768304361E+02 -0.98958595229E+03  0.99726946310E+03  0.00000000000E+00 0. -1.
          1    1    1    2  502    0  0.36154519824E+02  0.72014280103E+01  0.10009078076E+03  0.10666383765E+03  0.00000000000E+00 0. -1.
         22    1    3    3    0    0 -0.14212091614E+03 -0.25366124761E+01 -0.32346232333E+03  0.35331666225E+03  0.00000000000E+00 0. -1.
         22    1    3    3    0    0 -0.75575110569E+01 -0.53433119895E+02 -0.61381676700E+02  0.81730805145E+02  0.00000000000E+00 0. -1.
</event>
<event>
 7    1  0.6152634E-006  0.6920260E+02  0.7818608E-02  0.1426744E+00
          2   -1    0    0  502    0  0.00000000000E+00  0.00000000000E+00  0.49503143107E+03  0.49503143107E+03  0.00000000000E+00 0. -1.
          1   -1    0    0  501    0 -0.00000000000E+00 -0.00000000000E+00 -0.98812474920E+02  0.98812474920E+02  0.00000000000E+00 0. -1.
         25    2    1    2    0    0  0.11873795190E+02  0.33959497191E+02  0.17850290015E+03  0.22086988636E+03  0.12500394745E+03 0.  0.
          2    1    1    2  501    0  0.80486862552E+01  0.40757839178E+02 -0.66508628747E+02  0.78417985837E+02  0.00000000000E+00 0. -1.
          1    1    1    2  502    0 -0.19922481445E+02 -0.74717336369E+02  0.28422468475E+03  0.29455603379E+03  0.00000000000E+00 0. -1.
         22    1    3    3    0    0 -0.45710012525E+02  0.36636022797E+02  0.40235373999E+02  0.71066790642E+02  0.00000000000E+00 0.  1.
         22    1    3    3    0    0  0.57583807715E+02 -0.26765256058E+01  0.13826752615E+03  0.14980309572E+03  0.00000000000E+00 0.  1.
</event>
<event>
 7    1  0.6152634E-006  0.1024105E+03  0.7818608E-02  0.1383417E+00
          2   -1    0    0  502    0  0.00000000000E+00  0.00000000000E+00  0.15709228015E+03  0.15709228015E+03  0.00000000000E+00 0. -1.
          1   -1    0    0  501    0 -0.00000000000E+00 -0.00000000000E+00 -0.83337332789E+03  0.83337332789E+03  0.00000000000E+00 0. -1.
         25    2    1    2    0    0  0.42706091798E+02 -0.11037529232E+03 -0.12620134604E+03  0.21344416919E+03  0.12500047275E+03 0.  0.
          2    1    1    2  501    0  0.21966963292E+02  0.32786678772E+02 -0.64034362621E+03  0.64155862819E+03  0.00000000000E+00 0. -1.
          1    1    1    2  502    0 -0.64673055089E+02  0.77588613546E+02  0.90263924506E+02  0.13546281067E+03  0.00000000000E+00 0. -1.
         22    1    3    3    0    0  0.56614046539E+02 -0.21650632932E+02 -0.26101127290E+01  0.60668878846E+02  0.00000000000E+00 0. -1.
         22    1    3    3    0    0 -0.13907954742E+02 -0.88724659387E+02 -0.12359123331E+03  0.15277529035E+03  0.00000000000E+00 0. -1.
</event>
<event>
 7    1  0.6152634E-006  0.7621737E+02  0.7818608E-02  0.1403198E+00
          2   -1    0    0  502    0  0.00000000000E+00  0.00000000000E+00  0.74017191519E+03  0.74017191519E+03  0.00000000000E+00 0. -1.
          1   -1    0    0  501    0 -0.00000000000E+00 -0.00000000000E+00 -0.11696567174E+04  0.11696567174E+04  0.00000000000E+00 0. -1.
         25    2    1    2    0    0 -0.33929599107E+01 -0.53913179768E+02  0.18342973056E+03  0.22844671029E+03  0.12499316085E+03 0.  0.
          2    1    1    2  501    0 -0.43943728143E+02 -0.10876847287E+02 -0.11436849379E+04  0.11445805320E+04  0.00000000000E+00 0. -1.
          1    1    1    2  502    0  0.47336688054E+02  0.64790027055E+02  0.53077040514E+03  0.53680139028E+03  0.00000000000E+00 0. -1.
         22    1    3    3    0    0  0.61378805170E+01  0.39231734570E+02  0.34889311427E+02  0.52858931378E+02  0.00000000000E+00 0. -1.
         22    1    3    3    0    0 -0.95308404278E+01 -0.93144914338E+02  0.14854041914E+03  0.17558777891E+03  0.00000000000E+00 0. -1.
</event>
<event>
 7    1  0.6152634E-006  0.3232124E+02  0.7818608E-02  0.1590850E+00
          2   -1    0    0  502    0  0.00000000000E+00  0.00000000000E+00  0.14135208589E+04  0.14135208589E+04  0.00000000000E+00 0. -1.
          1   -1    0    0  501    0 -0.00000000000E+00 -0.00000000000E+00 -0.14849833502E+02  0.14849833502E+02  0.00000000000E+00 0. -1.
         25    2    1    2    0    0 -0.38736542605E+02  0.34026087896E+02  0.72458933453E+03  0.73709752791E+03  0.12499907022E+03 0.  0.
          2    1    1    2  501    0  0.77617928990E+01 -0.28039566090E+02  0.17536505994E+02  0.33970453898E+02  0.00000000000E+00 0. -1.
          1    1    1    2  502    0  0.30974749706E+02 -0.59865218053E+01  0.65654518492E+03  0.65730271063E+03  0.00000000000E+00 0. -1.
         22    1    3    3    0    0 -0.55241190346E+02  0.23871253661E+02  0.71072983304E+03  0.71327296419E+03  0.00000000000E+00 0. -1.
         22    1    3    3    0    0  0.16504647741E+02  0.10154834234E+02  0.13859501483E+02  0.23824563726E+02  0.00000000000E+00 0. -1.
</event>
<event>
 7    1  0.6152634E-006  0.4728665E+02  0.7818608E-02  0.1483013E+00
          2   -1    0    0  502    0  0.00000000000E+00  0.00000000000E+00  0.15641590557E+04  0.15641590557E+04  0.00000000000E+00 0. -1.
          1   -1    0    0  501    0 -0.00000000000E+00 -0.00000000000E+00 -0.10319343774E+04  0.10319343774E+04  0.00000000000E+00 0. -1.
         25    2    1    2    0    0 -0.18448852556E+02  0.51949706736E+02  0.14897326755E+03  0.20213137173E+03  0.12499969922E+03 0.  0.
          2    1    1    2  501    0  0.42902969766E+02 -0.19948527030E+02 -0.10045063418E+04  0.10056200073E+04  0.00000000000E+00 0. -1.
          1    1    1    2  502    0 -0.24454117210E+02 -0.32001179705E+02  0.13877577525E+04  0.13883420540E+04  0.00000000000E+00 0. -1.
         22    1    3    3    0    0 -0.40688026994E+02 -0.68431241761E+01  0.90089746130E+00  0.41269304640E+02  0.00000000000E+00 0.  1.
         22    1    3    3    0    0  0.22239174439E+02  0.58792830912E+02  0.14807237009E+03  0.16086206709E+03  0.00000000000E+00 0.  1.
</event>
<event>
 7    1  0.6152634E-006  0.4477997E+02  0.7818608E-02  0.1505943E+00
          2   -1    0    0  502    0  0.00000000000E+00  0.00000000000E+00  0.10209795447E+04  0.10209795447E+04  0.00000000000E+00 0. -1.
          1   -1    0    0  501    0 -0.00000000000E+00 -0.00000000000E+00 -0.43822602362E+03  0.43822602362E+03  0.00000000000E+00 0. -1.
         25    2    1    2    0    0  0.72225866277E+02  0.37324259399E+01  0.64654088542E+02  0.15822617416E+03  0.12499945704E+03 0.  0.
          2    1    1    2  501    0 -0.41640723536E+02  0.15792822696E+02 -0.38980968198E+03  0.39234544889E+03  0.00000000000E+00 0. -1.
          1    1    1    2  502    0 -0.30585142741E+02 -0.19525248636E+02  0.90790911454E+03  0.90863394530E+03  0.00000000000E+00 0. -1.
         22    1    3    3    0    0  0.19413565025E+01 -0.44413491407E+02  0.57572632618E+02  0.72738814333E+02  0.00000000000E+00 0.  1.
         22    1    3    3    0    0  0.70284509774E+02  0.48145917347E+02  0.70814559244E+01  0.85487359823E+02  0.00000000000E+00 0.  1.
</event>
<event>
 7    1  0.6152634E-006  0.3197551E+02  0.7818608E-02  0.1621347E+00
          2   -1    0    0  502    0  0.00000000000E+00  0.00000000000E+00  0.12825412367E+04  0.12825412367E+04  0.00000000000E+00 0. -1.
          1   -1    0    0  501    0 -0.00000000000E+00 -0.00000000000E+00 -0.77826603276E+02  0.77826603276E+02  0.00000000000E+00 0. -1.
         25    2    1    2    0    0 -0.38624797680E+01 -0.52168104944E+02  0.21800844068E+03  0.25668940867E+03  0.12500136955E+03 0.  0.
          2    1    1    2  501    0 -0.78916143989E+01  0.30656560989E+02 -0.54047694300E+02  0.62635896805E+02  0.00000000000E+00 0. -1.
          1    1    1    2  502    0  0.11754094167E+02  0.21511543955E+02  0.10407538871E+04  0.10410425345E+04  0.00000000000E+00 0. -1.
         22    1    3    3    0    0 -0.56565812538E+02 -0.32544754750E+02  0.58808033540E+02  0.87847805998E+02  0.00000000000E+00 0.  1.
         22    1    3    3    0    0  0.52703332770E+02 -0.19623350194E+02  0.15920040714E+03  0.16884160267E+03  0.00000000000E+00 0.  1.
</event>
<event>
 7    1  0.6152634E-006  0.1431205E+03  0.7818608E-02  0.1351847E+00
          2   -1    0    0  502    0  0.00000000000E+00  0.00000000000E+00  0.60512907052E+03  0.60512907052E+03  0.00000000000E+00 0. -1.
          1   -1    0    0  501    0 -0.00000000000E+00 -0.00000000000E+00 -0.10127384554E+04  0.10127384554E+04  0.00000000000E+00 0. -1.
         25    2    1    2    0    0 -0.11334195583E+03  0.46208258836E+02 -0.34668610828E+03  0.38832703988E+03  0.12500012038E+03 0.  0.
          2    1    1    2  501    0 -0.41816556321E+01  0.36470026936E+02 -0.63586033983E+03  0.63691908503E+03  0.00000000000E+00 0. -1.
          1    1    1    2  502    0  0.11752361146E+03 -0.82678285772E+02  0.57493706326E+03  0.59262140098E+03  0.00000000000E+00 0. -1.
         22    1    3    3    0    0 -0.68688464606E+02 -0.12765651557E+02 -0.28049258879E+03  0.28906255274E+03  0.00000000000E+00 0.  1.
         22    1    3    3    0    0 -0.44653491224E+02  0.58973910393E+02 -0.66193519487E+02  0.99264487142E+02  0.00000000000E+00 0.  1.
</event>
<event>
 7    1  0.6152634E-006  0.1002994E+03  0.7818608E-02  0.1382150E+00
          2   -1    0    0  502    0  0.00000000000E+00  0.00000000000E+00  0.98562215569E+03  0.98562215569E+03  0.00000000000E+00 0. -1.
          1   -1    0    0  501    0 -0.00000000000E+00 -0.00000000000E+00 -0.11394061344E+03  0.11394061344E+03  0.00000000000E+00 0. -1.
         25    2    1    2    0    0 -0.12667641422E+03  0.12203088967E+02  0.55359316279E+03  0.58162443802E+03  0.12500307080E+03 0.  0.
          2    1    1    2  501    0  0.38871413401E+02  0.12105490689E+02 -0.90542108907E+02  0.99274383251E+02  0.00000000000E+00 0. -1.
          1    1    1    2  502    0  0.87805000819E+02 -0.24308579655E+02  0.40863048836E+03  0.41866394786E+03  0.00000000000E+00 0. -1.
         22    1    3    3    0    0 -0.79604895191E+02  0.24383103115E+02  0.12441950776E+03  0.14970534047E+03  0.00000000000E+00 0.  1.
         22    1    3    3    0    0 -0.47071519029E+02 -0.12180014148E+02  0.42917365503E+03  0.43191909754E+03  0.00000000000E+00 0.  1.
</event>
<event>
 7    1  0.6152634E-006  0.1643338E+03  0.7818608E-02  0.1292759E+00
          2   -1    0    0  502    0  0.00000000000E+00  0.00000000000E+00  0.16235708849E+04  0.16235708849E+04  0.00000000000E+00 0. -1.
          1   -1    0    0  501    0 -0.00000000000E+00 -0.00000000000E+00 -0.68194197036E+02  0.68194197036E+02  0.00000000000E+00 0. -1.
         25    2    1    2    0    0  0.10276576672E+03 -0.72020963973E+02  0.72420812337E+02  0.19134976021E+03  0.12498853792E+03 0.  0.
          2    1    1    2  501    0  0.96468942976E+01 -0.53246372082E+02  0.23434927034E+03  0.24051573590E+03  0.00000000000E+00 0. -1.
          1    1    1    2  502    0 -0.11241266101E+03  0.12526733606E+03  0.12486066052E+04  0.12598995859E+04  0.00000000000E+00 0. -1.
         22    1    3    3    0    0  0.85115203341E-02 -0.48488221983E+02 -0.18739249141E+02  0.51983335810E+02  0.00000000000E+00 0. -1.
         22    1    3    3    0    0  0.10275725520E+03 -0.23532741990E+02  0.91160061477E+02  0.13936642440E+03  0.00000000000E+00 0. -1.
</event>
<event>
 7    1  0.6152634E-006  0.6421101E+02  0.7818608E-02  0.1395242E+00
          2   -1    0    0  502    0  0.00000000000E+00  0.00000000000E+00  0.17727385052E+03  0.17727385052E+03  0.00000000000E+00 0. -1.
          1   -1    0    0  501    0 -0.00000000000E+00 -0.00000000000E+00 -0.61366160579E+03  0.61366160579E+03  0.00000000000E+00 0. -1.
         25    2    1    2    0    0  0.95791028569E+02 -0.23571026720E+02 -0.82053332478E+01  0.15946565561E+03  0.12502181158E+03 0.  0.
          2    1    1    2  501    0 -0.37268775461E+02  0.43435041667E+02 -0.51871025427E+03  0.52185811516E+03  0.00000000000E+00 0. -1.
          1    1    1    2  502    0 -0.58522253108E+02 -0.19864014947E+02  0.90527832240E+02  0.10961168555E+03  0.00000000000E+00 0. -1.
         22    1    3    3    0    0  0.12561660968E+03 -0.11560278443E+02 -0.13543651832E+02  0.12687238931E+03  0.00000000000E+00 0.  1.
         22    1    3    3    0    0 -0.29825581108E+02 -0.12010748277E+02  0.53383185845E+01  0.32593266297E+02  0.00000000000E+00 0.  1.
</event>
<event>
 7    1  0.6152634E-006  0.7383695E+02  0.7818608E-02  0.1370463E+00
          2   -1    0    0  502    0  0.00000000000E+00  0.00000000000E+00  0.63724883146E+02  0.63724883146E+02  0.00000000000E+00 0. -1.
          1   -1    0    0  501    0 -0.00000000000E+00 -0.00000000000E+00 -0.13196888710E+04  0.13196888710E+04  0.00000000000E+00 0. -1.
         25    2    1    2    0    0 -0.87356581189E+02 -0.87738362785E+02 -0.44697225660E+03  0.48035254729E+03  0.12500071572E+03 0.  0.
          2    1    1    2  501    0  0.32177783230E+02  0.62047413044E+02 -0.83424215169E+03  0.83716501292E+03  0.00000000000E+00 0. -1.
          1    1    1    2  502    0  0.55178797959E+02  0.25690949741E+02  0.25250420443E+02  0.65896193936E+02  0.00000000000E+00 0. -1.
         22    1    3    3    0    0  0.32167013447E+02 -0.25328918206E+02 -0.11298475920E+03  0.12017415139E+03  0.00000000000E+00 0. -1.
         22    1    3    3    0    0 -0.11952359464E+03 -0.62409444579E+02 -0.33398749741E+03  0.36017839590E+03  0.00000000000E+00 0. -1.
</event>
<event>
 7    1  0.6152634E-006  0.1319309E+03  0.7818608E-02  0.1242241E+00
          2   -1    0    0  502    0  0.00000000000E+00  0.00000000000E+00  0.26872701661E+04  0.26872701661E+04  0.00000000000E+00 0. -1.
          1   -1    0    0  501    0 -0.00000000000E+00 -0.00000000000E+00 -0.34123935351E+03  0.34123935351E+03  0.00000000000E+00 0. -1.
         25    2    1    2    0    0 -0.47205079892E+02 -0.17582775082E+02  0.28819700549E+03  0.31815131771E+03  0.12500109373E+03 0.  0.
          2    1    1    2  501    0 -0.91825045069E+02  0.60741187408E+02 -0.31467923996E+03  0.33338319516E+03  0.00000000000E+00 0. -1.
          1    1    1    2  502    0  0.13903012496E+03 -0.43158412326E+02  0.23725130470E+04  0.23769750067E+04  0.00000000000E+00 0. -1.
         22    1    3    3    0    0 -0.88910005138E+02 -0.15345018181E+02  0.16485109111E+03  0.18792642400E+03  0.00000000000E+00 0. -1.
         22    1    3    3    0    0  0.41704925246E+02 -0.22377569008E+01  0.12334591439E+03  0.13022489371E+03  0.00000000000E+00 0. -1.
</event>
<event>
 7    1  0.6152634E-006  0.1451455E+03  0.7818608E-02  0.1322471E+00
          2   -1    0    0  502    0  0.00000000000E+00  0.00000000000E+00  0.15110097132E+04  0.15110097132E+04  0.00000000000E+00 0. -1.
          1   -1    0    0  501    0 -0.00000000000E+00 -0.00000000000E+00 -0.98285711674E+03  0.98285711674E+03  0.00000000000E+00 0. -1.
         25    2    1    2    0    0  0.13772844895E+03 -0.47372643104E+01  0.15112013334E+03  0.23969507100E+03  0.12499946015E+03 0.  0.
          2    1    1    2  501    0 -0.13616675762E+03  0.51450430119E+02 -0.93250638920E+03  0.94379907742E+03  0.00000000000E+00 0. -1.
          1    1    1    2  502    0 -0.15616913292E+01 -0.46713165808E+02  0.13095388524E+04  0.13103726816E+04  0.00000000000E+00 0. -1.
         22    1    3    3    0    0  0.43401144678E+02  0.55612406560E+02  0.36398337490E+02  0.79380338213E+02  0.00000000000E+00 0. -1.
         22    1    3    3    0    0  0.94327304268E+02 -0.60349670871E+02  0.11472179585E+03  0.16031473278E+03  0.00000000000E+00 0. -1.
</event>
<event>
 7    1  0.6152634E-006  0.7423287E+02  0.7818608E-02  0.1371377E+00
          2   -1    0    0  502    0  0.00000000000E+00  0.00000000000E+00  0.21488785000E+04  0.21488785000E+04  0.00000000000E+00 0. -1.
          1   -1    0    0  501    0 -0.00000000000E+00 -0.00000000000E+00 -0.51464562868E+03  0.51464562868E+03  0.00000000000E+00 0. -1.
         25    2    1    2    0    0  0.63380262083E+02 -0.91643355932E+01  0.16455951425E+03  0.21634803605E+03  0.12500238518E+03 0.  0.
          2    1    1    2  501    0 -0.24230332903E+02 -0.54983675429E+02 -0.48618030580E+03  0.48987917219E+03  0.00000000000E+00 0. -1.
          1    1    1    2  502    0 -0.39149929180E+02  0.64148011022E+02  0.19558536628E+04  0.19572969204E+04  0.00000000000E+00 0. -1.
         22    1    3    3    0    0  0.11107212266E+02 -0.24943595727E+02  0.15915304551E+03  0.16147831132E+03  0.00000000000E+00 0. -1.
         22    1    3    3    0    0  0.52273049817E+02  0.15779260133E+02  0.54064687456E+01  0.54869724729E+02  0.00000000000E+00 0. -1.
</event>
<event>
 7    1  0.6152634E-006  0.6931337E+02  0.7818608E-02  0.1455969E+00
          2   -1    0    0  502    0  0.00000000000E+00  0.00000000000E+00  0.45542005711E+03  0.45542005711E+03  0.00000000000E+00 0. -1.
          1   -1    0    0  501    0 -0.00000000000E+00 -0.00000000000E+00 -0.21660766348E+03  0.21660766348E+03  0.00000000000E+00 0. -1.
         25    2    1    2    0    0 -0.23556730895E+02  0.65665428849E+02 -0.69048981524E+02  0.15893244622E+03  0.12499956998E+03 0.  0.
          2    1    1    2  501    0  0.51981474341E+02 -0.48214414719E+02 -0.89588184831E+02  0.11424861628E+03  0.00000000000E+00 0. -1.
          1    1    1    2  502    0 -0.28424743446E+02 -0.17451014130E+02  0.39744955999E+03  0.39884665809E+03  0.00000000000E+00 0. -1.
         22    1    3    3    0    0 -0.11077738237E+02 -0.11006896838E+02 -0.79079183471E+02  0.80606360301E+02  0.00000000000E+00 0. -1.
         22    1    3    3    0    0 -0.12478992658E+02  0.76672325687E+02  0.10030201948E+02  0.78326085917E+02  0.00000000000E+00 0. -1.
</event>
<event>
 7    1  0.6152634E-006  0.6913903E+02  0.7818608E-02  0.1367722E+00
          2   -1    0    0  502    0  0.00000000000E+00  0.00000000000E+00  0.87215074424E+03  0.87215074424E+03  0.00000000000E+00 0. -1.
          1   -1    0    0  501    0 -0.00000000000E+00 -0.00000000000E+00 -0.65430960364E+02  0.65430960364E+02  0.00000000000E+00 0. -1.
         25    2    1    2    0    0  0.77783836004E+02 -0.46241433624E+01  0.19168627675E+03  0.24174443187E+03  0.12500013521E+03 0.  0.
          2    1    1    2  501    0 -0.38509974088E+02 -0.54209285096E+02 -0.96229848048E+01  0.67188291624E+02  0.00000000000E+00 0. -1.
          1    1    1    2  502    0 -0.39273861915E+02  0.58833428458E+02  0.62465649193E+03  0.62864898111E+03  0.00000000000E+00 0. -1.
         22    1    3    3    0    0  0.10431283715E+03 -0.18986859318E+02  0.10201670671E+03  0.14713625409E+03  0.00000000000E+00 0.  1.
         22    1    3    3    0    0 -0.26529001146E+02  0.14362715955E+02  0.89669570039E+02  0.94608177778E+02  0.00000000000E+00 0.  1.
</event>
<event>
 7    1  0.6152634E-006  0.4878011E+02  0.7818608E-02  0.1499126E+00
          2   -1    0    0  502    0  0.00000000000E+00  0.00000000000E+00  0.22405781797E+04  0.22405781797E+04  0.00000000000E+00 0. -1.
          1   -1    0    0  501    0 -0.00000000000E+00 -0.00000000000E+00 -0.68194879013E+03  0.68194879013E+03  0.00000000000E+00 0. -1.
         25    2    1    2    0    0 -0.19438142809E+02  0.78220939725E+02  0.62581750006E+03  0.64324763633E+03  0.12499448570E+03 0.  0.
          2    1    1    2  501    0 -0.15756817751E+00 -0.34902022356E+02 -0.67242914944E+03  0.67333434266E+03  0.00000000000E+00 0. -1.
          1    1    1    2  502    0  0.19595710987E+02 -0.43318917369E+02  0.16052410390E+04  0.16059449909E+04  0.00000000000E+00 0. -1.
         22    1    3    3    0    0  0.57522093754E+01 -0.33431161508E+02  0.12540565938E+03  0.12991270098E+03  0.00000000000E+00 0.  1.
         22    1    3    3    0    0 -0.25190352184E+02  0.11165210123E+03  0.50041184069E+03  0.51333493535E+03  0.00000000000E+00 0.  1.
</event>
<event>
 7    1  0.6152634E-006  0.1087146E+03  0.7818608E-02  0.1288252E+00
          2   -1    0    0  502    0  0.00000000000E+00  0.00000000000E+00  0.14640356399E+04  0.14640356399E+04  0.00000000000E+00 0. -1.
          1   -1    0    0  501    0 -0.00000000000E+00 -0.00000000000E+00 -0.50594432825E+03  0.50594432825E+03  0.00000000000E+00 0. -1.
         25    2    1    2    0    0 -0.43877199961E+01 -0.18647305916E+03  0.19211764626E+03  0.29550892294E+03  0.12499951862E+03 0.  0.
          2    1    1    2  501    0  0.21756685573E+02  0.82500957774E+02 -0.44793781022E+03  0.45599127539E+03  0.00000000000E+00 0. -1.
          1    1    1    2  502    0 -0.17368965577E+02  0.10397210138E+03  0.12139114756E+04  0.12184797698E+04  0.00000000000E+00 0. -1.
         22    1    3    3    0    0 -0.45785772195E+02 -0.15892955587E+03  0.17976220843E+03  0.24427319183E+03  0.00000000000E+00 0. -1.
         22    1    3    3    0    0  0.41398052199E+02 -0.27543503281E+02  0.12355437833E+02  0.51235731115E+02  0.00000000000E+00 0. -1.
</event>
<event>
 7    1  0.6152634E-006  0.7003991E+02  0.7818608E-02  0.1381084E+00
          2   -1    0    0  502    0  0.00000000000E+00  0.00000000000E+00  0.35670368242E+03  0.35670368242E+03  0.00000000000E+00 0. -1.
          1   -1    0    0  501    0 -0.00000000000E+00 -0.00000000000E+00 -0.14154678449E+03  0.14154678449E+03  0.00000000000E+00 0. -1.
         25    2    1    2    0    0 -0.42371288465E+01 -0.43512075160E+02 -0.51316022440E+00  0.13242369356E+03  0.12499806934E+03 0.  0.
          2    1    1    2  501    0  0.58548512093E+02 -0.55368695654E+01 -0.57965268988E+02  0.82574557836E+02  0.00000000000E+00 0. -1.
          1    1    1    2  502    0 -0.54311383247E+02  0.49048944725E+02  0.27363532715E+03  0.28325221551E+03  0.00000000000E+00 0. -1.
         22    1    3    3    0    0 -0.36120739363E+02  0.21970224929E+01 -0.47371254540E+02  0.59611831683E+02  0.00000000000E+00 0. -1.
         22    1    3    3    0    0  0.31883610517E+02 -0.45709097653E+02  0.46858094315E+02  0.72811861882E+02  0.00000000000E+00 0. -1.
</event>
<event>
 7    1  0.6152634E-006  0.9952676E+02  0.7818608E-02  0.1401465E+00
          2   -1    0    0  502    0  0.00000000000E+00  0.00000000000E+00  0.56254871907E+03  0.56254871907E+03  0.00000000000E+00 0. -1.
          1   -1    0    0  501    0 -0.00000000000E+00 -0.00000000000E+00 -0.16021102282E+04  0.16021102282E+04  0.00000000000E+00 0. -1.
         25    2    1    2    0    0 -0.77269714605E+01  0.71508683914E+02 -0.19624391209E+03  0.24353867362E+03  0.12500485812E+03 0.  0.
          2    1    1    2  501    0  0.32377462854E+02 -0.96559176919E+02 -0.13797671820E+04  0.13835206725E+04  0.00000000000E+00 0. -1.
          1    1    1    2  502    0 -0.24650491394E+02  0.25050493005E+02  0.53644958496E+03  0.53759960113E+03  0.00000000000E+00 0. -1.
         22    1    3    3    0    0  0.40735839227E+02  0.19912626889E+01 -0.12919348765E+03  0.13547815682E+03  0.00000000000E+00 0. -1.
         22    1    3    3    0    0 -0.48462810687E+02  0.69517421225E+02 -0.67050424443E+02  0.10806051680E+03  0.00000000000E+00 0. -1.
</event>
<event>
 7    1  0.6152634E-006  0.8737070E+02  0.7818608E-02  0.1349416E+00
          2   -1    0    0  502    0  0.00000000000E+00  0.00000000000E+00  0.14886885183E+04  0.14886885183E+04  0.00000000000E+00 0. -1.
          1   -1    0    0  501    0 -0.00000000000E+00 -0.00000000000E+00 -0.46248740009E+03  0.46248740009E+03  0.00000000000E+00 0. -1.
         25    2    1    2    0    0 -0.55525989498E+02 -0.12280403477E+03 -0.82856009959E+02  0.20163457866E+03  0.12500967346E+03 0.  0.
          2    1    1    2  501    0 -0.58299843558E+01  0.61113770933E+02 -0.31596079091E+03  0.32186969896E+03  0.00000000000E+00 0. -1.
          1    1    1    2  502    0  0.61355973854E+02  0.61690263840E+02  0.14250179191E+04  0.14276716408E+04  0.00000000000E+00 0. -1.
         22    1    3    3    0    0 -0.37251334521E+02  0.12200706295E+02  0.50161048040E+01  0.39518103005E+02  0.00000000000E+00 0. -1.
         22    1    3    3    0    0 -0.18274654976E+02 -0.13500474107E+03 -0.87872114763E+02  0.16211647565E+03  0.00000000000E+00 0. -1.
</event>
<event>
 7    1  0.6152634E-006  0.1135827E+03  0.7818608E-02  0.1288886E+00
          2   -1    0    0  502    0  0.00000000000E+00  0.00000000000E+00  0.22059103826E+03  0.22059103826E+03  0.00000000000E+00 0. -1.
          1   -1    0    0  501    0 -0.00000000000E+00 -0.00000000000E+00 -0.85012365289E+03  0.85012365289E+03  0.00000000000E+00 0. -1.
         25    2    1    2    0    0 -0.26455289942E+02  0.98381885152E+02  0.11570965166E+03  0.19847528493E+03  0.12499935019E+03 0.  0.
          2    1    1    2  501    0  0.64373947960E+02  0.49458763388E+02 -0.71125789545E+03  0.71587566538E+03  0.00000000000E+00 0. -1.
          1    1    1    2  502    0 -0.37918658018E+02 -0.14784064854E+03 -0.33984370844E+02  0.15636374084E+03  0.00000000000E+00 0. -1.
         22    1    3    3    0    0 -0.75013732728E+02  0.51695888234E+02  0.84417379027E+02  0.12420071997E+03  0.00000000000E+00 0.  1.
         22    1    3    3    0    0  0.48558442786E+02  0.46685996918E+02  0.31292272633E+02  0.74274564964E+02  0.00000000000E+00 0.  1.
</event>
<event>
 7    1  0.6152634E-006  0.1250345E+03  0.7818608E-02  0.1336625E+00
          2   -1    0    0  502    0  0.00000000000E+00  0.00000000000E+00  0.27595709480E+04  0.27595709480E+04  0.00000000000E+00 0. -1.
          1   -1    0    0  501    0 -0.00000000000E+00 -0.00000000000E+00 -0.21630602964E+03  0.21630602964E+03  0.00000000000E+00 0. -1.
         25    2    1    2    0    0 -0.11006798200E+03 -0.65459681046E+02  0.12643996854E+04  0.12770009323E+04  0.12499954374E+03 0.  0.
          2    1    1    2  501    0  0.12359227020E+03  0.19507749204E+02 -0.19094340902E+03  0.22828707142E+03  0.00000000000E+00 0. -1.
          1    1    1    2  502    0 -0.13524288193E+02  0.45951931842E+02  0.14698086419E+04  0.14705889739E+04  0.00000000000E+00 0. -1.
         22    1    3    3    0    0 -0.11004314133E+03  0.19748586786E+01  0.70252446056E+03  0.71109353162E+03  0.00000000000E+00 0. -1.
         22    1    3    3    0    0 -0.24840673447E-01 -0.67434539725E+02  0.56187522487E+03  0.56590740063E+03  0.00000000000E+00 0. -1.
</event>
<event>
 7    1  0.6152634E-006  0.4924722E+02  0.7818608E-02  0.1539121E+00
          2   -1    0    0  502    0  0.00000000000E+00  0.00000000000E+00  0.17476883452E+03  0.17476883452E+03  0.00000000000E+00 0. -1.
          1   -1    0    0  501    0 -0.00000000000E+00 -0.00000000000E+00 -0.18389739999E+04  0.18389739999E+04  0.00000000000E+00 0. -1.
         25    2    1    2    0    0  0.21788448192E+02  0.11838341848E+02 -0.16331345742E+03  0.20714981231E+03  0.12499950621E+03 0.  0.
          2    1    1    2  501    0  0.14856461228E+02  0.21882750407E+02 -0.16495773503E+04  0.16497893817E+04  0.00000000000E+00 0. -1.
          1    1    1    2  502    0 -0.36644909419E+02 -0.33721092255E+02  0.14868564229E+03  0.15680364050E+03  0.00000000000E+00 0. -1.
         22    1    3    3    0    0 -0.19603236979E+02 -0.10045437807E+02  0.12419069231E+02  0.25286972958E+02  0.00000000000E+00 0. -1.
         22    1    3    3    0    0  0.41391685171E+02  0.21883779655E+02 -0.17573252665E+03  0.18186283935E+03  0.00000000000E+00 0. -1.
</event>
<event>
 7    1  0.6152634E-006  0.3238052E+03  0.7818608E-02  0.1147195E+00
          2   -1    0    0  502    0  0.00000000000E+00  0.00000000000E+00  0.14367629494E+04  0.14367629494E+04  0.00000000000E+00 0. -1.
          1   -1    0    0  501    0 -0.00000000000E+00 -0.00000000000E+00 -0.86858176834E+03  0.86858176834E+03  0.00000000000E+00 0. -1.
         25    2    1    2    0    0  0.27081201897E+03  0.31880592563E+03  0.38739495904E+03  0.58367568117E+03  0.12500431455E+03 0.  0.
          2    1    1    2  501    0 -0.11026149656E+03 -0.63664769942E+02 -0.74099158195E+03  0.75185060024E+03  0.00000000000E+00 0. -1.
          1    1    1    2  502    0 -0.16055052241E+03 -0.25514115569E+03  0.92177780394E+03  0.96981843631E+03  0.00000000000E+00 0. -1.
         22    1    3    3    0    0  0.14122971718E+03  0.16317441714E+03  0.28282609208E+03  0.35575598629E+03  0.00000000000E+00 0. -1.
         22    1    3    3    0    0  0.12958230179E+03  0.15563150849E+03  0.10456886697E+03  0.22791969488E+03  0.00000000000E+00 0. -1.
</event>
<event>
 7    1  0.6152634E-006  0.7371718E+02  0.7818608E-02  0.1418267E+00
          2   -1    0    0  502    0  0.00000000000E+00  0.00000000000E+00  0.12342133307E+04  0.12342133307E+04  0.00000000000E+00 0. -1.
          1   -1    0    0  501    0 -0.00000000000E+00 -0.00000000000E+00 -0.14548639358E+03  0.14548639358E+03  0.00000000000E+00 0. -1.
         25    2    1    2    0    0 -0.88406858088E+02  0.46885143819E+02  0.21312789020E+03  0.26657963002E+03  0.12500884886E+03 0.  0.
          2    1    1    2  501    0  0.16192713689E+02 -0.38338719519E+02 -0.11373853874E+03  0.12111365153E+03  0.00000000000E+00 0. -1.
          1    1    1    2  502    0  0.72214144399E+02 -0.85464243000E+01  0.98933758567E+03  0.99200644274E+03  0.00000000000E+00 0. -1.
         22    1    3    3    0    0  0.16263237399E+02  0.44632351269E+02  0.10908542599E+03  0.11897970345E+03  0.00000000000E+00 0. -1.
         22    1    3    3    0    0 -0.10467009549E+03  0.22527925491E+01  0.10404246421E+03  0.14759992657E+03  0.00000000000E+00 0. -1.
</event>
<event>
 7    1  0.6152634E-006  0.9420001E+02  0.7818608E-02  0.1315440E+00
          2   -1    0    0  502    0  0.00000000000E+00  0.00000000000E+00  0.47406317127E+03  0.47406317127E+03  0.00000000000E+00 0. -1.
          1   -1    0    0  501    0 -0.00000000000E+00 -0.00000000000E+00 -0.50791657341E+03  0.50791657341E+03  0.00000000000E+00 0. -1.
         25    2    1    2    0    0  0.16074765358E+03  0.46550554418E+02  0.19913727905E+03  0.28859929503E+03  0.12500853945E+03 0.  0.
          2    1    1    2  501    0 -0.84484092744E+02 -0.38440155135E+02 -0.45194759776E+03  0.46138036215E+03  0.00000000000E+00 0. -1.
          1    1    1    2  502    0 -0.76263560835E+02 -0.81103992835E+01  0.21895691657E+03  0.23200008750E+03  0.00000000000E+00 0. -1.
         22    1    3    3    0    0  0.10388790471E+03  0.87670733817E+02  0.15276958864E+03  0.20449303539E+03  0.00000000000E+00 0. -1.
         22    1    3    3    0    0  0.56859748874E+02 -0.41120179399E+02  0.46367690415E+02  0.84106259638E+02  0.00000000000E+00 0. -1.
</event>
<event>
 7    1  0.6152634E-006  0.4650395E+02  0.7818608E-02  0.1516394E+00
          2   -1    0    0  502    0  0.00000000000E+00  0.00000000000E+00  0.19585238196E+02  0.19585238196E+02  0.00000000000E+00 0. -1.
          1   -1    0    0  501    0 -0.00000000000E+00 -0.00000000000E+00 -0.19218217612E+04  0.19218217612E+04  0.00000000000E+00 0. -1.
         25    2    1    2    0    0  0.76152406659E+02  0.11658347254E+02 -0.65644884230E+03  0.67266769081E+03  0.12498653365E+03 0.  0.
          2    1    1    2  501    0 -0.32172182145E+02 -0.49780320260E+01 -0.12130989199E+04  0.12135356688E+04  0.00000000000E+00 0. -1.
          1    1    1    2  502    0 -0.43980224513E+02 -0.66803152281E+01 -0.32688760846E+02  0.55203639784E+02  0.00000000000E+00 0. -1.
         22    1    3    3    0    0  0.98839296485E+01 -0.31927422315E+02 -0.45410436352E+03  0.45533265348E+03  0.00000000000E+00 0.  1.
         22    1    3    3    0    0  0.66268477010E+02  0.43585769569E+02 -0.20234447878E+03  0.21733503732E+03  0.00000000000E+00 0.  1.
</event>
<event>
 7    1  0.6152634E-006  0.1385346E+03  0.7818608E-02  0.1400255E+00
          2   -1    0    0  502    0  0.00000000000E+00  0.00000000000E+00  0.29331377583E+03  0.29331377583E+03  0.00000000000E+00 0. -1.
          1   -1    0    0  501    0 -0.00000000000E+00 -0.00000000000E+00 -0.15563241743E+03  0.15563241743E+03  0.00000000000E+00 0. -1.
         25    2    1    2    0    0 -0.36390674481E+02 -0.13658626286E+03  0.59617388014E+02  0.19788489376E+03  0.12499643927E+03 0.  0.
          2    1    1    2  501    0  0.10918014991E+02  0.13757430180E+03 -0.28985985816E+02  0.14101800927E+03  0.00000000000E+00 0. -1.
          1    1    1    2  502    0  0.25472659490E+02 -0.98803893036E+00  0.10704995620E+03  0.11004329023E+03  0.00000000000E+00 0. -1.
         22    1    3    3    0    0  0.49018871297E+01 -0.10720369360E+03 -0.14298054708E+02  0.10826400504E+03  0.00000000000E+00 0. -1.
         22    1    3    3    0    0 -0.41292561611E+02 -0.29382569261E+02  0.73915442721E+02  0.89620888712E+02  0.00000000000E+00 0. -1.
</event>
<event>
 7    1  0.6152634E-006  0.6753520E+02  0.7818608E-02  0.1434256E+00
          2   -1    0    0  502    0  0.00000000000E+00  0.00000000000E+00  0.11322711465E+04  0.11322711465E+04  0.00000000000E+00 0. -1.
          1   -1    0    0  501    0 -0.00000000000E+00 -0.00000000000E+00 -0.48177031356E+03  0.48177031356E+03  0.00000000000E+00 0. -1.
         25    2    1    2    0    0  0.72257732827E+02  0.54560312098E+02  0.65237533190E+03  0.67038461840E+03  0.12499582117E+03 0.  0.
          2    1    1    2  501    0 -0.40215852561E+02  0.53587545905E-01 -0.46977405942E+03  0.47149229534E+03  0.00000000000E+00 0. -1.
          1    1    1    2  502    0 -0.32041880267E+02 -0.54613899644E+02  0.46789956045E+03  0.47216454632E+03  0.00000000000E+00 0. -1.
         22    1    3    3    0    0 -0.20407884768E+02  0.49997559012E+02  0.14793634475E+03  0.15748460168E+03  0.00000000000E+00 0. -1.
         22    1    3    3    0    0  0.92665617595E+02  0.45627530868E+01  0.50443898715E+03  0.51290001672E+03  0.00000000000E+00 0. -1.
</event>
<event>
 7    1  0.6152634E-006  0.9071237E+02  0.7818608E-02  0.1353704E+00
          2   -1    0    0  502    0  0.00000000000E+00  0.00000000000E+00  0.28411334704E+03  0.28411334704E+03  0.00000000000E+00 0. -1.
          1   -1    0    0  501    0 -0.00000000000E+00 -0.00000000000E+00 -0.63901910244E+03  0.63901910244E+03  0.00000000000E+00 0. -1.
         25    2    1    2    0    0  0.91297778301E+02  0.26911785563E+02  0.11443006422E+03  0.19436680140E+03  0.12499874144E+03 0.  0.
          2    1    1    2  501    0 -0.85970210586E+02  0.29849220934E+02 -0.58911944725E+03  0.59610701743E+03  0.00000000000E+00 0. -1.
          1    1    1    2  502    0 -0.53275677154E+01 -0.56761006497E+02  0.11978362764E+03  0.13265863065E+03  0.00000000000E+00 0. -1.
         22    1    3    3    0    0  0.63183187418E+01 -0.45097603129E+02  0.37578800607E+02  0.59041351736E+02  0.00000000000E+00 0. -1.
         22    1    3    3    0    0  0.84979459559E+02  0.72009388692E+02  0.76851263614E+02  0.13532544966E+03  0.00000000000E+00 0. -1.
</event>
<event>
 7    1  0.6152634E-006  0.6901289E+02  0.7818608E-02  0.1468793E+00
          2   -1    0    0  502    0  0.00000000000E+00  0.00000000000E+00  0.15506450586E+04  0.15506450586E+04  0.00000000000E+00 0. -1.
          1   -1    0    0  501    0 -0.00000000000E+00 -0.00000000000E+00 -0.14775916966E+03  0.14775916966E+03  0.00000000000E+00 0. -1.
         25    2    1    2    0    0  0.51709346950E+02  0.83055009772E+02  0.13398113129E+04  0.13491818448E+04  0.12500121954E+03 0.  0.
          2    1    1    2  501    0 -0.29351031834E+02 -0.62267037576E+02 -0.13354705686E+03  0.15024474512E+03  0.00000000000E+00 0. -1.
          1    1    1    2  502    0 -0.22358315115E+02 -0.20787972196E+02  0.19662163292E+03  0.19897763838E+03  0.00000000000E+00 0. -1.
         22    1    3    3    0    0  0.36665982291E+02  0.11499129663E+03  0.11292529479E+04  0.11356846450E+04  0.00000000000E+00 0.  1.
         22    1    3    3    0    0  0.15043364659E+02 -0.31936286859E+02  0.21055836503E+03  0.21349719980E+03  0.00000000000E+00 0.  1.
</event>
<event>
 7    1  0.6152634E-006  0.1222220E+03  0.7818608E-02  0.1425890E+00
          2   -1    0    0  502    0  0.00000000000E+00  0.00000000000E+00  0.42791591964E+03  0.42791591964E+03  0.00000000000E+00 0. -1.
          1   -1    0    0  501    0 -0.00000000000E+00 -0.00000000000E+00 -0.67802285124E+03  0.67802285124E+03  0.00000000000E+00 0. -1.
         25    2    1    2    0    0 -0.13123039905E+03  0.24244564418E+02  0.42225999964E+02  0.18766277876E+03  0.12500026768E+03 0.  0.
          2    1    1    2  501    0  0.17480568769E+02  0.15968818462E+02 -0.59343225417E+03  0.59390438097E+03  0.00000000000E+00 0. -1.
          1    1    1    2  502    0  0.11374983028E+03 -0.40213382880E+02  0.30109932260E+03  0.32437161115E+03  0.00000000000E+00 0. -1.
         22    1    3    3    0    0 -0.34061487634E+02 -0.25522293943E+02  0.63492505396E+02  0.76438672604E+02  0.00000000000E+00 0.  1.
         22    1    3    3    0    0 -0.97168911412E+02  0.49766858360E+02 -0.21266505433E+02  0.11122410615E+03  0.00000000000E+00 0.  1.
</event>
<event>
 7    1  0.6152634E-006  0.7994262E+02  0.7818608E-02  0.1436289E+00
          2   -1    0    0  502    0  0.00000000000E+00  0.00000000000E+00  0.18853882964E+03  0.18853882964E+03  0.00000000000E+00 0. -1.
          1   -1    0    0  501    0 -0.00000000000E+00 -0.00000000000E+00 -0.16611668323E+04  0.16611668323E+04  0.00000000000E+00 0. -1.
         25    2    1    2    0    0 -0.46567322382E+02  0.39494175208E+02 -0.63738623222E+03  0.65238974999E+03  0.12499148564E+03 0.  0.
          2    1    1    2  501    0 -0.29885619904E+02 -0.15043871068E+02 -0.10070901774E+04  0.10076458176E+04  0.00000000000E+00 0. -1.
          1    1    1    2  502    0  0.76452942286E+02 -0.24450304140E+02  0.17184840690E+03  0.18967009440E+03  0.00000000000E+00 0. -1.
         22    1    3    3    0    0  0.73646709009E+01  0.74465660166E+02 -0.34134245199E+03  0.34944819710E+03  0.00000000000E+00 0.  1.
         22    1    3    3    0    0 -0.53931993283E+02 -0.34971484958E+02 -0.29604378022E+03  0.30294155289E+03  0.00000000000E+00 0.  1.
</event>
<event>
 7    1  0.6152634E-006  0.1049046E+03  0.7818608E-02  0.1376912E+00
          2   -1    0    0  502    0  0.00000000000E+00  0.00000000000E+00  0.80676168582E+03  0.80676168582E+03  0.00000000000E+00 0. -1.
          1   -1    0    0  501    0 -0.00000000000E+00 -0.00000000000E+00 -0.75787823135E+03  0.75787823135E+03  0.00000000000E+00 0. -1.
         25    2    1    2    0    0  0.57631207634E+02  0.11290662080E+03  0.19857428975E+02  0.17913173790E+03  0.12499840368E+03 0.  0.
          2    1    1    2  501    0 -0.39261174807E+02 -0.10439443916E+02 -0.67379537312E+03  0.67501898246E+03  0.00000000000E+00 0. -1.
          1    1    1    2  502    0 -0.18370032828E+02 -0.10246717688E+03  0.70282139862E+03  0.71048919682E+03  0.00000000000E+00 0. -1.
         22    1    3    3    0    0  0.74245249169E+02  0.40249474313E+02 -0.29817143932E+02  0.89562488123E+02  0.00000000000E+00 0. -1.
         22    1    3    3    0    0 -0.16614041534E+02  0.72657146485E+02  0.49674572908E+02  0.89569249774E+02  0.00000000000E+00 0. -1.
</event>
<event>
 7    1  0.6152634E-006  0.3354014E+02  0.7818608E-02  0.1571081E+00
          2   -1    0    0  502    0  0.00000000000E+00  0.00000000000E+00  0.38193756649E+02  0.38193756649E+02  0.00000000000E+00 0. -1.
          1   -1    0    0  501    0 -0.00000000000E+00 -0.00000000000E+00 -0.10387898765E+04  0.10387898765E+04  0.00000000000E+00 0. -1.
         25    2    1    2    0    0  0.42610177308E+02  0.46726113729E+02 -0.26612058186E+03  0.30073903815E+03  0.12499939225E+03 0.  0.
          2    1    1    2  501    0 -0.16844953448E+02 -0.28307197386E+02 -0.74277370618E+03  0.74350375149E+03  0.00000000000E+00 0. -1.
          1    1    1    2  502    0 -0.25765223860E+02 -0.18418916343E+02  0.82981681746E+01  0.32740843527E+02  0.00000000000E+00 0. -1.
         22    1    3    3    0    0 -0.84165881649E+01 -0.13881541080E+02  0.60094841447E+01  0.17310402618E+02  0.00000000000E+00 0. -1.
         22    1    3    3    0    0  0.51026765473E+02  0.60607654809E+02 -0.27213006600E+03  0.28342863553E+03  0.00000000000E+00 0. -1.
</event>
<event>
 7    1  0.6152634E-006  0.1071551E+03  0.7818608E-02  0.1301690E+00
          2   -1    0    0  502    0  0.00000000000E+00  0.00000000000E+00  0.17359204784E+03  0.17359204784E+03  0.00000000000E+00 0. -1.
          1   -1    0    0  501    0 -0.00000000000E+00 -0.00000000000E+00 -0.97012841966E+03  0.97012841966E+03  0.00000000000E+00 0. -1.
         25    2    1    2    0    0 -0.17327593709E+03 -0.13482891656E+02 -0.20393815330E+03  0.29567046830E+03  0.12499566676E+03 0.  0.
          2    1    1    2  501    0  0.72084381598E+02  0.25321343748E+02 -0.69758437880E+03  0.70175586500E+03  0.00000000000E+00 0. -1.
          1    1    1    2  502    0  0.10119155549E+03 -0.11838452092E+02  0.10498616028E+03  0.14629413420E+03  0.00000000000E+00 0. -1.
         22    1    3    3    0    0 -0.15931022221E+03  0.12440559605E+02 -0.21168125442E+03  0.26522343014E+03  0.00000000000E+00 0.  1.
         22    1    3    3    0    0 -0.13965714880E+02 -0.25923451261E+02  0.77431011193E+01  0.30447038154E+02  0.00000000000E+00 0.  1.
</event>
<event>
 7    1  0.6152634E-006  0.9805913E+02  0.7818608E-02  0.1355612E+00
          2   -1    0    0  502    0  0.00000000000E+00  0.00000000000E+00  0.21224829507E+04  0.21224829507E+04  0.00000000000E+00 0. -1.
          1   -1    0    0  501    0 -0.00000000000E+00 -0.00000000000E+00 -0.70353511163E+03  0.70353511163E+03  0.00000000000E+00 0. -1.
         25    2    1    2    0    0  0.13303136316E+03 -0.34133329122E+02  0.61021180122E+03  0.63784473063E+03  0.12500012119E+03 0.  0.
          2    1    1    2  501    0 -0.97792285360E+02 -0.39610836592E+01 -0.68579396629E+03  0.69274265456E+03  0.00000000000E+00 0. -1.
          1    1    1    2  502    0 -0.35239077802E+02  0.38094412781E+02  0.14945300042E+04  0.14954306772E+04  0.00000000000E+00 0. -1.
         22    1    3    3    0    0  0.47385462857E+02 -0.26156804507E+02  0.59416527455E+02  0.80373405098E+02  0.00000000000E+00 0. -1.
         22    1    3    3    0    0  0.85645900305E+02 -0.79765246144E+01  0.55079527377E+03  0.55747132553E+03  0.00000000000E+00 0. -1.
</event>
<event>
 7    1  0.6152634E-006  0.1613713E+03  0.7818608E-02  0.1369421E+00
          2   -1    0    0  502    0  0.00000000000E+00  0.00000000000E+00  0.15738011590E+04  0.15738011590E+04  0.00000000000E+00 0. -1.
          1   -1    0    0  501    0 -0.00000000000E+00 -0.00000000000E+00 -0.21294672774E+04  0.21294672774E+04  0.00000000000E+00 0. -1.
         25    2    1    2    0    0 -0.44450780931E+02  0.16993319205E+03 -0.87686687577E+03  0.90298063483E+03  0.12500138947E+03 0.  0.
          2    1    1    2  501    0  0.57841340067E+02 -0.14523894832E+03 -0.12344869888E+04  0.12443464542E+04  0.00000000000E+00 0. -1.
          1    1    1    2  502    0 -0.13390559136E+02 -0.24694243734E+02  0.15556877462E+04  0.15559413473E+04  0.00000000000E+00 0. -1.
         22    1    3    3    0    0 -0.31221002352E+02  0.95537771972E+02 -0.22108333523E+03  0.24285810255E+03  0.00000000000E+00 0. -1.
         22    1    3    3    0    0 -0.13229778579E+02  0.74395420081E+02 -0.65578354055E+03  0.66012253228E+03  0.00000000000E+00 0. -1.
</event>
<event>
 7    1  0.6152634E-006  0.6203900E+02  0.7818608E-02  0.1477519E+00
          2   -1    0    0  502    0  0.00000000000E+00  0.00000000000E+00  0.15479787841E+03  0.15479787841E+03  0.00000000000E+00 0. -1.
          1   -1    0    0  501    0 -0.00000000000E+00 -0.00000000000E+00 -0.24055219604E+03  0.24055219604E+03  0.00000000000E+00 0. -1.
         25    2    1    2    0    0  0.29299692544E+02  0.17375019613E+02 -0.66082885682E+02  0.14543753776E+03  0.12499906527E+03 0.  0.
          2    1    1    2  501    0  0.18439510317E+02  0.26045759537E+02 -0.12355903275E+03  0.12761360313E+03  0.00000000000E+00 0. -1.
          1    1    1    2  502    0 -0.47739202861E+02 -0.43420779150E+02  0.10388760079E+03  0.12229893356E+03  0.00000000000E+00 0. -1.
         22    1    3    3    0    0 -0.26095867209E+02  0.17351909133E+02  0.24145401991E+02  0.39561135895E+02  0.00000000000E+00 0. -1.
         22    1    3    3    0    0  0.55395559753E+02  0.23110480108E-01 -0.90228287674E+02  0.10587640186E+03  0.00000000000E+00 0. -1.
</event>
<event>
 7    1  0.6152634E-006  0.9861512E+02  0.7818608E-02  0.1318494E+00
          2   -1    0    0  502    0  0.00000000000E+00  0.00000000000E+00  0.34831412020E+03  0.34831412020E+03  0.00000000000E+00 0. -1.
          1   -1    0    0  501    0 -0.00000000000E+00 -0.00000000000E+00 -0.29772934813E+03  0.29772934813E+03  0.00000000000E+00 0. -1.
         25    2    1    2    0    0 -0.14920519726E+03  0.11152375228E+02 -0.60202965460E+02  0.20405063329E+03  0.12500279011E+03 0.  0.
          2    1    1    2  501    0  0.87423434632E+02  0.24396330450E+02 -0.14797443818E+03  0.17359283458E+03  0.00000000000E+00 0. -1.
          1    1    1    2  502    0  0.61781762624E+02 -0.35548705678E+02  0.25876217571E+03  0.26840000046E+03  0.00000000000E+00 0. -1.
         22    1    3    3    0    0 -0.12721793798E+03 -0.42997038108E+02 -0.27481081510E+02  0.13707063460E+03  0.00000000000E+00 0.  1.
         22    1    3    3    0    0 -0.21987259281E+02  0.54149413335E+02 -0.32721883949E+02  0.66979998689E+02  0.00000000000E+00 0.  1.
</event>
<event>
 7    1  0.6152634E-006  0.2091677E+03  0.7818608E-02  0.1294372E+00
          2   -1    0    0  502    0  0.00000000000E+00  0.00000000000E+00  0.86025123736E+03  0.86025123736E+03  0.00000000000E+00 0. -1.
          1   -1    0    0  501    0 -0.00000000000E+00 -0.00000000000E+00 -0.28603680171E+03  0.28603680171E+03  0.00000000000E+00 0. -1.
         25    2    1    2    0    0  0.18086217170E+03  0.50749865120E+02 -0.37724247337E+02  0.22873540977E+03  0.12494036532E+03 0.  0.
          2    1    1    2  501    0 -0.21657291897E+03 -0.72629522877E+02 -0.66431588463E+02  0.23789080010E+03  0.00000000000E+00 0. -1.
          1    1    1    2  502    0  0.35710747270E+02  0.21879657757E+02  0.67837027145E+03  0.67966182921E+03  0.00000000000E+00 0. -1.
         22    1    3    3    0    0  0.18271322334E+03  0.61826310990E+02 -0.37213690514E+01  0.19292605657E+03  0.00000000000E+00 0. -1.
         22    1    3    3    0    0 -0.18510516438E+01 -0.11076445870E+02 -0.34002878286E+02  0.35809353206E+02  0.00000000000E+00 0. -1.
</event>
<event>
 7    1  0.6152634E-006  0.1302964E+03  0.7818608E-02  0.1284615E+00
          2   -1    0    0  502    0  0.00000000000E+00  0.00000000000E+00  0.11267370993E+04  0.11267370993E+04  0.00000000000E+00 0. -1.
          1   -1    0    0  501    0 -0.00000000000E+00 -0.00000000000E+00 -0.23126136042E+04  0.23126136042E+04  0.00000000000E+00 0. -1.
         25    2    1    2    0    0  0.10122140087E+03  0.28743839370E+02  0.18818201670E+03  0.24921858572E+03  0.12500180704E+03 0.  0.
          2    1    1    2  501    0 -0.95584094601E+01  0.73047229021E+02 -0.22763300699E+04  0.22775218656E+04  0.00000000000E+00 0. -1.
          1    1    1    2  502    0 -0.91662991405E+02 -0.10179106839E+03  0.90227154834E+03  0.91261025227E+03  0.00000000000E+00 0. -1.
         22    1    3    3    0    0 -0.29389281722E+02  0.88570049634E+01  0.27652456504E+02  0.41313856849E+02  0.00000000000E+00 0.  1.
         22    1    3    3    0    0  0.13061068259E+03  0.19886834406E+02  0.16052956020E+03  0.20790472887E+03  0.00000000000E+00 0.  1.
</event>
<event>
 7    1  0.6152634E-006  0.1652943E+03  0.7818608E-02  0.1280254E+00
          2   -1    0    0  502    0  0.00000000000E+00  0.00000000000E+00  0.87787967033E+03  0.87787967033E+03  0.00000000000E+00 0. -1.
          1   -1    0    0  501    0 -0.00000000000E+00 -0.00000000000E+00 -0.11881595342E+04  0.11881595342E+04  0.00000000000E+00 0. -1.
         25    2    1    2    0    0 -0.14573759520E+02  0.20528558419E+03  0.10081986394E+03  0.26104253110E+03  0.12499597006E+03 0.  0.
          2    1    1    2  501    0  0.39238303590E+02 -0.46079527539E+02 -0.10978934001E+04  0.10995603145E+04  0.00000000000E+00 0. -1.
          1    1    1    2  502    0 -0.24664544070E+02 -0.15920605665E+03  0.68679367226E+03  0.70543635891E+03  0.00000000000E+00 0. -1.
         22    1    3    3    0    0  0.59206014131E+01  0.19534761370E+03  0.44710388790E+02  0.20048631515E+03  0.00000000000E+00 0.  1.
         22    1    3    3    0    0 -0.20494360933E+02  0.99379704987E+01  0.56109475153E+02  0.60556215945E+02  0.00000000000E+00 0.  1.
</event>
<event>
 7    1  0.6152634E-006  0.9511849E+02  0.7818608E-02  0.1308194E+00
          2   -1    0    0  502    0  0.00000000000E+00  0.00000000000E+00  0.20604186323E+04  0.20604186323E+04  0.00000000000E+00 0. -1.
          1   -1    0    0  501    0 -0.00000000000E+00 -0.00000000000E+00 -0.39252040811E+03  0.39252040811E+03  0.00000000000E+00 0. -1.
         25    2    1    2    0    0 -0.26892897937E+02 -0.84713060051E+01 -0.26950848014E+02  0.13094835399E+03  0.12500452880E+03 0.  0.
          2    1    1    2  501    0  0.86030389798E+02  0.63968390330E+02 -0.30356110018E+03  0.32193559057E+03  0.00000000000E+00 0. -1.
          1    1    1    2  502    0 -0.59137491861E+02 -0.55497084325E+02  0.19984101724E+04  0.20000550959E+04  0.00000000000E+00 0. -1.
         22    1    3    3    0    0 -0.75547230628E+01  0.57426703735E+02 -0.22523231898E+01  0.57965274968E+02  0.00000000000E+00 0.  1.
         22    1    3    3    0    0 -0.19338174874E+02 -0.65898009740E+02 -0.24698524824E+02  0.72983079023E+02  0.00000000000E+00 0.  1.
</event>
<event>
 7    1  0.6152634E-006  0.6058758E+02  0.7818608E-02  0.1445071E+00
          2   -1    0    0  502    0  0.00000000000E+00  0.00000000000E+00  0.86246181505E+03  0.86246181505E+03  0.00000000000E+00 0. -1.
          1   -1    0    0  501    0 -0.00000000000E+00 -0.00000000000E+00 -0.77064903900E+03  0.77064903900E+03  0.00000000000E+00 0. -1.
         25    2    1    2    0    0  0.62874082668E+02 -0.73635332563E+02  0.15426772384E+03  0.22090547908E+03  0.12500155038E+03 0.  0.
          2    1    1    2  501    0 -0.49540722304E+02  0.34498682628E+02 -0.73545899706E+03  0.73793250276E+03  0.00000000000E+00 0. -1.
          1    1    1    2  502    0 -0.13333360364E+02  0.39136649935E+02  0.67300404927E+03  0.67427287221E+03  0.00000000000E+00 0. -1.
         22    1    3    3    0    0  0.84772242858E+02 -0.49227256553E+02  0.46954421809E+02  0.10869394498E+03  0.00000000000E+00 0. -1.
         22    1    3    3    0    0 -0.21898160190E+02 -0.24408076009E+02  0.10731330203E+03  0.11221153411E+03  0.00000000000E+00 0. -1.
</event>
<event>
 7    1  0.6152634E-006  0.1276517E+03  0.7818608E-02  0.1329131E+00
          2   -1    0    0  502    0  0.00000000000E+00  0.00000000000E+00  0.12877168689E+03  0.12877168689E+03  0.00000000000E+00 0. -1.
          1   -1    0    0  501    0 -0.00000000000E+00 -0.00000000000E+00 -0.61749207314E+03  0.61749207314E+03  0.00000000000E+00 0. -1.
         25    2    1    2    0    0 -0.36892223712E+02 -0.94168070967E+02 -0.28359805469E+03  0.32600893460E+03  0.12500122821E+03 0.  0.
          2    1    1    2  501    0  0.60383323965E+02  0.13842101958E+03 -0.28697521084E+03  0.32428582471E+03  0.00000000000E+00 0. -1.
          1    1    1    2  502    0 -0.23491100254E+02 -0.44252948609E+02  0.81852879285E+02  0.95969000718E+02  0.00000000000E+00 0. -1.
         22    1    3    3    0    0  0.18174148330E+02 -0.96424450435E+02 -0.13036086037E+03  0.16316227574E+03  0.00000000000E+00 0. -1.
         22    1    3    3    0    0 -0.55066372041E+02  0.22563794673E+01 -0.15323719432E+03  0.16284665886E+03  0.00000000000E+00 0. -1.
</event>
<event>
 7    1  0.6152634E-006  0.5906842E+02  0.7818608E-02  0.1528617E+00
          2   -1    0    0  502    0  0.00000000000E+00  0.00000000000E+00  0.34051524739E+03  0.34051524739E+03  0.00000000000E+00 0. -1.
          1   -1    0    0  501    0 -0.00000000000E+00 -0.00000000000E+00 -0.11215216428E+04  0.11215216428E+04  0.00000000000E+00 0. -1.
         25    2    1    2    0    0  0.58501257824E+02 -0.48412908279E+02 -0.52920474383E+03  0.54904395964E+03  0.12500160747E+03 0.  0.
          2    1    1    2  501    0 -0.23610473264E+02  0.83876383375E+00 -0.57952257244E+03  0.58000393959E+03  0.00000000000E+00 0. -1.
          1    1    1    2  502    0 -0.34890784560E+02  0.47574144445E+02  0.32772092091E+03  0.33298899091E+03  0.00000000000E+00 0. -1.
         22    1    3    3    0    0  0.29920055066E-01  0.76836259806E+01 -0.37294878878E+03  0.37302793200E+03  0.00000000000E+00 0.  1.
         22    1    3    3    0    0  0.58471337769E+02 -0.56096534259E+02 -0.15625595506E+03  0.17601602764E+03  0.00000000000E+00 0.  1.
</event>
<event>
 7    1  0.6152634E-006  0.1078979E+03  0.7818608E-02  0.1380780E+00
          2   -1    0    0  502    0  0.00000000000E+00  0.00000000000E+00  0.23387316303E+03  0.23387316303E+03  0.00000000000E+00 0. -1.
          1   -1    0    0  501    0 -0.00000000000E+00 -0.00000000000E+00 -0.41772303244E+03  0.41772303244E+03  0.00000000000E+00 0. -1.
         25    2    1    2    0    0  0.30215133096E+02 -0.93753599295E+02  0.12532481339E+03  0.20256706524E+03  0.12499766167E+03 0.  0.
          2    1    1    2  501    0 -0.67500170181E+02  0.85126939917E+02 -0.36529168793E+03  0.38110482304E+03  0.00000000000E+00 0. -1.
          1    1    1    2  502    0  0.37285037085E+02  0.86266593774E+01  0.56117005129E+02  0.67924307189E+02  0.00000000000E+00 0. -1.
         22    1    3    3    0    0  0.53198620330E+02 -0.78089689946E+02  0.23992735308E+02  0.97487149042E+02  0.00000000000E+00 0. -1.
         22    1    3    3    0    0 -0.22983487234E+02 -0.15663909349E+02  0.10133207808E+03  0.10507991620E+03  0.00000000000E+00 0. -1.
</event>
<event>
 7    1  0.6152634E-006  0.1097337E+03  0.7818608E-02  0.1373905E+00
          2   -1    0    0  502    0  0.00000000000E+00  0.00000000000E+00  0.76776144754E+02  0.76776144754E+02  0.00000000000E+00 0. -1.
          1   -1    0    0  501    0 -0.00000000000E+00 -0.00000000000E+00 -0.98451937429E+03  0.98451937429E+03  0.00000000000E+00 0. -1.
         25    2    1    2    0    0 -0.10280616979E+03 -0.31405495382E+02 -0.18753976489E+03  0.24970241238E+03  0.12499887058E+03 0.  0.
          2    1    1    2  501    0  0.87443590131E+02  0.68130435249E+02 -0.75232080960E+03  0.76044377716E+03  0.00000000000E+00 0. -1.
          1    1    1    2  502    0  0.15362579656E+02 -0.36724939867E+02  0.32117344955E+02  0.51149329506E+02  0.00000000000E+00 0. -1.
         22    1    3    3    0    0  0.18935383815E+02  0.22688463004E+02 -0.20133901795E+02  0.35758762775E+02  0.00000000000E+00 0. -1.
         22    1    3    3    0    0 -0.12174155360E+03 -0.54093958386E+02 -0.16740586310E+03  0.21394364960E+03  0.00000000000E+00 0. -1.
</event>
<event>
 7    1  0.6152634E-006  0.8055827E+02  0.7818608E-02  0.1347282E+00
          2   -1    0    0  502    0  0.00000000000E+00  0.00000000000E+00  0.23020790519E+04  0.23020790519E+04  0.00000000000E+00 0. -1.
          1   -1    0    0  501    0 -0.00000000000E+00 -0.00000000000E+00 -0.27373666209E+04  0.27373666209E+04  0.00000000000E+00 0. -1.
         25    2    1    2    0    0 -0.18624348503E+02 -0.45543564774E+02  0.33461462363E+01  0.13438178570E+03  0.12500473985E+03 0.  0.
          2    1    1    2  501    0 -0.45736245365E+02  0.66894021143E+02 -0.26707193719E+04  0.26719484609E+04  0.00000000000E+00 0. -1.
          1    1    1    2  502    0  0.64360593868E+02 -0.21350456369E+02  0.22320856567E+04  0.22331154262E+04  0.00000000000E+00 0. -1.
         22    1    3    3    0    0 -0.28320209320E+02  0.39228597945E+02  0.74752530135E+01  0.48957088969E+02  0.00000000000E+00 0. -1.
         22    1    3    3    0    0  0.96958608165E+01 -0.84772162719E+02 -0.41291067771E+01  0.85424696732E+02  0.00000000000E+00 0. -1.
</event>
<event>
 7    1  0.6152634E-006  0.2660298E+02  0.7818608E-02  0.1673115E+00
          2   -1    0    0  502    0  0.00000000000E+00  0.00000000000E+00  0.15098960398E+04  0.15098960398E+04  0.00000000000E+00 0. -1.
          1   -1    0    0  501    0 -0.00000000000E+00 -0.00000000000E+00 -0.48994586263E+02  0.48994586263E+02  0.00000000000E+00 0. -1.
         25    2    1    2    0    0 -0.43457518489E+02 -0.63032720021E+01  0.62045132763E+03  0.63443894627E+03  0.12499855775E+03 0.  0.
          2    1    1    2  501    0  0.25674580944E+02 -0.66013729874E+01 -0.37666593394E+02  0.46060118214E+02  0.00000000000E+00 0. -1.
          1    1    1    2  502    0  0.17782937546E+02  0.12904644989E+02  0.87811671935E+03  0.87839156162E+03  0.00000000000E+00 0. -1.
         22    1    3    3    0    0  0.37861730030E+01  0.27325569284E+02  0.28538271658E+02  0.39691999092E+02  0.00000000000E+00 0.  1.
         22    1    3    3    0    0 -0.47243691492E+02 -0.33628841286E+02  0.59191305597E+03  0.59474694718E+03  0.00000000000E+00 0.  1.
</event>
<event>
 7    1  0.6152634E-006  0.5187610E+02  0.7818608E-02  0.1457025E+00
          2   -1    0    0  502    0  0.00000000000E+00  0.00000000000E+00  0.11263336135E+04  0.11263336135E+04  0.00000000000E+00 0. -1.
          1   -1    0    0  501    0 -0.00000000000E+00 -0.00000000000E+00 -0.14012249831E+03  0.14012249831E+03  0.00000000000E+00 0. -1.
         25    2    1    2    0    0  0.22414729317E+02 -0.44673603566E+02  0.93639659365E+02  0.16398558803E+03  0.12499894531E+03 0.  0.
          2    1    1    2  501    0  0.28684273968E+02  0.33659090349E+02 -0.99572031283E+02  0.10895095846E+03  0.00000000000E+00 0. -1.
          1    1    1    2  502    0 -0.51099003284E+02  0.11014513217E+02  0.99214348710E+03  0.99351956529E+03  0.00000000000E+00 0. -1.
         22    1    3    3    0    0  0.14823913981E+02 -0.58700921072E+02  0.11929357588E+03  0.13377781508E+03  0.00000000000E+00 0. -1.
         22    1    3    3    0    0  0.75908153353E+01  0.14027317506E+02 -0.25653916518E+02  0.30207772950E+02  0.00000000000E+00 0. -1.
</event>
<event>
 7    1  0.6152634E-006  0.5797128E+02  0.7818608E-02  0.1503501E+00
          2   -1    0    0  502    0  0.00000000000E+00  0.00000000000E+00  0.20858953160E+04  0.20858953160E+04  0.00000000000E+00 0. -1.
          1   -1    0    0  501    0 -0.00000000000E+00 -0.00000000000E+00 -0.40783904327E+03  0.40783904327E+03  0.00000000000E+00 0. -1.
         25    2    1    2    0    0  0.84769708363E+02 -0.54740874647E+01  0.59201375539E+03  0.61100042194E+03  0.12500143981E+03 0.  0.
          2    1    1    2  501    0 -0.28434786631E+02  0.19346207271E+01 -0.39729844411E+03  0.39831938635E+03  0.00000000000E+00 0. -1.
          1    1    1    2  502    0 -0.56334921732E+02  0.35394667376E+01  0.14833409615E+04  0.14844145510E+04  0.00000000000E+00 0. -1.
         22    1    3    3    0    0  0.69644597856E+02  0.51772990305E+02  0.27048472558E+03  0.28406478013E+03  0.00000000000E+00 0. -1.
         22    1    3    3    0    0  0.15125110506E+02 -0.57247077769E+02  0.32152902981E+03  0.32693564182E+03  0.00000000000E+00 0. -1.
</event>
<event>
 7    1  0.6152634E-006  0.1202481E+03  0.7818608E-02  0.1357464E+00
          2   -1    0    0  502    0  0.00000000000E+00  0.00000000000E+00  0.19216890715E+04  0.19216890715E+04  0.00000000000E+00 0. -1.
          1   -1    0    0  501    0 -0.00000000000E+00 -0.00000000000E+00 -0.29805009776E+03  0.29805009776E+03  0.00000000000E+00 0. -1.
         25    2    1    2    0    0 -0.94214160315E+02 -0.24329781498E+02  0.11571191061E+03  0.19617724576E+03  0.12501207632E+03 0.  0.
          2    1    1    2  501    0  0.12263482611E+03 -0.61317095007E+01 -0.24293583151E+03  0.27220344720E+03  0.00000000000E+00 0. -1.
          1    1    1    2  502    0 -0.28420665799E+02  0.30461490999E+02  0.17508628946E+04  0.17513584763E+04  0.00000000000E+00 0. -1.
         22    1    3    3    0    0  0.28246477000E+02  0.59837111695E+00  0.43418703828E+02  0.51801596046E+02  0.00000000000E+00 0. -1.
         22    1    3    3    0    0 -0.12246063731E+03 -0.24928152615E+02  0.72293206781E+02  0.14437564972E+03  0.00000000000E+00 0. -1.
</event>
<event>
 7    1  0.6152634E-006  0.5994208E+02  0.7818608E-02  0.1456455E+00
          2   -1    0    0  502    0  0.00000000000E+00  0.00000000000E+00  0.38579283093E+04  0.38579283093E+04  0.00000000000E+00 0. -1.
          1   -1    0    0  501    0 -0.00000000000E+00 -0.00000000000E+00 -0.29286341396E+04  0.29286341396E+04  0.00000000000E+00 0. -1.
         25    2    1    2    0    0 -0.54416598068E+02  0.60125898339E+02 -0.62109779859E+03  0.63872028483E+03  0.12499934815E+03 0.  0.
          2    1    1    2  501    0  0.38358478356E+02 -0.23796278583E+01 -0.22983311030E+04  0.22986524084E+04  0.00000000000E+00 0. -1.
          1    1    1    2  502    0  0.16058119712E+02 -0.57746270481E+02  0.38487230713E+04  0.38491897556E+04  0.00000000000E+00 0. -1.
         22    1    3    3    0    0  0.10869253763E+02  0.61166702106E+02 -0.13939241772E+03  0.15260980388E+03  0.00000000000E+00 0. -1.
         22    1    3    3    0    0 -0.65285851831E+02 -0.10408037670E+01 -0.48170538088E+03  0.48611048095E+03  0.00000000000E+00 0. -1.
</event>
<event>
 7    1  0.6152634E-006  0.2329785E+03  0.7818608E-02  0.1237940E+00
          2   -1    0    0  502    0  0.00000000000E+00  0.00000000000E+00  0.29410646225E+04  0.29410646225E+04  0.00000000000E+00 0. -1.
          1   -1    0    0  501    0 -0.00000000000E+00 -0.00000000000E+00 -0.13558677032E+04  0.13558677032E+04  0.00000000000E+00 0. -1.
         25    2    1    2    0    0 -0.16543844342E+03  0.73584052095E+02  0.18710784972E+03  0.28882206295E+03  0.12499738133E+03 0.  0.
          2    1    1    2  501    0 -0.35899445939E+02  0.54341034752E+02 -0.12989304923E+04  0.13005622408E+04  0.00000000000E+00 0. -1.
          1    1    1    2  502    0  0.20133788936E+03 -0.12792508685E+03  0.26970195620E+04  0.27075480220E+04  0.00000000000E+00 0. -1.
         22    1    3    3    0    0 -0.12162229688E+03  0.65563059700E+02  0.19941923318E+03  0.24260776669E+03  0.00000000000E+00 0. -1.
         22    1    3    3    0    0 -0.43816146533E+02  0.80209923949E+01 -0.12311383465E+02  0.46214296260E+02  0.00000000000E+00 0. -1.
</event>
<event>
 7    1  0.6152634E-006  0.1491239E+03  0.7818608E-02  0.1413081E+00
          2   -1    0    0  502    0  0.00000000000E+00  0.00000000000E+00  0.21142329005E+04  0.21142329005E+04  0.00000000000E+00 0. -1.
          1   -1    0    0  501    0 -0.00000000000E+00 -0.00000000000E+00 -0.44060175054E+02  0.44060175054E+02  0.00000000000E+00 0. -1.
         25    2    1    2    0    0 -0.11642206803E+03  0.10640406094E+03  0.68051099010E+03  0.70964527348E+03  0.12500113765E+03 0.  0.
          2    1    1    2  501    0  0.95676843465E+02 -0.11172120939E+03  0.15457543920E+03  0.21337585010E+03  0.00000000000E+00 0. -1.
          1    1    1    2  502    0  0.20745224564E+02  0.53171484484E+01  0.12350862961E+04  0.12352719520E+04  0.00000000000E+00 0. -1.
         22    1    3    3    0    0 -0.95469641117E+02  0.10529396409E+03  0.67222531214E+03  0.68708670598E+03  0.00000000000E+00 0.  1.
         22    1    3    3    0    0 -0.20952426912E+02  0.11100968498E+01  0.82856779623E+01  0.22558567504E+02  0.00000000000E+00 0.  1.
</event>
<event>
 7    1  0.6152634E-006  0.1147121E+03  0.7818608E-02  0.1432071E+00
          2   -1    0    0  502    0  0.00000000000E+00  0.00000000000E+00  0.65176304747E+03  0.65176304747E+03  0.00000000000E+00 0. -1.
          1   -1    0    0  501    0 -0.00000000000E+00 -0.00000000000E+00 -0.19393707532E+04  0.19393707532E+04  0.00000000000E+00 0. -1.
         25    2    1    2    0    0 -0.14400363564E+02  0.13365436974E+03 -0.27460705347E+03  0.33031232093E+03  0.12500533799E+03 0.  0.
          2    1    1    2  501    0  0.22708989378E+02 -0.11106365628E+03 -0.16347152346E+04  0.16386411237E+04  0.00000000000E+00 0. -1.
          1    1    1    2  502    0 -0.83086258141E+01 -0.22590713457E+02  0.62171458234E+03  0.62218035608E+03  0.00000000000E+00 0. -1.
         22    1    3    3    0    0 -0.49841702099E+02  0.73666553356E+02 -0.23242778603E+03  0.24886468627E+03  0.00000000000E+00 0. -1.
         22    1    3    3    0    0  0.35441338535E+02  0.59987816381E+02 -0.42179267435E+02  0.81447634666E+02  0.00000000000E+00 0. -1.
</event>
<event>
 7    1  0.7339034E-006  0.7745878E+02  0.7818608E-02  0.1370870E+00
          2   -1    0    0  502    0  0.00000000000E+00  0.00000000000E+00  0.33102435526E+04  0.33102435526E+04  0.00000000000E+00 0. -1.
          1   -1    0    0  501    0 -0.00000000000E+00 -0.00000000000E+00 -0.10938659906E+04  0.10938659906E+04  0.00000000000E+00 0. -1.
         25    2    1    2    0    0  0.73848603860E+01  0.13437965235E+03 -0.13128292983E+03  0.22577196870E+03  0.12500138822E+03 0.  0.
          2    1    1    2  501    0  0.28954981968E+01 -0.57752928092E+02 -0.91396672757E+03  0.91579417105E+03  0.00000000000E+00 0. -1.
          1    1    1    2  502    0 -0.10280358583E+02 -0.76626724261E+02  0.32616272195E+04  0.32625434035E+04  0.00000000000E+00 0. -1.
         22    1    3    3    0    0  0.19749222765E+02  0.28474877682E+02  0.20513930259E+02  0.40269986262E+02  0.00000000000E+00 0. -1.
         22    1    3    3    0    0 -0.12364362379E+02  0.10590477467E+03 -0.15179686009E+03  0.18550198244E+03  0.00000000000E+00 0. -1.
</event>
<event>
 7    1  0.6152634E-006  0.5941091E+02  0.7818608E-02  0.1402552E+00
          2   -1    0    0  502    0  0.00000000000E+00  0.00000000000E+00  0.42449309239E+03  0.42449309239E+03  0.00000000000E+00 0. -1.
          1   -1    0    0  501    0 -0.00000000000E+00 -0.00000000000E+00 -0.17991926323E+04  0.17991926323E+04  0.00000000000E+00 0. -1.
         25    2    1    2    0    0 -0.14946291785E+02  0.20440219234E+02 -0.35355525683E+03  0.37585584552E+03  0.12500041110E+03 0.  0.
          2    1    1    2  501    0 -0.40874988471E+02 -0.41672662459E+02 -0.14317319366E+04  0.14329213914E+04  0.00000000000E+00 0. -1.
          1    1    1    2  502    0  0.55821280256E+02  0.21232443225E+02  0.41058765357E+03  0.41490848779E+03  0.00000000000E+00 0. -1.
         22    1    3    3    0    0 -0.36941099149E+02 -0.36655931102E+02 -0.79251734347E+02  0.94811072604E+02  0.00000000000E+00 0.  1.
         22    1    3    3    0    0  0.21994807364E+02  0.57096150336E+02 -0.27430352248E+03  0.28104477291E+03  0.00000000000E+00 0.  1.
</event>
<event>
 7    1  0.6152634E-006  0.7383708E+02  0.7818608E-02  0.1406567E+00
          2   -1    0    0  502    0  0.00000000000E+00  0.00000000000E+00  0.10136409580E+04  0.10136409580E+04  0.00000000000E+00 0. -1.
          1   -1    0    0  501    0 -0.00000000000E+00 -0.00000000000E+00 -0.36885661767E+03  0.36885661767E+03  0.00000000000E+00 0. -1.
         25    2    1    2    0    0  0.30869788622E+02 -0.23318128970E+02  0.14276371725E+03  0.19366501830E+03  0.12501192488E+03 0.  0.
          2    1    1    2  501    0 -0.74213462142E+02  0.94508096131E+01 -0.33870868424E+03  0.34687249610E+03  0.00000000000E+00 0. -1.
          1    1    1    2  502    0  0.43343673521E+02  0.13867319357E+02  0.84072930730E+03  0.84196006125E+03  0.00000000000E+00 0. -1.
         22    1    3    3    0    0 -0.22418110796E+02  0.33355826216E+02  0.93015121949E+02  0.10132618490E+03  0.00000000000E+00 0.  1.
         22    1    3    3    0    0  0.53287899418E+02 -0.56673955186E+02  0.49748595302E+02  0.92338833409E+02  0.00000000000E+00 0.  1.
</event>
<event>
 7    1  0.6152634E-006  0.2436795E+03  0.7818608E-02  0.1226104E+00
          2   -1    0    0  502    0  0.00000000000E+00  0.00000000000E+00  0.11158090205E+04  0.11158090205E+04  0.00000000000E+00 0. -1.
          1   -1    0    0  501    0 -0.00000000000E+00 -0.00000000000E+00 -0.79532170292E+03  0.79532170292E+03  0.00000000000E+00 0. -1.
         25    2    1    2    0    0  0.24634612976E+01  0.30683485545E+03  0.51654592650E+02  0.33533165657E+03  0.12500170317E+03 0.  0.
          2    1    1    2  501    0 -0.60948121743E+01 -0.23659547810E+03 -0.63063601205E+03  0.67358469897E+03  0.00000000000E+00 0. -1.
          1    1    1    2  502    0  0.36313508767E+01 -0.70239377350E+02  0.89946873692E+03  0.90221436784E+03  0.00000000000E+00 0. -1.
         22    1    3    3    0    0 -0.30787961363E+02  0.28372470462E+03  0.24212853797E+02  0.28641555276E+03  0.00000000000E+00 0. -1.
         22    1    3    3    0    0  0.33251422660E+02  0.23110150829E+02  0.27441738853E+02  0.48916103806E+02  0.00000000000E+00 0. -1.
</event>
<event>
 7    1  0.6152634E-006  0.7362908E+02  0.7818608E-02  0.1353908E+00
          2   -1    0    0  502    0  0.00000000000E+00  0.00000000000E+00  0.14847042204E+04  0.14847042204E+04  0.00000000000E+00 0. -1.
          1   -1    0    0  501    0 -0.00000000000E+00 -0.00000000000E+00 -0.37203056192E+03  0.37203056192E+03  0.00000000000E+00 0. -1.
         25    2    1    2    0    0 -0.59132655537E+02 -0.32028430231E+02 -0.31261551518E+03  0.34332859875E+03  0.12499430024E+03 0.  0.
          2    1    1    2  501    0  0.30482062693E+02  0.99854564334E+02  0.20138815363E+02  0.10632808683E+03  0.00000000000E+00 0. -1.
          1    1    1    2  502    0  0.28650592844E+02 -0.67826134104E+02  0.14051503583E+04  0.14070780968E+04  0.00000000000E+00 0. -1.
         22    1    3    3    0    0 -0.26779773151E+02 -0.73342379810E+02 -0.24849863595E+03  0.26047616589E+03  0.00000000000E+00 0.  1.
         22    1    3    3    0    0 -0.32352882386E+02  0.41313949579E+02 -0.64116879231E+02  0.82852432860E+02  0.00000000000E+00 0.  1.
</event>
<event>
 7    1  0.6152634E-006  0.6280261E+02  0.7818608E-02  0.1511658E+00
          2   -1    0    0  502    0  0.00000000000E+00  0.00000000000E+00  0.10357363732E+03  0.10357363732E+03  0.00000000000E+00 0. -1.
          1   -1    0    0  501    0 -0.00000000000E+00 -0.00000000000E+00 -0.56650671553E+03  0.56650671553E+03  0.00000000000E+00 0. -1.
         25    2    1    2    0    0  0.10560430971E+02  0.83478625546E+02  0.95205445690E+00  0.15068302002E+03  0.12499704992E+03 0.  0.
          2    1    1    2  501    0  0.23877503585E+01 -0.62223715695E+02 -0.48363359771E+03  0.48762582887E+03  0.00000000000E+00 0. -1.
          1    1    1    2  502    0 -0.12948181329E+02 -0.21254909851E+02  0.19748465046E+02  0.31771503965E+02  0.00000000000E+00 0. -1.
         22    1    3    3    0    0  0.29324074008E+02  0.29461907415E+02  0.57043455025E+02  0.70582299949E+02  0.00000000000E+00 0. -1.
         22    1    3    3    0    0 -0.18763643038E+02  0.54016718131E+02 -0.56091400568E+02  0.80100720068E+02  0.00000000000E+00 0. -1.
</event>
<event>
 7    1  0.6152634E-006  0.1387283E+03  0.7818608E-02  0.1376460E+00
          2   -1    0    0  502    0  0.00000000000E+00  0.00000000000E+00  0.52707516911E+03  0.52707516911E+03  0.00000000000E+00 0. -1.
          1   -1    0    0  501    0 -0.00000000000E+00 -0.00000000000E+00 -0.20395305430E+04  0.20395305430E+04  0.00000000000E+00 0. -1.
         25    2    1    2    0    0 -0.93340705291E+02 -0.72486839449E+02 -0.22868588146E+03  0.28616213838E+03  0.12499883160E+03 0.  0.
          2    1    1    2  501    0 -0.50123807281E+00 -0.30830546456E+02 -0.17721968887E+04  0.17724651156E+04  0.00000000000E+00 0. -1.
          1    1    1    2  502    0  0.93841943363E+02  0.10331738591E+03  0.48842739622E+03  0.50797845815E+03  0.00000000000E+00 0. -1.
         22    1    3    3    0    0 -0.48130763893E+02 -0.68298992131E+02 -0.22568975381E+03  0.24065990055E+03  0.00000000000E+00 0.  1.
         22    1    3    3    0    0 -0.45209941397E+02 -0.41878473180E+01 -0.29961276556E+01  0.45502237827E+02  0.00000000000E+00 0.  1.
</event>
<event>
 7    1  0.6152634E-006  0.1037594E+03  0.7818608E-02  0.1333190E+00
          2   -1    0    0  502    0  0.00000000000E+00  0.00000000000E+00  0.13738608911E+04  0.13738608911E+04  0.00000000000E+00 0. -1.
          1   -1    0    0  501    0 -0.00000000000E+00 -0.00000000000E+00 -0.87440507871E+03  0.87440507871E+03  0.00000000000E+00 0. -1.
         25    2    1    2    0    0 -0.34294904571E+02  0.11602897020E+03 -0.57056535085E+02  0.18307726690E+03  0.12499189995E+03 0.  0.
          2    1    1    2  501    0 -0.23248368333E+02 -0.10097475593E+03 -0.75010020534E+03  0.75722302264E+03  0.00000000000E+00 0. -1.
          1    1    1    2  502    0  0.57543272904E+02 -0.15054214268E+02  0.13066125528E+04  0.13079656803E+04  0.00000000000E+00 0. -1.
         22    1    3    3    0    0 -0.43874296925E+02  0.14075862317E+03 -0.48115977368E+02  0.15509059031E+03  0.00000000000E+00 0. -1.
         22    1    3    3    0    0  0.95793923543E+01 -0.24729652968E+02 -0.89405577170E+01  0.27986676582E+02  0.00000000000E+00 0. -1.
</event>
<event>
 7    1  0.6152634E-006  0.5813442E+02  0.7818608E-02  0.1414817E+00
          2   -1    0    0  502    0  0.00000000000E+00  0.00000000000E+00  0.73716287282E+03  0.73716287282E+03  0.00000000000E+00 0. -1.
          1   -1    0    0  501    0 -0.00000000000E+00 -0.00000000000E+00 -0.11930697958E+04  0.11930697958E+04  0.00000000000E+00 0. -1.
         25    2    1    2    0    0 -0.67323101108E+02 -0.23409728392E+02  0.17147418086E+02  0.14491123635E+03  0.12499926859E+03 0.  0.
          2    1    1    2  501    0  0.16296775500E+02  0.51691671764E+02 -0.11272386457E+04  0.11285409068E+04  0.00000000000E+00 0. -1.
          1    1    1    2  502    0  0.51026325608E+02 -0.28281943372E+02  0.65418430466E+03  0.65678052551E+03  0.00000000000E+00 0. -1.
         22    1    3    3    0    0 -0.95868163668E+02  0.13877621620E+02  0.13612234917E+02  0.97819150100E+02  0.00000000000E+00 0. -1.
         22    1    3    3    0    0  0.28545062559E+02 -0.37287350012E+02  0.35351831693E+01  0.47092086251E+02  0.00000000000E+00 0. -1.
</event>
<event>
 7    1  0.6152634E-006  0.8021051E+02  0.7818608E-02  0.1359937E+00
          2   -1    0    0  502    0  0.00000000000E+00  0.00000000000E+00  0.54703263402E+03  0.54703263402E+03  0.00000000000E+00 0. -1.
          1   -1    0    0  501    0 -0.00000000000E+00 -0.00000000000E+00 -0.11639504759E+03  0.11639504759E+03  0.00000000000E+00 0. -1.
         25    2    1    2    0    0 -0.50671514919E+02 -0.29735100732E+02  0.11719359322E+03  0.18112846276E+03  0.12498561153E+03 0.  0.
          2    1    1    2  501    0  0.29697225142E+02 -0.53476655310E+02 -0.67917005352E+02  0.91402393077E+02  0.00000000000E+00 0. -1.
          1    1    1    2  502    0  0.20974289777E+02  0.83211756042E+02  0.38136099856E+03  0.39089682577E+03  0.00000000000E+00 0. -1.
         22    1    3    3    0    0 -0.73685847377E+01 -0.75059368258E+02  0.63808248673E+02  0.98791180796E+02  0.00000000000E+00 0.  1.
         22    1    3    3    0    0 -0.43302930181E+02  0.45324267526E+02  0.53385344548E+02  0.82337281966E+02  0.00000000000E+00 0.  1.
</event>
<event>
 7    1  0.6152634E-006  0.3433122E+03  0.7818608E-02  0.1221565E+00
          2   -1    0    0  502    0  0.00000000000E+00  0.00000000000E+00  0.11533754378E+04  0.11533754378E+04  0.00000000000E+00 0. -1.
          1   -1    0    0  501    0 -0.00000000000E+00 -0.00000000000E+00 -0.25682397633E+03  0.25682397633E+03  0.00000000000E+00 0. -1.
         25    2    1    2    0    0  0.18642388120E+03 -0.23876931795E+03  0.48089134225E+03  0.58193299708E+03  0.12499951745E+03 0.  0.
          2    1    1    2  501    0 -0.22288330574E+03  0.27632518668E+03 -0.51021804343E+02  0.35865833504E+03  0.00000000000E+00 0. -1.
          1    1    1    2  502    0  0.36459424540E+02 -0.37555868727E+02  0.46668192358E+03  0.46960808204E+03  0.00000000000E+00 0. -1.
         22    1    3    3    0    0  0.48432646353E+02 -0.15371586563E+03  0.28750679594E+03  0.32959740031E+03  0.00000000000E+00 0. -1.
         22    1    3    3    0    0  0.13799123485E+03 -0.85053452323E+02  0.19338454631E+03  0.25233559677E+03  0.00000000000E+00 0. -1.
</event>
<event>
 7    1  0.6152634E-006  0.8789828E+02  0.7818608E-02  0.1332179E+00
          2   -1    0    0  502    0  0.00000000000E+00  0.00000000000E+00  0.30015424367E+04  0.30015424367E+04  0.00000000000E+00 0. -1.
          1   -1    0    0  501    0 -0.00000000000E+00 -0.00000000000E+00 -0.44427663255E+03  0.44427663255E+03  0.00000000000E+00 0. -1.
         25    2    1    2    0    0 -0.40023777421E+02  0.65820875460E+02  0.79868454679E+02  0.16714855637E+03  0.12500151774E+03 0.  0.
          2    1    1    2  501    0  0.68523114158E+02  0.17958345637E+02 -0.39681903823E+03  0.40309213395E+03  0.00000000000E+00 0. -1.
          1    1    1    2  502    0 -0.28499336737E+02 -0.83779221096E+02  0.28742163877E+04  0.28755783790E+04  0.00000000000E+00 0. -1.
         22    1    3    3    0    0 -0.22199051019E+01  0.26180669999E+02  0.10401769738E+03  0.10728483969E+03  0.00000000000E+00 0.  1.
         22    1    3    3    0    0 -0.37803872319E+02  0.39640205461E+02 -0.24149242699E+02  0.59863716676E+02  0.00000000000E+00 0.  1.
</event>
<event>
 7    1  0.6152634E-006  0.4328332E+02  0.7818608E-02  0.1543290E+00
          2   -1    0    0  502    0  0.00000000000E+00  0.00000000000E+00  0.12896123598E+04  0.12896123598E+04  0.00000000000E+00 0. -1.
          1   -1    0    0  501    0 -0.00000000000E+00 -0.00000000000E+00 -0.45649457920E+03  0.45649457920E+03  0.00000000000E+00 0. -1.
         25    2    1    2    0    0 -0.48395198640E+02 -0.53130531875E+02  0.54359133499E+03  0.56238887648E+03  0.12499904095E+03 0.  0.
          2    1    1    2  501    0  0.25415847304E+02  0.34969632529E+02 -0.44575857432E+03  0.44784991579E+03  0.00000000000E+00 0. -1.
          1    1    1    2  502    0  0.22979351336E+02  0.18160899346E+02  0.73528501989E+03  0.73586814670E+03  0.00000000000E+00 0. -1.
         22    1    3    3    0    0  0.12310355892E+02 -0.67581336665E+02  0.39954094222E+03  0.40540318997E+03  0.00000000000E+00 0.  1.
         22    1    3    3    0    0 -0.60705554533E+02  0.14450804790E+02  0.14405039277E+03  0.15698568650E+03  0.00000000000E+00 0.  1.
</event>
<event>
 7    1  0.6152634E-006  0.2548893E+03  0.7818608E-02  0.1206886E+00
          2   -1    0    0  502    0  0.00000000000E+00  0.00000000000E+00  0.13181169490E+04  0.13181169490E+04  0.00000000000E+00 0. -1.
          1   -1    0    0  501    0 -0.00000000000E+00 -0.00000000000E+00 -0.51365808297E+03  0.51365808297E+03  0.00000000000E+00 0. -1.
         25    2    1    2    0    0  0.16581931885E+03  0.28777642063E+03  0.46616139198E+03  0.58586920713E+03  0.12499987886E+03 0.  0.
          2    1    1    2  501    0 -0.12699774459E+03 -0.21512788478E+03 -0.41701389054E+03  0.48611626063E+03  0.00000000000E+00 0. -1.
          1    1    1    2  502    0 -0.38821574260E+02 -0.72648535850E+02  0.75531136464E+03  0.75978956425E+03  0.00000000000E+00 0. -1.
         22    1    3    3    0    0  0.16903344914E+03  0.26560562654E+03  0.46727389785E+03  0.56343903964E+03  0.00000000000E+00 0. -1.
         22    1    3    3    0    0 -0.32141302909E+01  0.22170794091E+02 -0.11125058750E+01  0.22430167487E+02  0.00000000000E+00 0. -1.
</event>
<event>
 7    1  0.6152634E-006  0.7185348E+02  0.7818608E-02  0.1374439E+00
          2   -1    0    0  502    0  0.00000000000E+00  0.00000000000E+00  0.38905670636E+04  0.38905670636E+04  0.00000000000E+00 0. -1.
          1   -1    0    0  501    0 -0.00000000000E+00 -0.00000000000E+00 -0.28907110029E+02  0.28907110029E+02  0.00000000000E+00 0. -1.
         25    2    1    2    0    0  0.56170366839E+02 -0.49369835537E+02  0.28861609376E+04  0.28898341998E+04  0.12499701445E+03 0.  0.
          2    1    1    2  501    0 -0.71653048751E+02 -0.91452645139E+01  0.23852715556E+02  0.76070673047E+02  0.00000000000E+00 0. -1.
          1    1    1    2  502    0  0.15482681912E+02  0.58515100051E+02  0.95164630035E+03  0.95356930076E+03  0.00000000000E+00 0. -1.
         22    1    3    3    0    0  0.69778397710E+01 -0.12366334153E+02  0.23661474888E+04  0.23661900928E+04  0.00000000000E+00 0.  1.
         22    1    3    3    0    0  0.49192527068E+02 -0.37003501384E+02  0.52001344884E+03  0.52364410701E+03  0.00000000000E+00 0.  1.
</event>
<event>
 7    1  0.6152634E-006  0.4041143E+02  0.7818608E-02  0.1532199E+00
          2   -1    0    0  502    0  0.00000000000E+00  0.00000000000E+00  0.27429961483E+03  0.27429961483E+03  0.00000000000E+00 0. -1.
          1   -1    0    0  501    0 -0.00000000000E+00 -0.00000000000E+00 -0.24224629546E+04  0.24224629546E+04  0.00000000000E+00 0. -1.
         25    2    1    2    0    0  0.16175141819E+02 -0.32963901715E+01 -0.21572588027E+03  0.24987056569E+03  0.12500057112E+03 0.  0.
          2    1    1    2  501    0  0.55431482260E+00 -0.33722177160E+02 -0.21879300727E+04  0.21881900045E+04  0.00000000000E+00 0. -1.
          1    1    1    2  502    0 -0.16729456642E+02  0.37018567332E+02  0.25549261320E+03  0.25870199930E+03  0.00000000000E+00 0. -1.
         22    1    3    3    0    0 -0.10736765708E+02  0.55767211139E+02 -0.68555092448E+02  0.89022809868E+02  0.00000000000E+00 0. -1.
         22    1    3    3    0    0  0.26911907527E+02 -0.59063601311E+02 -0.14717078782E+03  0.16084775582E+03  0.00000000000E+00 0. -1.
</event>
<event>
 7    1  0.6152634E-006  0.1572995E+03  0.7818608E-02  0.1250852E+00
          2   -1    0    0  502    0  0.00000000000E+00  0.00000000000E+00  0.36123726359E+03  0.36123726359E+03  0.00000000000E+00 0. -1.
          1   -1    0    0  501    0 -0.00000000000E+00 -0.00000000000E+00 -0.13621250889E+04  0.13621250889E+04  0.00000000000E+00 0. -1.
         25    2    1    2    0    0 -0.21064575792E+03 -0.41522996554E+02 -0.27980607106E+02  0.24999834737E+03  0.12498185765E+03 0.  0.
          2    1    1    2  501    0  0.62183035609E+02  0.57493328295E+02 -0.11992326877E+04  0.12022193028E+04  0.00000000000E+00 0. -1.
          1    1    1    2  502    0  0.14846272231E+03 -0.15970331740E+02  0.22632546955E+03  0.27114470229E+03  0.00000000000E+00 0. -1.
         22    1    3    3    0    0 -0.15339684135E+03 -0.29171556990E+01  0.34072902562E+02  0.15716253823E+03  0.00000000000E+00 0. -1.
         22    1    3    3    0    0 -0.57248916569E+02 -0.38605840855E+02 -0.62053509668E+02  0.92835809140E+02  0.00000000000E+00 0. -1.
</event>
<event>
 7    1  0.6152634E-006  0.1052200E+03  0.7818608E-02  0.1409974E+00
          2   -1    0    0  502    0  0.00000000000E+00  0.00000000000E+00  0.60268077992E+02  0.60268077992E+02  0.00000000000E+00 0. -1.
          1   -1    0    0  501    0 -0.00000000000E+00 -0.00000000000E+00 -0.58464521077E+03  0.58464521077E+03  0.00000000000E+00 0. -1.
         25    2    1    2    0    0  0.91828807232E+02 -0.51740584302E+02 -0.23777387494E+03  0.28856657441E+03  0.12499853743E+03 0.  0.
          2    1    1    2  501    0 -0.73508652378E+02  0.76865342576E+02 -0.30304921215E+03  0.32117071450E+03  0.00000000000E+00 0. -1.
          1    1    1    2  502    0 -0.18320154855E+02 -0.25124758274E+02  0.16445954319E+02  0.35175999854E+02  0.00000000000E+00 0. -1.
         22    1    3    3    0    0 -0.77978096481E+01  0.31616968366E+02 -0.61631937832E+02  0.69706056300E+02  0.00000000000E+00 0. -1.
         22    1    3    3    0    0  0.99626616881E+02 -0.83357552668E+02 -0.17614193711E+03  0.21886051811E+03  0.00000000000E+00 0. -1.
</event>
<event>
 7    1  0.6152634E-006  0.1622212E+03  0.7818608E-02  0.1357436E+00
          2   -1    0    0  502    0  0.00000000000E+00  0.00000000000E+00  0.88172447830E+03  0.88172447830E+03  0.00000000000E+00 0. -1.
          1   -1    0    0  501    0 -0.00000000000E+00 -0.00000000000E+00 -0.14710760893E+03  0.14710760893E+03  0.00000000000E+00 0. -1.
         25    2    1    2    0    0  0.39595016988E+02 -0.17677905986E+03  0.10306532043E+03  0.24302894772E+03  0.12498803054E+03 0.  0.
          2    1    1    2  501    0 -0.20341556420E+02  0.15262455919E+03  0.47880231758E+00  0.15397488184E+03  0.00000000000E+00 0. -1.
          1    1    1    2  502    0 -0.19253460568E+02  0.24154500675E+02  0.63107274663E+03  0.63182825767E+03  0.00000000000E+00 0. -1.
         22    1    3    3    0    0  0.22297533115E+02  0.12664142680E+02 -0.19842956617E+01  0.25719601904E+02  0.00000000000E+00 0. -1.
         22    1    3    3    0    0  0.17297483873E+02 -0.18944320254E+03  0.10504961609E+03  0.21730934582E+03  0.00000000000E+00 0. -1.
</event>
<event>
 7    1  0.6152634E-006  0.4754040E+02  0.7818608E-02  0.1495972E+00
          2   -1    0    0  502    0  0.00000000000E+00  0.00000000000E+00  0.91280612486E+02  0.91280612486E+02  0.00000000000E+00 0. -1.
          1   -1    0    0  501    0 -0.00000000000E+00 -0.00000000000E+00 -0.17056428119E+03  0.17056428119E+03  0.00000000000E+00 0. -1.
         25    2    1    2    0    0 -0.45012756944E+00 -0.81418879707E+01  0.29004453859E+01  0.12529454347E+03  0.12499526825E+03 0.  0.
          2    1    1    2  501    0  0.43008838468E+01 -0.47345455805E+02 -0.60282417938E+02  0.76772779679E+02  0.00000000000E+00 0. -1.
          1    1    1    2  502    0 -0.38507562773E+01  0.55487343775E+02 -0.21901696147E+02  0.59777570520E+02  0.00000000000E+00 0. -1.
         22    1    3    3    0    0  0.43291732603E+02  0.16775028276E+02  0.41174747325E+02  0.62055906267E+02  0.00000000000E+00 0. -1.
         22    1    3    3    0    0 -0.43741860173E+02 -0.24916916247E+02 -0.38274301939E+02  0.63238637204E+02  0.00000000000E+00 0. -1.
</event>
<event>
 7    1  0.6152634E-006  0.9201068E+02  0.7818608E-02  0.1335114E+00
          2   -1    0    0  502    0  0.00000000000E+00  0.00000000000E+00  0.26095666752E+03  0.26095666752E+03  0.00000000000E+00 0. -1.
          1   -1    0    0  501    0 -0.00000000000E+00 -0.00000000000E+00 -0.36749002193E+03  0.36749002193E+03  0.00000000000E+00 0. -1.
         25    2    1    2    0    0 -0.51434018677E+02 -0.63727279015E+01 -0.93353177500E+01  0.13564020978E+03  0.12500019366E+03 0.  0.
          2    1    1    2  501    0  0.84852657061E+02 -0.50490196570E+02 -0.28083349362E+03  0.29768554634E+03  0.00000000000E+00 0. -1.
          1    1    1    2  502    0 -0.33418638384E+02  0.56862924471E+02  0.18363545696E+03  0.19512093333E+03  0.00000000000E+00 0. -1.
         22    1    3    3    0    0 -0.82175334495E+02  0.30192763467E+02 -0.63054300931E+01  0.87773270498E+02  0.00000000000E+00 0.  1.
         22    1    3    3    0    0  0.30741315818E+02 -0.36565491369E+02 -0.30298876569E+01  0.47866939285E+02  0.00000000000E+00 0.  1.
</event>
<event>
 7    1  0.6152634E-006  0.1015024E+03  0.7818608E-02  0.1295036E+00
          2   -1    0    0  502    0  0.00000000000E+00  0.00000000000E+00  0.10953020429E+04  0.10953020429E+04  0.00000000000E+00 0. -1.
          1   -1    0    0  501    0 -0.00000000000E+00 -0.00000000000E+00 -0.68558833391E+03  0.68558833391E+03  0.00000000000E+00 0. -1.
         25    2    1    2    0    0  0.18043068520E+02  0.81880202163E+02  0.54042420816E+02  0.15992573073E+03  0.12500294506E+03 0.  0.
          2    1    1    2  501    0 -0.94314289287E+02 -0.42641573327E+02 -0.62653152363E+03  0.63502380982E+03  0.00000000000E+00 0. -1.
          1    1    1    2  502    0  0.76271220767E+02 -0.39238628835E+02  0.98220281176E+03  0.98594083623E+03  0.00000000000E+00 0. -1.
         22    1    3    3    0    0 -0.39757728691E+02  0.83717075274E+02  0.32384291919E+02  0.98173153389E+02  0.00000000000E+00 0.  1.
         22    1    3    3    0    0  0.57800797211E+02 -0.18368731114E+01  0.21658128897E+02  0.61752577342E+02  0.00000000000E+00 0.  1.
</event>
<event>
 7    1  0.6152634E-006  0.6908468E+02  0.7818608E-02  0.1375405E+00
          2   -1    0    0  502    0  0.00000000000E+00  0.00000000000E+00  0.15967180935E+04  0.15967180935E+04  0.00000000000E+00 0. -1.
          1   -1    0    0  501    0 -0.00000000000E+00 -0.00000000000E+00 -0.14986224758E+04  0.14986224758E+04  0.00000000000E+00 0. -1.
         25    2    1    2    0    0 -0.26112224622E+02 -0.12862701434E+03 -0.11508887639E+03  0.21470198194E+03  0.12499893794E+03 0.  0.
          2    1    1    2  501    0  0.12786664607E+02  0.61133726056E+02 -0.13322301775E+04  0.13336933970E+04  0.00000000000E+00 0. -1.
          1    1    1    2  502    0  0.13325560016E+02  0.67493288288E+02  0.15454146717E+04  0.15469451904E+04  0.00000000000E+00 0. -1.
         22    1    3    3    0    0 -0.66613033553E+02 -0.84959307073E+02 -0.32247815751E+02  0.11267342951E+03  0.00000000000E+00 0. -1.
         22    1    3    3    0    0  0.40500808931E+02 -0.43667707271E+02 -0.82841060639E+02  0.10202855243E+03  0.00000000000E+00 0. -1.
</event>
<event>
 7    1  0.6152634E-006  0.8233441E+02  0.7818608E-02  0.1355435E+00
          2   -1    0    0  502    0  0.00000000000E+00  0.00000000000E+00  0.23293148574E+03  0.23293148574E+03  0.00000000000E+00 0. -1.
          1   -1    0    0  501    0 -0.00000000000E+00 -0.00000000000E+00 -0.18721663522E+04  0.18721663522E+04  0.00000000000E+00 0. -1.
         25    2    1    2    0    0 -0.81902636869E+02 -0.38056593354E+01 -0.27056729537E+02  0.15192169221E+03  0.12500243591E+03 0.  0.
          2    1    1    2  501    0  0.17776920817E+02  0.59289751602E+02 -0.17715596577E+04  0.17726406614E+04  0.00000000000E+00 0. -1.
          1    1    1    2  502    0  0.64125716052E+02 -0.55484092266E+02  0.15938152076E+03  0.18053548436E+03  0.00000000000E+00 0. -1.
         22    1    3    3    0    0 -0.71885767584E+02  0.35691647810E+02  0.26595153515E+02  0.84550337048E+02  0.00000000000E+00 0.  1.
         22    1    3    3    0    0 -0.10016869285E+02 -0.39497307145E+02 -0.53651883052E+02  0.67371355166E+02  0.00000000000E+00 0.  1.
</event>
<event>
 7    1  0.6152634E-006  0.7959796E+02  0.7818608E-02  0.1446334E+00
          2   -1    0    0  502    0  0.00000000000E+00  0.00000000000E+00  0.41417785756E+03  0.41417785756E+03  0.00000000000E+00 0. -1.
          1   -1    0    0  501    0 -0.00000000000E+00 -0.00000000000E+00 -0.25357169695E+03  0.25357169695E+03  0.00000000000E+00 0. -1.
         25    2    1    2    0    0  0.12253918875E+02 -0.53081988847E+02  0.20004160655E+03  0.24209306353E+03  0.12499820395E+03 0.  0.
          2    1    1    2  501    0 -0.37730375828E+02  0.71054078650E+02 -0.22424291326E+03  0.23823758625E+03  0.00000000000E+00 0. -1.
          1    1    1    2  502    0  0.25476456953E+02 -0.17972089803E+02  0.18480746733E+03  0.18741890473E+03  0.00000000000E+00 0. -1.
         22    1    3    3    0    0  0.44627015252E+02 -0.94236731153E+01  0.13164977468E+02  0.47473073810E+02  0.00000000000E+00 0. -1.
         22    1    3    3    0    0 -0.32373096377E+02 -0.43658315731E+02  0.18687662908E+03  0.19461998972E+03  0.00000000000E+00 0. -1.
</event>
<event>
 7    1  0.6152634E-006  0.7059031E+02  0.7818608E-02  0.1390064E+00
          2   -1    0    0  502    0  0.00000000000E+00  0.00000000000E+00  0.44055762209E+03  0.44055762209E+03  0.00000000000E+00 0. -1.
          1   -1    0    0  501    0 -0.00000000000E+00 -0.00000000000E+00 -0.13923624779E+04  0.13923624779E+04  0.00000000000E+00 0. -1.
         25    2    1    2    0    0 -0.14394581439E+02 -0.11842879521E+02  0.26967244375E+03  0.29781839813E+03  0.12500045430E+03 0.  0.
          2    1    1    2  501    0  0.68202181360E+02  0.18861881652E+02 -0.13726563413E+04  0.13744790793E+04  0.00000000000E+00 0. -1.
          1    1    1    2  502    0 -0.53807599922E+02 -0.70190021313E+01  0.15117904177E+03  0.16062262254E+03  0.00000000000E+00 0. -1.
         22    1    3    3    0    0  0.12192729659E+02  0.19200831911E+02  0.25243782559E+03  0.25346043160E+03  0.00000000000E+00 0. -1.
         22    1    3    3    0    0 -0.26587311097E+02 -0.31043711431E+02  0.17234618161E+02  0.44357966522E+02  0.00000000000E+00 0. -1.
</event>
<event>
 7    1  0.6152634E-006  0.1315801E+03  0.7818608E-02  0.1253900E+00
          2   -1    0    0  502    0  0.00000000000E+00  0.00000000000E+00  0.20767408405E+04  0.20767408405E+04  0.00000000000E+00 0. -1.
          1   -1    0    0  501    0 -0.00000000000E+00 -0.00000000000E+00 -0.20828374756E+04  0.20828374756E+04  0.00000000000E+00 0. -1.
         25    2    1    2    0    0 -0.10267122946E+03 -0.17584925117E+03  0.13389287807E+04  0.13600815024E+04  0.12500829096E+03 0.  0.
          2    1    1    2  501    0  0.46980013145E+02  0.86253855214E+02 -0.20672632722E+04  0.20695951985E+04  0.00000000000E+00 0. -1.
          1    1    1    2  502    0  0.55691216310E+02  0.89595395953E+02  0.72223785641E+03  0.72990161514E+03  0.00000000000E+00 0. -1.
         22    1    3    3    0    0 -0.40402550271E+01  0.18920981636E+02  0.76161541429E+02  0.78580580295E+02  0.00000000000E+00 0.  1.
         22    1    3    3    0    0 -0.98630974428E+02 -0.19477023280E+03  0.12627672393E+04  0.12815009221E+04  0.00000000000E+00 0.  1.
</event>
<event>
 7    1  0.6152634E-006  0.1148455E+03  0.7818608E-02  0.1340292E+00
          2   -1    0    0  502    0  0.00000000000E+00  0.00000000000E+00  0.30387376183E+03  0.30387376183E+03  0.00000000000E+00 0. -1.
          1   -1    0    0  501    0 -0.00000000000E+00 -0.00000000000E+00 -0.17640086556E+04  0.17640086556E+04  0.00000000000E+00 0. -1.
         25    2    1    2    0    0  0.10527888564E+03  0.10371247287E+03 -0.22142083376E+03  0.29409633632E+03  0.12500219448E+03 0.  0.
          2    1    1    2  501    0 -0.50718012287E+01 -0.50261069711E+02 -0.14937507683E+04  0.14946047157E+04  0.00000000000E+00 0. -1.
          1    1    1    2  502    0 -0.10020708441E+03 -0.53451403159E+02  0.25503670826E+03  0.27918136547E+03  0.00000000000E+00 0. -1.
         22    1    3    3    0    0  0.90333844161E+02  0.11753057730E+03 -0.22864976923E+03  0.27249652653E+03  0.00000000000E+00 0.  1.
         22    1    3    3    0    0  0.14945041475E+02 -0.13818104433E+02  0.72289354716E+01  0.21599809788E+02  0.00000000000E+00 0.  1.
</event>
<event>
 7    1  0.6152634E-006  0.3796654E+02  0.7818608E-02  0.1577202E+00
          2   -1    0    0  502    0  0.00000000000E+00  0.00000000000E+00  0.98275995917E+03  0.98275995917E+03  0.00000000000E+00 0. -1.
          1   -1    0    0  501    0 -0.00000000000E+00 -0.00000000000E+00 -0.41174122736E+03  0.41174122736E+03  0.00000000000E+00 0. -1.
         25    2    1    2    0    0  0.55856676972E+02 -0.28347474900E+02 -0.21285417821E+03  0.25466790059E+03  0.12500116284E+03 0.  0.
          2    1    1    2  501    0 -0.30976976355E+02  0.18030969020E+02 -0.17598482658E+03  0.17959773967E+03  0.00000000000E+00 0. -1.
          1    1    1    2  502    0 -0.24879700617E+02  0.10316505880E+02  0.95985773661E+03  0.96023554627E+03  0.00000000000E+00 0. -1.
         22    1    3    3    0    0 -0.37037863277E+02 -0.26856787069E+02 -0.86241935113E+02  0.97625620100E+02  0.00000000000E+00 0. -1.
         22    1    3    3    0    0  0.92894540249E+02 -0.14906878310E+01 -0.12661224310E+03  0.15704228049E+03  0.00000000000E+00 0. -1.
</event>
<event>
 7    1  0.6152634E-006  0.4134844E+02  0.7818608E-02  0.1525432E+00
          2   -1    0    0  502    0  0.00000000000E+00  0.00000000000E+00  0.11618521775E+03  0.11618521775E+03  0.00000000000E+00 0. -1.
          1   -1    0    0  501    0 -0.00000000000E+00 -0.00000000000E+00 -0.67130340404E+03  0.67130340404E+03  0.00000000000E+00 0. -1.
         25    2    1    2    0    0  0.47345582954E+02  0.19836124766E+02 -0.33287392637E+03  0.35925785963E+03  0.12500433104E+03 0.  0.
          2    1    1    2  501    0 -0.39224570686E+02  0.13663152234E+02 -0.32097732423E+03  0.32365365956E+03  0.00000000000E+00 0. -1.
          1    1    1    2  502    0 -0.81210122687E+01 -0.33499277000E+02  0.98733064318E+02  0.10457710261E+03  0.00000000000E+00 0. -1.
         22    1    3    3    0    0  0.57723440113E+02 -0.35349643692E+01 -0.32820788523E+03  0.33326402062E+03  0.00000000000E+00 0.  1.
         22    1    3    3    0    0 -0.10377857158E+02  0.23371089135E+02 -0.46660411381E+01  0.25993839009E+02  0.00000000000E+00 0.  1.
</event>
<event>
 7    1  0.6152634E-006  0.1048901E+03  0.7818608E-02  0.1429916E+00
          2   -1    0    0  502    0  0.00000000000E+00  0.00000000000E+00  0.60536005810E+03  0.60536005810E+03  0.00000000000E+00 0. -1.
          1   -1    0    0  501    0 -0.00000000000E+00 -0.00000000000E+00 -0.15759097261E+04  0.15759097261E+04  0.00000000000E+00 0. -1.
         25    2    1    2    0    0  0.69104155501E+02 -0.48714367600E+02  0.45260397593E+03  0.47709971099E+03  0.12500120511E+03 0.  0.
          2    1    1    2  501    0 -0.73302238613E+02  0.75140114519E+02 -0.15606085973E+04  0.15641350482E+04  0.00000000000E+00 0. -1.
          1    1    1    2  502    0  0.41980831120E+01 -0.26425746919E+02  0.13745495342E+03  0.14003502498E+03  0.00000000000E+00 0. -1.
         22    1    3    3    0    0  0.76915562815E+02 -0.60042623054E+02  0.45294408178E+03  0.46333515041E+03  0.00000000000E+00 0. -1.
         22    1    3    3    0    0 -0.78114073143E+01  0.11328255454E+02 -0.34010585240E+00  0.13764560576E+02  0.00000000000E+00 0. -1.
</event>
<event>
 7    1  0.6152634E-006  0.9585113E+02  0.7818608E-02  0.1319986E+00
          2   -1    0    0  502    0  0.00000000000E+00  0.00000000000E+00  0.87599513339E+03  0.87599513339E+03  0.00000000000E+00 0. -1.
          1   -1    0    0  501    0 -0.00000000000E+00 -0.00000000000E+00 -0.31571581219E+03  0.31571581219E+03  0.00000000000E+00 0. -1.
         25    2    1    2    0    0 -0.16665021191E+02 -0.34586760438E+02  0.54129495833E+03  0.55686674520E+03  0.12500549216E+03 0.  0.
          2    1    1    2  501    0 -0.28402690684E+02 -0.91546302082E+02 -0.28605839724E+03  0.30168998143E+03  0.00000000000E+00 0. -1.
          1    1    1    2  502    0  0.45067711875E+02  0.12613306252E+03  0.30504276010E+03  0.33315421895E+03  0.00000000000E+00 0. -1.
         22    1    3    3    0    0 -0.51492784289E+02 -0.21928508226E+02  0.10485823582E+03  0.11885964802E+03  0.00000000000E+00 0.  1.
         22    1    3    3    0    0  0.34827763099E+02 -0.12658252212E+02  0.43643672251E+03  0.43800709719E+03  0.00000000000E+00 0.  1.
</event>
<event>
 7    1  0.6152634E-006  0.1109448E+03  0.7818608E-02  0.1276989E+00
          2   -1    0    0  502    0  0.00000000000E+00  0.00000000000E+00  0.37575539617E+03  0.37575539617E+03  0.00000000000E+00 0. -1.
          1   -1    0    0  501    0 -0.00000000000E+00 -0.00000000000E+00 -0.35204281577E+03  0.35204281577E+03  0.00000000000E+00 0. -1.
         25    2    1    2    0    0  0.13431512091E+02 -0.18359533991E+02 -0.33540034556E+02  0.13140552999E+03  0.12500000555E+03 0.  0.
          2    1    1    2  501    0 -0.10927136636E+03 -0.37528555697E+02 -0.24692270707E+03  0.27261593362E+03  0.00000000000E+00 0. -1.
          1    1    1    2  502    0  0.95839854266E+02  0.55888089687E+02  0.30417532203E+03  0.32377674834E+03  0.00000000000E+00 0. -1.
         22    1    3    3    0    0  0.26459450529E+02  0.33240166513E+02  0.27356660902E+02  0.50531159573E+02  0.00000000000E+00 0.  1.
         22    1    3    3    0    0 -0.13027938439E+02 -0.51599700504E+02 -0.60896695458E+02  0.80874370413E+02  0.00000000000E+00 0.  1.
</event>
<event>
 7    1  0.6152634E-006  0.3283035E+02  0.7818608E-02  0.1609092E+00
          2   -1    0    0  502    0  0.00000000000E+00  0.00000000000E+00  0.59995505322E+03  0.59995505322E+03  0.00000000000E+00 0. -1.
          1   -1    0    0  501    0 -0.00000000000E+00 -0.00000000000E+00 -0.47268390930E+03  0.47268390930E+03  0.00000000000E+00 0. -1.
         25    2    1    2    0    0  0.51283220739E+02 -0.27734776959E+02 -0.33806349921E+03  0.36511860539E+03  0.12500191966E+03 0.  0.
          2    1    1    2  501    0 -0.21475565815E+02  0.14054098880E+02 -0.11926809862E+03  0.12199834823E+03  0.00000000000E+00 0. -1.
          1    1    1    2  502    0 -0.29807654924E+02  0.13680678078E+02  0.58460274175E+03  0.58552200890E+03  0.00000000000E+00 0. -1.
         22    1    3    3    0    0  0.77565529160E+02 -0.42046966032E+02 -0.14487885943E+03  0.16962972198E+03  0.00000000000E+00 0.  1.
         22    1    3    3    0    0 -0.26282308421E+02  0.14312189073E+02 -0.19318463978E+03  0.19548888342E+03  0.00000000000E+00 0.  1.
</event>
<event>
 7    1  0.6152634E-006  0.5316042E+02  0.7818608E-02  0.1438925E+00
          2   -1    0    0  502    0  0.00000000000E+00  0.00000000000E+00  0.64387627547E+03  0.64387627547E+03  0.00000000000E+00 0. -1.
          1   -1    0    0  501    0 -0.00000000000E+00 -0.00000000000E+00 -0.87807747236E+03  0.87807747236E+03  0.00000000000E+00 0. -1.
         25    2    1    2    0    0  0.57356052189E+02 -0.81447532864E+02  0.12708414109E+02  0.16034322896E+03  0.12500011981E+03 0.  0.
          2    1    1    2  501    0 -0.36231627476E+02  0.33477212198E+02 -0.80226845328E+03  0.80378363114E+03  0.00000000000E+00 0. -1.
          1    1    1    2  502    0 -0.21124424713E+02  0.47970320665E+02  0.55535884227E+03  0.55782688773E+03  0.00000000000E+00 0. -1.
         22    1    3    3    0    0  0.94302235157E+02 -0.50338592264E+02  0.26463972674E+02  0.11012369080E+03  0.00000000000E+00 0.  1.
         22    1    3    3    0    0 -0.36946182967E+02 -0.31108940600E+02 -0.13755558565E+02  0.50219538155E+02  0.00000000000E+00 0.  1.
</event>
<event>
 7    1  0.6152634E-006  0.3211665E+02  0.7818608E-02  0.1585156E+00
          2   -1    0    0  502    0  0.00000000000E+00  0.00000000000E+00  0.37420071814E+03  0.37420071814E+03  0.00000000000E+00 0. -1.
          1   -1    0    0  501    0 -0.00000000000E+00 -0.00000000000E+00 -0.26570462647E+04  0.26570462647E+04  0.00000000000E+00 0. -1.
         25    2    1    2    0    0  0.78299131928E+01 -0.12303234687E+02 -0.15328966208E+04  0.15380547783E+04  0.12501109420E+03 0.  0.
          2    1    1    2  501    0 -0.31296040478E+02 -0.96243702654E+01 -0.11206371000E+04  0.11211153288E+04  0.00000000000E+00 0. -1.
          1    1    1    2  502    0  0.23466127285E+02  0.21927604952E+02  0.37068817422E+03  0.37207687579E+03  0.00000000000E+00 0. -1.
         22    1    3    3    0    0 -0.21432218705E+02  0.50951010191E+02 -0.58862345721E+03  0.59121309172E+03  0.00000000000E+00 0.  1.
         22    1    3    3    0    0  0.29262131898E+02 -0.63254244877E+02 -0.94427316364E+03  0.94684168657E+03  0.00000000000E+00 0.  1.
</event>
<event>
 7    1  0.6152634E-006  0.8762196E+02  0.7818608E-02  0.1314382E+00
          2   -1    0    0  502    0  0.00000000000E+00  0.00000000000E+00  0.12347004498E+04  0.12347004498E+04  0.00000000000E+00 0. -1.
          1   -1    0    0  501    0 -0.00000000000E+00 -0.00000000000E+00 -0.13178348953E+04  0.13178348953E+04  0.00000000000E+00 0. -1.
         25    2    1    2    0    0 -0.13894371166E+03 -0.90381153661E+02  0.16705875451E+03  0.26647567586E+03  0.12500620151E+03 0.  0.
          2    1    1    2  501    0  0.76477650937E+02  0.32865175486E+02 -0.12649853889E+04  0.12677211779E+04  0.00000000000E+00 0. -1.
          1    1    1    2  502    0  0.62466060728E+02  0.57515978175E+02  0.10147921888E+04  0.10183384913E+04  0.00000000000E+00 0. -1.
         22    1    3    3    0    0 -0.79023906488E+02 -0.42475823535E+02  0.82333132564E+01  0.90093067595E+02  0.00000000000E+00 0. -1.
         22    1    3    3    0    0 -0.59919805177E+02 -0.47905330126E+02  0.15882544126E+03  0.17638260826E+03  0.00000000000E+00 0. -1.
</event>
<event>
 7    1  0.6152634E-006  0.1408981E+03  0.7818608E-02  0.1321585E+00
          2   -1    0    0  502    0  0.00000000000E+00  0.00000000000E+00  0.77696575884E+03  0.77696575884E+03  0.00000000000E+00 0. -1.
          1   -1    0    0  501    0 -0.00000000000E+00 -0.00000000000E+00 -0.12195579376E+04  0.12195579376E+04  0.00000000000E+00 0. -1.
         25    2    1    2    0    0 -0.11387736017E+03 -0.10247362810E+03  0.14384470387E+03  0.24451070136E+03  0.12500114652E+03 0.  0.
          2    1    1    2  501    0  0.44602246719E+02 -0.19124773193E+02 -0.11603088930E+04  0.11613233161E+04  0.00000000000E+00 0. -1.
          1    1    1    2  502    0  0.69275113450E+02  0.12159840130E+03  0.57387201038E+03  0.59068967896E+03  0.00000000000E+00 0. -1.
         22    1    3    3    0    0 -0.10997042362E+03 -0.12863019756E+03  0.11119365201E+03  0.20249259256E+03  0.00000000000E+00 0. -1.
         22    1    3    3    0    0 -0.39069365498E+01  0.26156569458E+02  0.32651051866E+02  0.42018108798E+02  0.00000000000E+00 0. -1.
</event>
<event>
 7    1  0.6152634E-006  0.1407603E+03  0.7818608E-02  0.1279002E+00
          2   -1    0    0  502    0  0.00000000000E+00  0.00000000000E+00  0.15632308038E+04  0.15632308038E+04  0.00000000000E+00 0. -1.
          1   -1    0    0  501    0 -0.00000000000E+00 -0.00000000000E+00 -0.22479224541E+03  0.22479224541E+03  0.00000000000E+00 0. -1.
         25    2    1    2    0    0  0.13568961606E+03  0.81960082412E+00 -0.55282653904E+02  0.19259775417E+03  0.12500151773E+03 0.  0.
          2    1    1    2  501    0 -0.13679656198E+02  0.70610323967E+02 -0.84211660974E+02  0.11074544997E+03  0.00000000000E+00 0. -1.
          1    1    1    2  502    0 -0.12200995987E+03 -0.71429924791E+02  0.14779328732E+04  0.14846798450E+04  0.00000000000E+00 0. -1.
         22    1    3    3    0    0  0.40095897433E+02 -0.46520073674E+02 -0.59947442701E+02  0.85822457037E+02  0.00000000000E+00 0. -1.
         22    1    3    3    0    0  0.95593718631E+02  0.47339674498E+02  0.46647887966E+01  0.10677529713E+03  0.00000000000E+00 0. -1.
</event>
<event>
 7    1  0.6152634E-006  0.1215141E+03  0.7818608E-02  0.1275949E+00
          2   -1    0    0  502    0  0.00000000000E+00  0.00000000000E+00  0.33866281911E+04  0.33866281911E+04  0.00000000000E+00 0. -1.
          1   -1    0    0  501    0 -0.00000000000E+00 -0.00000000000E+00 -0.21274876454E+04  0.21274876454E+04  0.00000000000E+00 0. -1.
         25    2    1    2    0    0 -0.64323914006E+02 -0.19446141283E+03  0.56346242427E+03  0.61242712006E+03  0.12499706729E+03 0.  0.
          2    1    1    2  501    0  0.23632691513E+02  0.11894594194E+03 -0.21005987452E+04  0.21040964164E+04  0.00000000000E+00 0. -1.
          1    1    1    2  502    0  0.40691222493E+02  0.75515470889E+02  0.27962768667E+04  0.27975923000E+04  0.00000000000E+00 0. -1.
         22    1    3    3    0    0 -0.84076363077E+02 -0.18440429582E+03  0.55079423681E+03  0.58689698453E+03  0.00000000000E+00 0. -1.
         22    1    3    3    0    0  0.19752449072E+02 -0.10057117005E+02  0.12668187459E+02  0.25530135532E+02  0.00000000000E+00 0. -1.
</event>
<event>
 7    1  0.6152634E-006  0.5057818E+02  0.7818608E-02  0.1516698E+00
          2   -1    0    0  502    0  0.00000000000E+00  0.00000000000E+00  0.55834724313E+02  0.55834724313E+02  0.00000000000E+00 0. -1.
          1   -1    0    0  501    0 -0.00000000000E+00 -0.00000000000E+00 -0.73086721348E+03  0.73086721348E+03  0.00000000000E+00 0. -1.
         25    2    1    2    0    0  0.25281724074E+02 -0.72820336148E+02 -0.10811093313E+03  0.18235747783E+03  0.12499723568E+03 0.  0.
          2    1    1    2  501    0 -0.25299340130E+02  0.42948781627E+02 -0.57189372112E+03  0.57406191539E+03  0.00000000000E+00 0. -1.
          1    1    1    2  502    0  0.17616056338E-01  0.29871554521E+02  0.49721650837E+01  0.30282544567E+02  0.00000000000E+00 0. -1.
         22    1    3    3    0    0 -0.46098850859E+02 -0.29258678309E+01 -0.43015351821E+02  0.63118818472E+02  0.00000000000E+00 0. -1.
         22    1    3    3    0    0  0.71380574933E+02 -0.69894468317E+02 -0.65095581310E+02  0.11923865936E+03  0.00000000000E+00 0. -1.
</event>
<event>
 7    1  0.6152634E-006  0.1403156E+03  0.7818608E-02  0.1294770E+00
          2   -1    0    0  502    0  0.00000000000E+00  0.00000000000E+00  0.19375238774E+03  0.19375238774E+03  0.00000000000E+00 0. -1.
          1   -1    0    0  501    0 -0.00000000000E+00 -0.00000000000E+00 -0.79503380644E+03  0.79503380644E+03  0.00000000000E+00 0. -1.
         25    2    1    2    0    0  0.23305566975E+02  0.12417895502E+03 -0.33986558308E+03  0.38352648698E+03  0.12498155596E+03 0.  0.
          2    1    1    2  501    0  0.33404539695E+02 -0.14973024096E+03 -0.41344976388E+03  0.44099400856E+03  0.00000000000E+00 0. -1.
          1    1    1    2  502    0 -0.56710106670E+02  0.25551285944E+02  0.15203392826E+03  0.16426569865E+03  0.00000000000E+00 0. -1.
         22    1    3    3    0    0 -0.15031125021E+02  0.13658866335E+03 -0.26106077079E+03  0.29501715835E+03  0.00000000000E+00 0.  1.
         22    1    3    3    0    0  0.38336691996E+02 -0.12409708334E+02 -0.78804812285E+02  0.88509328624E+02  0.00000000000E+00 0.  1.
</event>
<event>
 7    1  0.6152634E-006  0.1363142E+03  0.7818608E-02  0.1341229E+00
          2   -1    0    0  502    0  0.00000000000E+00  0.00000000000E+00  0.11310012699E+04  0.11310012699E+04  0.00000000000E+00 0. -1.
          1   -1    0    0  501    0 -0.00000000000E+00 -0.00000000000E+00 -0.23651838977E+03  0.23651838977E+03  0.00000000000E+00 0. -1.
         25    2    1    2    0    0 -0.79615261567E+02 -0.15144268741E+03  0.44433358984E+02  0.21650145180E+03  0.12500031119E+03 0.  0.
          2    1    1    2  501    0  0.34174499864E+02  0.24785553988E+02 -0.14289331666E+03  0.14899906064E+03  0.00000000000E+00 0. -1.
          1    1    1    2  502    0  0.45440761703E+02  0.12665713343E+03  0.99294283781E+03  0.10020191472E+04  0.00000000000E+00 0. -1.
         22    1    3    3    0    0  0.25194518360E+02 -0.15151542843E+02  0.32991038934E+02  0.44189836568E+02  0.00000000000E+00 0.  1.
         22    1    3    3    0    0 -0.10480977993E+03 -0.13629114457E+03  0.11442320051E+02  0.17231161523E+03  0.00000000000E+00 0.  1.
</event>
<event>
 7    1  0.6152634E-006  0.9939170E+02  0.7818608E-02  0.1424436E+00
          2   -1    0    0  502    0  0.00000000000E+00  0.00000000000E+00  0.70963609344E+03  0.70963609344E+03  0.00000000000E+00 0. -1.
          1   -1    0    0  501    0 -0.00000000000E+00 -0.00000000000E+00 -0.46813921677E+03  0.46813921677E+03  0.00000000000E+00 0. -1.
         25    2    1    2    0    0  0.62971971379E+02  0.10980345037E+03  0.72937351796E+02  0.19226883953E+03  0.12500072990E+03 0.  0.
          2    1    1    2  501    0 -0.18092795859E+02 -0.23224225944E+02 -0.40381351417E+03  0.40488525308E+03  0.00000000000E+00 0. -1.
          1    1    1    2  502    0 -0.44879175520E+02 -0.86579224429E+02  0.57237303905E+03  0.58062121760E+03  0.00000000000E+00 0. -1.
         22    1    3    3    0    0  0.80441567487E+02  0.82803847415E+02  0.98052747730E+02  0.15146505955E+03  0.00000000000E+00 0. -1.
         22    1    3    3    0    0 -0.17469596108E+02  0.26999602958E+02 -0.25115395934E+02  0.40803779984E+02  0.00000000000E+00 0. -1.
</event>
<event>
 7    1  0.6152634E-006  0.8903307E+02  0.7818608E-02  0.1383300E+00
          2   -1    0    0  502    0  0.00000000000E+00  0.00000000000E+00  0.13000956591E+04  0.13000956591E+04  0.00000000000E+00 0. -1.
          1   -1    0    0  501    0 -0.00000000000E+00 -0.00000000000E+00 -0.64689025509E+02  0.64689025509E+02  0.00000000000E+00 0. -1.
         25    2    1    2    0    0  0.12594848687E+03 -0.39352218787E+02  0.62231862104E+03  0.64831579042E+03  0.12498511728E+03 0.  0.
          2    1    1    2  501    0 -0.82185136335E+02  0.27129184866E+02 -0.14055966186E+02  0.87681009867E+02  0.00000000000E+00 0. -1.
          1    1    1    2  502    0 -0.43763350532E+02  0.12223033921E+02  0.62714397873E+03  0.62878788432E+03  0.00000000000E+00 0. -1.
         22    1    3    3    0    0 -0.46253223790E+01 -0.37511564949E+02  0.26889845996E+03  0.27154169639E+03  0.00000000000E+00 0.  1.
         22    1    3    3    0    0  0.13057380925E+03 -0.18406538382E+01  0.35342016108E+03  0.37677409402E+03  0.00000000000E+00 0.  1.
</event>
<event>
 7    1  0.6152634E-006  0.9520748E+02  0.7818608E-02  0.1395264E+00
          2   -1    0    0  502    0  0.00000000000E+00  0.00000000000E+00  0.13777957738E+04  0.13777957738E+04  0.00000000000E+00 0. -1.
          1   -1    0    0  501    0 -0.00000000000E+00 -0.00000000000E+00 -0.48308271159E+03  0.48308271159E+03  0.00000000000E+00 0. -1.
         25    2    1    2    0    0 -0.82380284445E+02 -0.91503022484E+02 -0.17195048933E+03  0.24566824058E+03  0.12500639687E+03 0.  0.
          2    1    1    2  501    0  0.46651398561E+02  0.76914024211E+02 -0.26661065229E+03  0.28137761109E+03  0.00000000000E+00 0. -1.
          1    1    1    2  502    0  0.35728885884E+02  0.14588998273E+02  0.13332742039E+04  0.13338326338E+04  0.00000000000E+00 0. -1.
         22    1    3    3    0    0  0.14815849934E+02 -0.32289238749E+02 -0.11103289913E+03  0.11657790973E+03  0.00000000000E+00 0.  1.
         22    1    3    3    0    0 -0.97196134379E+02 -0.59213783735E+02 -0.60917590204E+02  0.12909033085E+03  0.00000000000E+00 0.  1.
</event>
<event>
 7    1  0.6152634E-006  0.3640516E+02  0.7818608E-02  0.1592685E+00
          2   -1    0    0  502    0  0.00000000000E+00  0.00000000000E+00  0.18951575864E+02  0.18951575864E+02  0.00000000000E+00 0. -1.
          1   -1    0    0  501    0 -0.00000000000E+00 -0.00000000000E+00 -0.13395169912E+04  0.13395169912E+04  0.00000000000E+00 0. -1.
         25    2    1    2    0    0 -0.13799998353E+02  0.76642331313E+01 -0.46502553965E+03  0.48178581347E+03  0.12497854659E+03 0.  0.
          2    1    1    2  501    0  0.18221010120E+02 -0.32822352251E+02 -0.84963700462E+03  0.85046596148E+03  0.00000000000E+00 0. -1.
          1    1    1    2  502    0 -0.44210117671E+01  0.25158119120E+02 -0.59028710827E+01  0.26216792132E+02  0.00000000000E+00 0. -1.
         22    1    3    3    0    0 -0.37756839499E+02  0.21726952196E+02 -0.44598506045E+03  0.44810747988E+03  0.00000000000E+00 0.  1.
         22    1    3    3    0    0  0.23956841146E+02 -0.14062719064E+02 -0.19040479205E+02  0.33678333592E+02  0.00000000000E+00 0.  1.
</event>
<event>
 7    1  0.6152634E-006  0.1705470E+03  0.7818608E-02  0.1276995E+00
          2   -1    0    0  502    0  0.00000000000E+00  0.00000000000E+00  0.18033621815E+04  0.18033621815E+04  0.00000000000E+00 0. -1.
          1   -1    0    0  501    0 -0.00000000000E+00 -0.00000000000E+00 -0.10557696463E+04  0.10557696463E+04  0.00000000000E+00 0. -1.
         25    2    1    2    0    0  0.52155303899E+02 -0.17250467530E+03 -0.14713008097E+02  0.21981968321E+03  0.12500472708E+03 0.  0.
          2    1    1    2  501    0  0.49153700032E+02  0.35289821189E+02 -0.93324490697E+03  0.93520453062E+03  0.00000000000E+00 0. -1.
          1    1    1    2  502    0 -0.10130900393E+03  0.13721485411E+03  0.16955504503E+04  0.17041076140E+04  0.00000000000E+00 0. -1.
         22    1    3    3    0    0 -0.80762586527E+01 -0.77516796425E+01  0.35608628283E+02  0.37326785279E+02  0.00000000000E+00 0. -1.
         22    1    3    3    0    0  0.60231562552E+02 -0.16475299566E+03 -0.50321636380E+02  0.18249289793E+03  0.00000000000E+00 0. -1.
</event>
<event>
 7    1  0.6152634E-006  0.2718051E+03  0.7818608E-02  0.1156213E+00
          2   -1    0    0  502    0  0.00000000000E+00  0.00000000000E+00  0.97547361328E+03  0.97547361328E+03  0.00000000000E+00 0. -1.
          1   -1    0    0  501    0 -0.00000000000E+00 -0.00000000000E+00 -0.62514893046E+03  0.62514893046E+03  0.00000000000E+00 0. -1.
         25    2    1    2    0    0 -0.92917621801E+02 -0.20783470229E+03  0.15337633613E+03  0.30162625027E+03  0.12500058581E+03 0.  0.
          2    1    1    2  501    0  0.10352463869E+03 -0.88741333590E+02 -0.51231508849E+03  0.53015009667E+03  0.00000000000E+00 0. -1.
          1    1    1    2  502    0 -0.10607016889E+02  0.29657603588E+03  0.70926343518E+03  0.76884619681E+03  0.00000000000E+00 0. -1.
         22    1    3    3    0    0 -0.97654076409E+02 -0.10641572023E+03  0.13645320192E+03  0.19869600013E+03  0.00000000000E+00 0. -1.
         22    1    3    3    0    0  0.47364546083E+01 -0.10141898206E+03  0.16923134206E+02  0.10293025014E+03  0.00000000000E+00 0. -1.
</event>
<event>
 7    1  0.6152634E-006  0.6493252E+02  0.7818608E-02  0.1487023E+00
          2   -1    0    0  502    0  0.00000000000E+00  0.00000000000E+00  0.18010619344E+04  0.18010619344E+04  0.00000000000E+00 0. -1.
          1   -1    0    0  501    0 -0.00000000000E+00 -0.00000000000E+00 -0.41362726524E+03  0.41362726524E+03  0.00000000000E+00 0. -1.
         25    2    1    2    0    0  0.31698920075E+02 -0.26268033688E+02  0.86996871684E+02  0.15777267251E+03  0.12501571653E+03 0.  0.
          2    1    1    2  501    0  0.28506686493E+02  0.74777479138E+00 -0.37706395909E+03  0.37814074045E+03  0.00000000000E+00 0. -1.
          1    1    1    2  502    0 -0.60205606568E+02  0.25520258897E+02  0.16775017566E+04  0.16787757867E+04  0.00000000000E+00 0. -1.
         22    1    3    3    0    0  0.23231642242E+02  0.36937776540E+02 -0.69912323643E+01  0.44192599685E+02  0.00000000000E+00 0. -1.
         22    1    3    3    0    0  0.84672778331E+01 -0.63205810228E+02  0.93988104048E+02  0.11358007283E+03  0.00000000000E+00 0. -1.
</event>
<event>
 7    1  0.6152634E-006  0.8744341E+02  0.7818608E-02  0.1415815E+00
          2   -1    0    0  502    0  0.00000000000E+00  0.00000000000E+00  0.12163198509E+04  0.12163198509E+04  0.00000000000E+00 0. -1.
          1   -1    0    0  501    0 -0.00000000000E+00 -0.00000000000E+00 -0.51667534251E+03  0.51667534251E+03  0.00000000000E+00 0. -1.
         25    2    1    2    0    0 -0.83816659137E+02  0.41752483325E+02  0.10416374718E+04  0.10532816932E+04  0.12500080166E+03 0.  0.
          2    1    1    2  501    0  0.57461883171E+02 -0.65916812107E+02 -0.50516089338E+03  0.51267379720E+03  0.00000000000E+00 0. -1.
          1    1    1    2  502    0  0.26354775966E+02  0.24164328783E+02  0.16316793002E+03  0.16703970303E+03  0.00000000000E+00 0. -1.
         22    1    3    3    0    0 -0.67390939673E+02  0.19064041036E+02  0.21396732200E+03  0.22513771629E+03  0.00000000000E+00 0.  1.
         22    1    3    3    0    0 -0.16425719464E+02  0.22688442288E+02  0.82767014976E+03  0.82814397691E+03  0.00000000000E+00 0.  1.
</event>
<event>
 7    1  0.6152634E-006  0.2065794E+03  0.7818608E-02  0.1211312E+00
          2   -1    0    0  502    0  0.00000000000E+00  0.00000000000E+00  0.22300175319E+03  0.22300175319E+03  0.00000000000E+00 0. -1.
          1   -1    0    0  501    0 -0.00000000000E+00 -0.00000000000E+00 -0.15266060588E+04  0.15266060588E+04  0.00000000000E+00 0. -1.
         25    2    1    2    0    0 -0.24819829716E+02 -0.18658364340E+03 -0.21774624133E+03  0.31379629678E+03  0.12500084132E+03 0.  0.
          2    1    1    2  501    0 -0.70995385437E+02  0.20128268006E+03 -0.12375343711E+04  0.12558050731E+04  0.00000000000E+00 0. -1.
          1    1    1    2  502    0  0.95815215152E+02 -0.14699036660E+02  0.15167630683E+03  0.18000644207E+03  0.00000000000E+00 0. -1.
         22    1    3    3    0    0  0.33110326360E+02 -0.15355825893E+03 -0.13207399161E+03  0.20523150795E+03  0.00000000000E+00 0. -1.
         22    1    3    3    0    0 -0.57930156075E+02 -0.33025384476E+02 -0.85672249720E+02  0.10856478883E+03  0.00000000000E+00 0. -1.
</event>
<event>
 7    1  0.6152634E-006  0.1416108E+03  0.7818608E-02  0.1260158E+00
          2   -1    0    0  502    0  0.00000000000E+00  0.00000000000E+00  0.12504326375E+04  0.12504326375E+04  0.00000000000E+00 0. -1.
          1   -1    0    0  501    0 -0.00000000000E+00 -0.00000000000E+00 -0.91385957207E+03  0.91385957207E+03  0.00000000000E+00 0. -1.
         25    2    1    2    0    0  0.97782135493E+02 -0.23031195541E+02  0.73876731299E+03  0.75597348471E+03  0.12500793914E+03 0.  0.
          2    1    1    2  501    0 -0.91591857761E+02  0.10859955896E+03 -0.89596092066E+03  0.90715428895E+03  0.00000000000E+00 0. -1.
          1    1    1    2  502    0 -0.61902777317E+01 -0.85568363416E+02  0.49376667309E+03  0.50116443590E+03  0.00000000000E+00 0. -1.
         22    1    3    3    0    0 -0.14367491173E+02  0.12982179686E+02  0.33015457682E+03  0.33072194724E+03  0.00000000000E+00 0. -1.
         22    1    3    3    0    0  0.11214962667E+03 -0.36013375227E+02  0.40861273618E+03  0.42525153747E+03  0.00000000000E+00 0. -1.
</event>
<event>
 7    1  0.6152634E-006  0.9560543E+02  0.7818608E-02  0.1312180E+00
          2   -1    0    0  502    0  0.00000000000E+00  0.00000000000E+00  0.29237645129E+04  0.29237645129E+04  0.00000000000E+00 0. -1.
          1   -1    0    0  501    0 -0.00000000000E+00 -0.00000000000E+00 -0.83171824353E+03  0.83171824353E+03  0.00000000000E+00 0. -1.
         25    2    1    2    0    0 -0.13449890100E+03  0.59722667195E+01  0.17912802246E+03  0.25658792325E+03  0.12499956634E+03 0.  0.
          2    1    1    2  501    0  0.76148998283E+02 -0.57463781781E+02 -0.78955701279E+03  0.79529933522E+03  0.00000000000E+00 0. -1.
          1    1    1    2  502    0  0.58349902720E+02  0.51491515062E+02  0.27024752597E+04  0.27035954980E+04  0.00000000000E+00 0. -1.
         22    1    3    3    0    0  0.14198747773E+02 -0.26933073651E+02  0.20612926287E+02  0.36768024487E+02  0.00000000000E+00 0.  1.
         22    1    3    3    0    0 -0.14869764878E+03  0.32905340370E+02  0.15851509618E+03  0.21981989876E+03  0.00000000000E+00 0.  1.
</event>
<event>
 7    1  0.6152634E-006  0.1785445E+03  0.7818608E-02  0.1222695E+00
          2   -1    0    0  502    0  0.00000000000E+00  0.00000000000E+00  0.68714196718E+03  0.68714196718E+03  0.00000000000E+00 0. -1.
          1   -1    0    0  501    0 -0.00000000000E+00 -0.00000000000E+00 -0.19760234383E+04  0.19760234383E+04  0.00000000000E+00 0. -1.
         25    2    1    2    0    0  0.98652648614E+02 -0.15699464341E+02 -0.26321615992E+03  0.30803829197E+03  0.12500409681E+03 0.  0.
          2    1    1    2  501    0 -0.19780150880E+03  0.23598183620E+02 -0.16807605105E+04  0.16925242110E+04  0.00000000000E+00 0. -1.
          1    1    1    2  502    0  0.99148860182E+02 -0.78987192787E+01  0.65509519931E+03  0.66260290250E+03  0.00000000000E+00 0. -1.
         22    1    3    3    0    0  0.39837120110E+02  0.11471960189E+02 -0.49274570352E+01  0.41747836376E+02  0.00000000000E+00 0.  1.
         22    1    3    3    0    0  0.58815528504E+02 -0.27171424531E+02 -0.25828870288E+03  0.26629045559E+03  0.00000000000E+00 0.  1.
</event>
<event>
 7    1  0.6152634E-006  0.1252068E+03  0.7818608E-02  0.1385450E+00
          2   -1    0    0  502    0  0.00000000000E+00  0.00000000000E+00  0.43423879753E+03  0.43423879753E+03  0.00000000000E+00 0. -1.
          1   -1    0    0  501    0 -0.00000000000E+00 -0.00000000000E+00 -0.51739497473E+03  0.51739497473E+03  0.00000000000E+00 0. -1.
         25    2    1    2    0    0  0.32311708134E+02 -0.10003519158E+03  0.14625333013E+03  0.21924170220E+03  0.12500320544E+03 0.  0.
          2    1    1    2  501    0 -0.12386247804E+01 -0.31728426471E+02 -0.46209790383E+03  0.46318754296E+03  0.00000000000E+00 0. -1.
          1    1    1    2  502    0 -0.31073083354E+02  0.13176361805E+03  0.23268839649E+03  0.26920452710E+03  0.00000000000E+00 0. -1.
         22    1    3    3    0    0 -0.19845180807E+02 -0.52278697532E+01 -0.14737265960E+02  0.25265566120E+02  0.00000000000E+00 0. -1.
         22    1    3    3    0    0  0.52156888941E+02 -0.94807321828E+02  0.16099059609E+03  0.19397613607E+03  0.00000000000E+00 0. -1.
</event>
<event>
 7    1  0.6152634E-006  0.8752631E+02  0.7818608E-02  0.1342145E+00
          2   -1    0    0  502    0  0.00000000000E+00  0.00000000000E+00  0.10335316898E+04  0.10335316898E+04  0.00000000000E+00 0. -1.
          1   -1    0    0  501    0 -0.00000000000E+00 -0.00000000000E+00 -0.78853802746E+03  0.78853802746E+03  0.00000000000E+00 0. -1.
         25    2    1    2    0    0 -0.77447421426E+02 -0.22117067461E+02 -0.23073780136E+03  0.27450409266E+03  0.12500118459E+03 0.  0.
          2    1    1    2  501    0  0.81755842026E+02 -0.42970462278E+02 -0.53087419330E+03  0.53884866841E+03  0.00000000000E+00 0. -1.
          1    1    1    2  502    0 -0.43084205995E+01  0.65087529739E+02  0.10066056570E+04  0.10087169562E+04  0.00000000000E+00 0. -1.
         22    1    3    3    0    0 -0.38191522206E+02 -0.21012156465E+02 -0.23115632355E+03  0.23523041683E+03  0.00000000000E+00 0.  1.
         22    1    3    3    0    0 -0.39255899220E+02 -0.11049109963E+01  0.41852218535E+00  0.39273675824E+02  0.00000000000E+00 0.  1.
</event>
<event>
 7    1  0.6152634E-006  0.9204856E+02  0.7818608E-02  0.1309746E+00
          2   -1    0    0  502    0  0.00000000000E+00  0.00000000000E+00  0.69675924543E+03  0.69675924543E+03  0.00000000000E+00 0. -1.
          1   -1    0    0  501    0 -0.00000000000E+00 -0.00000000000E+00 -0.77499852302E+03  0.77499852302E+03  0.00000000000E+00 0. -1.
         25    2    1    2    0    0 -0.11215756581E+03  0.49310674371E+01 -0.12365703301E+03  0.20861335619E+03  0.12499934229E+03 0.  0.
          2    1    1    2  501    0  0.51469954204E+02  0.64642321921E+02 -0.60277380141E+03  0.60841107949E+03  0.00000000000E+00 0. -1.
          1    1    1    2  502    0  0.60687611607E+02 -0.69573389358E+02  0.64819155683E+03  0.65473333278E+03  0.00000000000E+00 0. -1.
         22    1    3    3    0    0 -0.33966531587E+02  0.40186168315E+02  0.62050881577E+01  0.52982605740E+02  0.00000000000E+00 0.  1.
         22    1    3    3    0    0 -0.78191034224E+02 -0.35255100878E+02 -0.12986212117E+03  0.15563075045E+03  0.00000000000E+00 0.  1.
</event>
<event>
 7    1  0.6152634E-006  0.5099098E+02  0.7818608E-02  0.1566526E+00
          2   -1    0    0  502    0  0.00000000000E+00  0.00000000000E+00  0.54211277426E+03  0.54211277426E+03  0.00000000000E+00 0. -1.
          1   -1    0    0  501    0 -0.00000000000E+00 -0.00000000000E+00 -0.22774387639E+03  0.22774387639E+03  0.00000000000E+00 0. -1.
         25    2    1    2    0    0 -0.23043844749E+01 -0.70878668650E+02 -0.31026002232E+02  0.14702644631E+03  0.12500026897E+03 0.  0.
          2    1    1    2  501    0 -0.53456033541E+01  0.20758424438E+02 -0.13655178117E+03  0.13822400877E+03  0.00000000000E+00 0. -1.
          1    1    1    2  502    0  0.76499878289E+01  0.50120244212E+02  0.48194668127E+03  0.48460619556E+03  0.00000000000E+00 0. -1.
         22    1    3    3    0    0  0.23076037642E+02 -0.89617267344E+02  0.12381675367E+02  0.93365218387E+02  0.00000000000E+00 0. -1.
         22    1    3    3    0    0 -0.25380422117E+02  0.18738598694E+02 -0.43407677598E+02  0.53661227924E+02  0.00000000000E+00 0. -1.
</event>
<event>
 7    1  0.6152634E-006  0.2783348E+02  0.7818608E-02  0.1671302E+00
          2   -1    0    0  502    0  0.00000000000E+00  0.00000000000E+00  0.11474325700E+03  0.11474325700E+03  0.00000000000E+00 0. -1.
          1   -1    0    0  501    0 -0.00000000000E+00 -0.00000000000E+00 -0.14434113914E+03  0.14434113914E+03  0.00000000000E+00 0. -1.
         25    2    1    2    0    0  0.83628757824E+01 -0.27867676615E+01  0.30223592796E+02  0.12890271363E+03  0.12499896101E+03 0.  0.
          2    1    1    2  501    0 -0.18873804347E+02  0.21209982814E+02 -0.89390986440E+02  0.93791429876E+02  0.00000000000E+00 0. -1.
          1    1    1    2  502    0  0.10510928564E+02 -0.18423215153E+02  0.29569511509E+02  0.36390252633E+02  0.00000000000E+00 0. -1.
         22    1    3    3    0    0  0.52108874892E+02 -0.40908811824E+02  0.24343998462E+02  0.70579713718E+02  0.00000000000E+00 0.  1.
         22    1    3    3    0    0 -0.43745999109E+02  0.38122044163E+02  0.58795943340E+01  0.58322999912E+02  0.00000000000E+00 0.  1.
</event>
<event>
 7    1  0.6152634E-006  0.9123382E+02  0.7818608E-02  0.1373166E+00
          2   -1    0    0  502    0  0.00000000000E+00  0.00000000000E+00  0.12339668266E+04  0.12339668266E+04  0.00000000000E+00 0. -1.
          1   -1    0    0  501    0 -0.00000000000E+00 -0.00000000000E+00 -0.43320495045E+02  0.43320495045E+02  0.00000000000E+00 0. -1.
         25    2    1    2    0    0  0.20820140165E+01  0.75778691354E+02  0.40876823217E+03  0.43412319818E+03  0.12499895487E+03 0.  0.
          2    1    1    2  501    0  0.47625192716E+02  0.72446166868E+01 -0.67304202438E+01  0.48640949917E+02  0.00000000000E+00 0. -1.
          1    1    1    2  502    0 -0.49707206732E+02 -0.83023308041E+02  0.78860851960E+03  0.79452317352E+03  0.00000000000E+00 0. -1.
         22    1    3    3    0    0  0.60478147343E+02  0.53911087035E+02  0.27201803811E+03  0.28382710348E+03  0.00000000000E+00 0.  1.
         22    1    3    3    0    0 -0.58396133327E+02  0.21867604320E+02  0.13675019406E+03  0.15029609469E+03  0.00000000000E+00 0.  1.
</event>
<event>
 7    1  0.6152634E-006  0.5620463E+02  0.7818608E-02  0.1540100E+00
          2   -1    0    0  502    0  0.00000000000E+00  0.00000000000E+00  0.67201968260E+03  0.67201968260E+03  0.00000000000E+00 0. -1.
          1   -1    0    0  501    0 -0.00000000000E+00 -0.00000000000E+00 -0.32812271130E+03  0.32812271130E+03  0.00000000000E+00 0. -1.
         25    2    1    2    0    0  0.64408724376E+02 -0.21968638170E+02 -0.18642797875E+02  0.14353905612E+03  0.12499920752E+03 0.  0.
          2    1    1    2  501    0 -0.44523961265E+02  0.33582412085E+02 -0.24366285279E+03  0.24996349205E+03  0.00000000000E+00 0. -1.
          1    1    1    2  502    0 -0.19884763112E+02 -0.11613773914E+02  0.60620262197E+03  0.60663984573E+03  0.00000000000E+00 0. -1.
         22    1    3    3    0    0  0.14420398631E+02  0.24041944468E+02 -0.58429146048E+02  0.64806852248E+02  0.00000000000E+00 0. -1.
         22    1    3    3    0    0  0.49988325746E+02 -0.46010582639E+02  0.39786348173E+02  0.78732203872E+02  0.00000000000E+00 0. -1.
</event>
<event>
 7    1  0.6152634E-006  0.8888070E+02  0.7818608E-02  0.1458396E+00
          2   -1    0    0  502    0  0.00000000000E+00  0.00000000000E+00  0.19941412835E+03  0.19941412835E+03  0.00000000000E+00 0. -1.
          1   -1    0    0  501    0 -0.00000000000E+00 -0.00000000000E+00 -0.92381370274E+03  0.92381370274E+03  0.00000000000E+00 0. -1.
         25    2    1    2    0    0 -0.66216177473E+02  0.10364157955E+02  0.83309271336E+02  0.16449033808E+03  0.12499855480E+03 0.  0.
          2    1    1    2  501    0  0.89293619363E+02  0.61256195773E+00 -0.87873164988E+03  0.88325706235E+03  0.00000000000E+00 0. -1.
          1    1    1    2  502    0 -0.23077441890E+02 -0.10976719913E+02  0.71022804146E+02  0.75480430662E+02  0.00000000000E+00 0. -1.
         22    1    3    3    0    0  0.27478397967E+02  0.23642387597E+02 -0.30498642752E+01  0.36377555144E+02  0.00000000000E+00 0. -1.
         22    1    3    3    0    0 -0.93694575440E+02 -0.13278229642E+02  0.86359135611E+02  0.12811278294E+03  0.00000000000E+00 0. -1.
</event>
<event>
 7    1  0.6152634E-006  0.6408815E+02  0.7818608E-02  0.1488565E+00
          2   -1    0    0  502    0  0.00000000000E+00  0.00000000000E+00  0.16721384656E+04  0.16721384656E+04  0.00000000000E+00 0. -1.
          1   -1    0    0  501    0 -0.00000000000E+00 -0.00000000000E+00 -0.48479373360E+02  0.48479373360E+02  0.00000000000E+00 0. -1.
         25    2    1    2    0    0 -0.60746561118E+02  0.68196363917E+02  0.34461964777E+03  0.37779443249E+03  0.12500017140E+03 0.  0.
          2    1    1    2  501    0  0.17477384167E+02 -0.22616618237E+02 -0.24575050804E+02  0.37694873655E+02  0.00000000000E+00 0. -1.
          1    1    1    2  502    0  0.43269176951E+02 -0.45579745680E+02  0.13036144953E+04  0.13051285328E+04  0.00000000000E+00 0. -1.
         22    1    3    3    0    0  0.29876986874E+02 -0.12637828029E+02  0.90793713771E+02  0.96414975508E+02  0.00000000000E+00 0. -1.
         22    1    3    3    0    0 -0.90623547992E+02  0.80834191946E+02  0.25382593400E+03  0.28137945698E+03  0.00000000000E+00 0. -1.
</event>
<event>
 7    1  0.6152634E-006  0.7074544E+02  0.7818608E-02  0.1469849E+00
          2   -1    0    0  502    0  0.00000000000E+00  0.00000000000E+00  0.12187794686E+04  0.12187794686E+04  0.00000000000E+00 0. -1.
          1   -1    0    0  501    0 -0.00000000000E+00 -0.00000000000E+00 -0.14845271153E+03  0.14845271153E+03  0.00000000000E+00 0. -1.
         25    2    1    2    0    0 -0.93260374152E+02 -0.26980696407E+02  0.11046520687E+04  0.11159318589E+04  0.12498906158E+03 0.  0.
          2    1    1    2  501    0  0.70001178593E+02  0.87425789244E+01 -0.13177333260E+03  0.14946842100E+03  0.00000000000E+00 0. -1.
          1    1    1    2  502    0  0.23259195560E+02  0.18238117483E+02  0.97448020977E+02  0.10183190021E+03  0.00000000000E+00 0. -1.
         22    1    3    3    0    0 -0.11560317374E+03 -0.48937911505E+02  0.81860570418E+03  0.82817529055E+03  0.00000000000E+00 0.  1.
         22    1    3    3    0    0  0.22342799586E+02  0.21957215097E+02  0.28604636453E+03  0.28775656839E+03  0.00000000000E+00 0.  1.
</event>
<event>
 7    1  0.6152634E-006  0.4836737E+02  0.7818608E-02  0.1496570E+00
          2   -1    0    0  502    0  0.00000000000E+00  0.00000000000E+00  0.86141321059E+02  0.86141321059E+02  0.00000000000E+00 0. -1.
          1   -1    0    0  501    0 -0.00000000000E+00 -0.00000000000E+00 -0.27737326249E+03  0.27737326249E+03  0.00000000000E+00 0. -1.
         25    2    1    2    0    0 -0.57617920167E+00 -0.25926321086E+02 -0.15248744748E+03  0.19887185544E+03  0.12500034856E+03 0.  0.
          2    1    1    2  501    0  0.25721005458E+02  0.51445118143E+02 -0.87151789639E+02  0.10442032723E+03  0.00000000000E+00 0. -1.
          1    1    1    2  502    0 -0.25144826257E+02 -0.25518797057E+02  0.48407295691E+02  0.60222400873E+02  0.00000000000E+00 0. -1.
         22    1    3    3    0    0 -0.33780220934E+02  0.20444933652E+02 -0.38556819696E+01  0.39673226763E+02  0.00000000000E+00 0.  1.
         22    1    3    3    0    0  0.33204041732E+02 -0.46371254738E+02 -0.14863176551E+03  0.15919862868E+03  0.00000000000E+00 0.  1.
</event>
<event>
 7    1  0.6152634E-006  0.9040314E+02  0.7818608E-02  0.1322462E+00
          2   -1    0    0  502    0  0.00000000000E+00  0.00000000000E+00  0.17451430289E+04  0.17451430289E+04  0.00000000000E+00 0. -1.
          1   -1    0    0  501    0 -0.00000000000E+00 -0.00000000000E+00 -0.50322128153E+02  0.50322128153E+02  0.00000000000E+00 0. -1.
         25    2    1    2    0    0 -0.76322559656E+02 -0.86166318149E+02  0.22380187722E+03  0.28100219091E+03  0.12500073421E+03 0.  0.
          2    1    1    2  501    0 -0.13318635553E+02  0.73856288565E+02  0.49132227589E+02  0.89700129328E+02  0.00000000000E+00 0. -1.
          1    1    1    2  502    0  0.89641195209E+02  0.12310029584E+02  0.14218867959E+04  0.14247628368E+04  0.00000000000E+00 0. -1.
         22    1    3    3    0    0 -0.21246435710E+02 -0.10738032491E+02  0.17310405314E+03  0.17473330989E+03  0.00000000000E+00 0. -1.
         22    1    3    3    0    0 -0.55076123945E+02 -0.75428285658E+02  0.50697824079E+02  0.10626888102E+03  0.00000000000E+00 0. -1.
</event>
<event>
 7    1  0.6152634E-006  0.1733155E+03  0.7818608E-02  0.1249023E+00
          2   -1    0    0  502    0  0.00000000000E+00  0.00000000000E+00  0.13063794353E+04  0.13063794353E+04  0.00000000000E+00 0. -1.
          1   -1    0    0  501    0 -0.00000000000E+00 -0.00000000000E+00 -0.65117933077E+03  0.65117933077E+03  0.00000000000E+00 0. -1.
         25    2    1    2    0    0 -0.23183220000E+03  0.10437731656E+02  0.67504734066E+02  0.27209625147E+03  0.12499746293E+03 0.  0.
          2    1    1    2  501    0  0.65047732927E+02 -0.43548559831E+02 -0.53968421624E+03  0.54533176863E+03  0.00000000000E+00 0. -1.
          1    1    1    2  502    0  0.16678446708E+03  0.33110828174E+02  0.11273795867E+04  0.11401307460E+04  0.00000000000E+00 0. -1.
         22    1    3    3    0    0 -0.16099201508E+03  0.64734775801E+02  0.54637223135E+02  0.18191824062E+03  0.00000000000E+00 0. -1.
         22    1    3    3    0    0 -0.70840184919E+02 -0.54297044144E+02  0.12867510931E+02  0.90178010844E+02  0.00000000000E+00 0. -1.
</event>
<event>
 7    1  0.6152634E-006  0.6146904E+02  0.7818608E-02  0.1394217E+00
          2   -1    0    0  502    0  0.00000000000E+00  0.00000000000E+00  0.85110418840E+03  0.85110418840E+03  0.00000000000E+00 0. -1.
          1   -1    0    0  501    0 -0.00000000000E+00 -0.00000000000E+00 -0.18475168528E+03  0.18475168528E+03  0.00000000000E+00 0. -1.
         25    2    1    2    0    0 -0.91535127780E+01  0.63456159965E+00  0.19617681562E+02  0.12686858868E+03  0.12500638343E+03 0.  0.
          2    1    1    2  501    0 -0.86504370618E+01  0.59652638111E+02 -0.12284930027E+03  0.13684011792E+03  0.00000000000E+00 0. -1.
          1    1    1    2  502    0  0.17803949840E+02 -0.60287199710E+02  0.76958412182E+03  0.77214716709E+03  0.00000000000E+00 0. -1.
         22    1    3    3    0    0 -0.17832500154E+02  0.56338374370E+02  0.34676424486E+02  0.68516165271E+02  0.00000000000E+00 0. -1.
         22    1    3    3    0    0  0.86789873756E+01 -0.55703812770E+02 -0.15058742924E+02  0.58352423407E+02  0.00000000000E+00 0. -1.
</event>
<event>
 7    1  0.6152634E-006  0.5361304E+02  0.7818608E-02  0.1450049E+00
          2   -1    0    0  502    0  0.00000000000E+00  0.00000000000E+00  0.12666004571E+03  0.12666004571E+03  0.00000000000E+00 0. -1.
          1   -1    0    0  501    0 -0.00000000000E+00 -0.00000000000E+00 -0.60010575166E+03  0.60010575166E+03  0.00000000000E+00 0. -1.
         25    2    1    2    0    0 -0.48440624715E+00  0.24409351362E+02  0.23739764797E+02  0.12956307299E+03  0.12500784922E+03 0.  0.
          2    1    1    2  501    0 -0.53024667781E+02 -0.79210331846E+01 -0.52973247419E+03  0.53243859023E+03  0.00000000000E+00 0. -1.
          1    1    1    2  502    0  0.53509074028E+02 -0.16488318177E+02  0.32547003440E+02  0.64764134153E+02  0.00000000000E+00 0. -1.
         22    1    3    3    0    0  0.17546362815E+02  0.49854456810E+02 -0.34768174967E+02  0.63262688074E+02  0.00000000000E+00 0.  1.
         22    1    3    3    0    0 -0.18030769062E+02 -0.25445105448E+02  0.58507939765E+02  0.66300384914E+02  0.00000000000E+00 0.  1.
</event>
<event>
 7    1  0.6152634E-006  0.1460067E+03  0.7818608E-02  0.1271060E+00
          2   -1    0    0  502    0  0.00000000000E+00  0.00000000000E+00  0.22594415805E+04  0.22594415805E+04  0.00000000000E+00 0. -1.
          1   -1    0    0  501    0 -0.00000000000E+00 -0.00000000000E+00 -0.36619079916E+02  0.36619079916E+02  0.00000000000E+00 0. -1.
         25    2    1    2    0    0  0.10919742056E+03 -0.14596673703E+02  0.10890928576E+04  0.11017649478E+04  0.12500243291E+03 0.  0.
          2    1    1    2  501    0 -0.14634162930E+03 -0.50360834298E+02  0.17895990512E+03  0.23659825388E+03  0.00000000000E+00 0. -1.
          1    1    1    2  502    0  0.37144208741E+02  0.64957508000E+02  0.95476973790E+03  0.95769745876E+03  0.00000000000E+00 0. -1.
         22    1    3    3    0    0  0.11280520453E+03 -0.39099562845E+02  0.58470624533E+03  0.59677062873E+03  0.00000000000E+00 0. -1.
         22    1    3    3    0    0 -0.36077839661E+01  0.24502889143E+02  0.50438661224E+03  0.50499431907E+03  0.00000000000E+00 0. -1.
</event>
<event>
 7    1  0.9383408E-006  0.8792498E+02  0.7818608E-02  0.1434221E+00
          2   -1    0    0  502    0  0.00000000000E+00  0.00000000000E+00  0.16474442978E+04  0.16474442978E+04  0.00000000000E+00 0. -1.
          1   -1    0    0  501    0 -0.00000000000E+00 -0.00000000000E+00 -0.14993569369E+04  0.14993569369E+04  0.00000000000E+00 0. -1.
         25    2    1    2    0    0 -0.72824095591E+02 -0.82372515052E+02 -0.88391429928E+03  0.89945446534E+03  0.12500106642E+03 0.  0.
          2    1    1    2  501    0  0.30427139918E+02  0.53737994992E+01 -0.60610072004E+03  0.60688777496E+03  0.00000000000E+00 0. -1.
          1    1    1    2  502    0  0.42396955673E+02  0.76998715553E+02  0.16381023803E+04  0.16404589944E+04  0.00000000000E+00 0. -1.
         22    1    3    3    0    0 -0.91470618964E+02 -0.10048934477E+03 -0.64685491002E+03  0.66097371896E+03  0.00000000000E+00 0.  1.
         22    1    3    3    0    0  0.18646523373E+02  0.18116829716E+02 -0.23705938926E+03  0.23848074637E+03  0.00000000000E+00 0.  1.
</event>
<event>
 7    1  0.6152634E-006  0.5296726E+02  0.7818608E-02  0.1460091E+00
          2   -1    0    0  502    0  0.00000000000E+00  0.00000000000E+00  0.56348778513E+03  0.56348778513E+03  0.00000000000E+00 0. -1.
          1   -1    0    0  501    0 -0.00000000000E+00 -0.00000000000E+00 -0.26508824482E+04  0.26508824482E+04  0.00000000000E+00 0. -1.
         25    2    1    2    0    0  0.16266376793E+01  0.10815043181E+02 -0.23079509542E+03  0.26270067851E+03  0.12500263720E+03 0.  0.
          2    1    1    2  501    0  0.12723677497E+02  0.40400288943E+02 -0.24026557872E+04  0.24030291108E+04  0.00000000000E+00 0. -1.
          1    1    1    2  502    0 -0.14350315176E+02 -0.51215332125E+02  0.54605621963E+03  0.54864044400E+03  0.00000000000E+00 0. -1.
         22    1    3    3    0    0  0.28949101134E+01 -0.56926812211E+02 -0.11962320278E+03  0.13250944531E+03  0.00000000000E+00 0.  1.
         22    1    3    3    0    0 -0.12682724341E+01  0.67741855393E+02 -0.11117189264E+03  0.13019123319E+03  0.00000000000E+00 0.  1.
</event>
<event>
 7    1  0.6152634E-006  0.5516193E+02  0.7818608E-02  0.1461485E+00
          2   -1    0    0  502    0  0.00000000000E+00  0.00000000000E+00  0.21411332995E+04  0.21411332995E+04  0.00000000000E+00 0. -1.
          1   -1    0    0  501    0 -0.00000000000E+00 -0.00000000000E+00 -0.48969855763E+03  0.48969855763E+03  0.00000000000E+00 0. -1.
         25    2    1    2    0    0 -0.35972365215E+02  0.13131522669E+02  0.12386889959E+04  0.12455690514E+04  0.12500154123E+03 0.  0.
          2    1    1    2  501    0  0.49279303933E+02  0.24868097921E+02 -0.48423900921E+03  0.48737489690E+03  0.00000000000E+00 0. -1.
          1    1    1    2  502    0 -0.13306938717E+02 -0.37999620590E+02  0.89698475520E+03  0.89788790884E+03  0.00000000000E+00 0. -1.
         22    1    3    3    0    0 -0.50570874087E+02 -0.46638087609E+02  0.60410674945E+03  0.60801109303E+03  0.00000000000E+00 0.  1.
         22    1    3    3    0    0  0.14598508872E+02  0.59769610277E+02  0.63458224645E+03  0.63755795837E+03  0.00000000000E+00 0.  1.
</event>
<event>
 7    1  0.6152634E-006  0.9135234E+02  0.7818608E-02  0.1334093E+00
          2   -1    0    0  502    0  0.00000000000E+00  0.00000000000E+00  0.29442846280E+02  0.29442846280E+02  0.00000000000E+00 0. -1.
          1   -1    0    0  501    0 -0.00000000000E+00 -0.00000000000E+00 -0.44191443951E+04  0.44191443951E+04  0.00000000000E+00 0. -1.
         25    2    1    2    0    0 -0.10281539036E+03  0.13144727053E+02 -0.20002227734E+04  0.20068035342E+04  0.12500197354E+03 0.  0.
          2    1    1    2  501    0  0.40005632692E+02  0.53778280042E+02 -0.23331148026E+04  0.23340773844E+04  0.00000000000E+00 0. -1.
          1    1    1    2  502    0  0.62809757666E+02 -0.66923007096E+02 -0.56363972790E+02  0.10770632277E+03  0.00000000000E+00 0. -1.
         22    1    3    3    0    0 -0.10785654062E+03  0.43536385057E+02 -0.11161059036E+04  0.11221500962E+04  0.00000000000E+00 0. -1.
         22    1    3    3    0    0  0.50411502656E+01 -0.30391658004E+02 -0.88411686975E+03  0.88465343805E+03  0.00000000000E+00 0. -1.
</event>
<event>
 7    1  0.6152634E-006  0.9487686E+02  0.7818608E-02  0.1300890E+00
          2   -1    0    0  502    0  0.00000000000E+00  0.00000000000E+00  0.20616075371E+04  0.20616075371E+04  0.00000000000E+00 0. -1.
          1   -1    0    0  501    0 -0.00000000000E+00 -0.00000000000E+00 -0.36513681028E+02  0.36513681028E+02  0.00000000000E+00 0. -1.
         25    2    1    2    0    0  0.55026557800E+02  0.12318320281E+03  0.80914712651E+03  0.82978709823E+03  0.12500213015E+03 0.  0.
          2    1    1    2  501    0 -0.79856164723E+02 -0.34340876326E+02  0.53158883529E+02  0.10189293267E+03  0.00000000000E+00 0. -1.
          1    1    1    2  502    0  0.24829606923E+02 -0.88842326484E+02  0.11627878461E+04  0.11664411873E+04  0.00000000000E+00 0. -1.
         22    1    3    3    0    0  0.27262948235E+02  0.13952104488E+03  0.73964077079E+03  0.75317850482E+03  0.00000000000E+00 0.  1.
         22    1    3    3    0    0  0.27763609565E+02 -0.16337842068E+02  0.69506355716E+02  0.76608593411E+02  0.00000000000E+00 0.  1.
</event>
<event>
 7    1  0.6152634E-006  0.7708908E+02  0.7818608E-02  0.1407863E+00
          2   -1    0    0  502    0  0.00000000000E+00  0.00000000000E+00  0.10157525250E+04  0.10157525250E+04  0.00000000000E+00 0. -1.
          1   -1    0    0  501    0 -0.00000000000E+00 -0.00000000000E+00 -0.50612157874E+02  0.50612157874E+02  0.00000000000E+00 0. -1.
         25    2    1    2    0    0 -0.41860408582E+02  0.33314058911E+02  0.39208610483E+03  0.41499258164E+03  0.12500083552E+03 0.  0.
          2    1    1    2  501    0  0.29453928177E+02 -0.74639822718E+02  0.36381536122E+01  0.80323553097E+02  0.00000000000E+00 0. -1.
          1    1    1    2  502    0  0.12406480405E+02  0.41325763806E+02  0.56941610865E+03  0.57104854811E+03  0.00000000000E+00 0. -1.
         22    1    3    3    0    0 -0.64837977589E+01  0.21896034248E+02  0.17635420910E+01  0.22903843125E+02  0.00000000000E+00 0. -1.
         22    1    3    3    0    0 -0.35376610823E+02  0.11418024663E+02  0.39032256274E+03  0.39208873851E+03  0.00000000000E+00 0. -1.
</event>
<event>
 7    1  0.6152634E-006  0.1712580E+03  0.7818608E-02  0.1362588E+00
          2   -1    0    0  502    0  0.00000000000E+00  0.00000000000E+00  0.15534780159E+04  0.15534780159E+04  0.00000000000E+00 0. -1.
          1   -1    0    0  501    0 -0.00000000000E+00 -0.00000000000E+00 -0.18637726269E+03  0.18637726269E+03  0.00000000000E+00 0. -1.
         25    2    1    2    0    0  0.81401628091E+02 -0.14142309034E+03  0.61436847445E+02  0.21453613738E+03  0.12499820991E+03 0.  0.
          2    1    1    2  501    0 -0.64491748665E+02  0.16376447475E+03 -0.39072829215E+02  0.18029052893E+03  0.00000000000E+00 0. -1.
          1    1    1    2  502    0 -0.16909879426E+02 -0.22341384419E+02  0.13447367350E+04  0.13450286123E+04  0.00000000000E+00 0. -1.
         22    1    3    3    0    0  0.72626794379E+02 -0.10005375987E+02  0.29380955532E+02  0.78981006314E+02  0.00000000000E+00 0.  1.
         22    1    3    3    0    0  0.87748337119E+01 -0.13141771435E+03  0.32055891913E+02  0.13555513106E+03  0.00000000000E+00 0.  1.
</event>
<event>
 7    1  0.6152634E-006  0.1469141E+03  0.7818608E-02  0.1391866E+00
          2   -1    0    0  502    0  0.00000000000E+00  0.00000000000E+00  0.24677986751E+04  0.24677986751E+04  0.00000000000E+00 0. -1.
          1   -1    0    0  501    0 -0.00000000000E+00 -0.00000000000E+00 -0.17092591751E+02  0.17092591751E+02  0.00000000000E+00 0. -1.
         25    2    1    2    0    0 -0.90567094484E+01  0.13355993242E+03  0.66495481423E+03  0.68971800812E+03  0.12500298483E+03 0.  0.
          2    1    1    2  501    0  0.19378775699E+02  0.16878395476E+02  0.12648940809E+03  0.12907357413E+03  0.00000000000E+00 0. -1.
          1    1    1    2  502    0 -0.10322066251E+02 -0.15043832790E+03  0.16592618610E+04  0.16660996846E+04  0.00000000000E+00 0. -1.
         22    1    3    3    0    0  0.18124937729E+01  0.14128031284E+03  0.39632480329E+03  0.42075736670E+03  0.00000000000E+00 0.  1.
         22    1    3    3    0    0 -0.10869203221E+02 -0.77203804197E+01  0.26863001095E+03  0.26896064142E+03  0.00000000000E+00 0.  1.
</event>
<event>
 7    1  0.6152634E-006  0.1424907E+03  0.7818608E-02  0.1210493E+00
          2   -1    0    0  502    0  0.00000000000E+00  0.00000000000E+00  0.11593542578E+04  0.11593542578E+04  0.00000000000E+00 0. -1.
          1   -1    0    0  501    0 -0.00000000000E+00 -0.00000000000E+00 -0.69441189243E+03  0.69441189243E+03  0.00000000000E+00 0. -1.
         25    2    1    2    0    0  0.15054187326E+02 -0.15295839040E+02 -0.87052891588E+02  0.15382674556E+03  0.12499548179E+03 0.  0.
          2    1    1    2  501    0 -0.85532192782E+02 -0.11396425760E+03 -0.56020220429E+03  0.57803989283E+03  0.00000000000E+00 0. -1.
          1    1    1    2  502    0  0.70478005456E+02  0.12926009664E+03  0.11121974612E+04  0.11218995118E+04  0.00000000000E+00 0. -1.
         22    1    3    3    0    0 -0.55085062240E+02 -0.24323714716E+00 -0.37319764477E+02  0.66537117964E+02  0.00000000000E+00 0.  1.
         22    1    3    3    0    0  0.70139249566E+02 -0.15052601893E+02 -0.49733127111E+02  0.87289627595E+02  0.00000000000E+00 0.  1.
</event>
<event>
 7    1  0.6152634E-006  0.3946769E+02  0.7818608E-02  0.1577350E+00
          2   -1    0    0  502    0  0.00000000000E+00  0.00000000000E+00  0.11719236171E+04  0.11719236171E+04  0.00000000000E+00 0. -1.
          1   -1    0    0  501    0 -0.00000000000E+00 -0.00000000000E+00 -0.30893353827E+03  0.30893353827E+03  0.00000000000E+00 0. -1.
         25    2    1    2    0    0  0.33830279329E+02  0.53181218814E+02 -0.14556163229E+03  0.20195431351E+03  0.12499850446E+03 0.  0.
          2    1    1    2  501    0 -0.18024624767E+02 -0.32681353865E+02 -0.13244976733E+03  0.13760777178E+03  0.00000000000E+00 0. -1.
          1    1    1    2  502    0 -0.15805654562E+02 -0.20499864949E+02  0.11410014784E+04  0.11412950701E+04  0.00000000000E+00 0. -1.
         22    1    3    3    0    0 -0.22636546002E+02 -0.30999874304E+02 -0.45373248891E+02  0.59431785575E+02  0.00000000000E+00 0.  1.
         22    1    3    3    0    0  0.56466825331E+02  0.84181093117E+02 -0.10018838339E+03  0.14252252793E+03  0.00000000000E+00 0.  1.
</event>
<event>
 7    1  0.6152634E-006  0.9102100E+02  0.7818608E-02  0.1441252E+00
          2   -1    0    0  502    0  0.00000000000E+00  0.00000000000E+00  0.18523528201E+04  0.18523528201E+04  0.00000000000E+00 0. -1.
          1   -1    0    0  501    0 -0.00000000000E+00 -0.00000000000E+00 -0.53026844538E+03  0.53026844538E+03  0.00000000000E+00 0. -1.
         25    2    1    2    0    0  0.20609673280E+02 -0.62924645888E+02  0.30504903850E+03  0.33625058838E+03  0.12500109040E+03 0.  0.
          2    1    1    2  501    0 -0.97149841679E+00 -0.28297764031E+02 -0.51285563891E+03  0.51363665525E+03  0.00000000000E+00 0. -1.
          1    1    1    2  502    0 -0.19638174863E+02  0.91222409919E+02  0.15298909751E+04  0.15327340218E+04  0.00000000000E+00 0. -1.
         22    1    3    3    0    0  0.36868120454E+02 -0.33587037629E+02  0.29778369095E+03  0.30193124051E+03  0.00000000000E+00 0.  1.
         22    1    3    3    0    0 -0.16258447174E+02 -0.29337608259E+02  0.72653475551E+01  0.34319347866E+02  0.00000000000E+00 0.  1.
</event>
<event>
 7    1  0.6152634E-006  0.5166115E+02  0.7818608E-02  0.1470738E+00
          2   -1    0    0  502    0  0.00000000000E+00  0.00000000000E+00  0.21009325215E+04  0.21009325215E+04  0.00000000000E+00 0. -1.
          1   -1    0    0  501    0 -0.00000000000E+00 -0.00000000000E+00 -0.82480026973E+01  0.82480026973E+01  0.00000000000E+00 0. -1.
         25    2    1    2    0    0  0.56222104396E+01 -0.14350978209E+02  0.13461283944E+04  0.13520075729E+04  0.12500105327E+03 0.  0.
          2    1    1    2  501    0  0.49584385967E+02  0.14500468678E+02  0.16251939733E+03  0.17053278111E+03  0.00000000000E+00 0. -1.
          1    1    1    2  502    0 -0.55206596407E+02 -0.14949046901E+00  0.58403672706E+03  0.58664017011E+03  0.00000000000E+00 0. -1.
         22    1    3    3    0    0  0.89812150259E+00 -0.66100896121E+02  0.51010532217E+03  0.51437104778E+03  0.00000000000E+00 0. -1.
         22    1    3    3    0    0  0.47240889370E+01  0.51749917912E+02  0.83602307221E+03  0.83763652517E+03  0.00000000000E+00 0. -1.
</event>
<event>
 7    1  0.6152634E-006  0.1285599E+03  0.7818608E-02  0.1325536E+00
          2   -1    0    0  502    0  0.00000000000E+00  0.00000000000E+00  0.78649691938E+02  0.78649691938E+02  0.00000000000E+00 0. -1.
          1   -1    0    0  501    0 -0.00000000000E+00 -0.00000000000E+00 -0.10632699378E+04  0.10632699378E+04  0.00000000000E+00 0. -1.
         25    2    1    2    0    0  0.71433009246E+01 -0.92078994806E+02 -0.30717210273E+03  0.34425263950E+03  0.12500244426E+03 0.  0.
          2    1    1    2  501    0  0.31954253880E+02 -0.40199489716E+02 -0.65607939473E+03  0.65808604719E+03  0.00000000000E+00 0. -1.
          1    1    1    2  502    0 -0.39097554805E+02  0.13227848452E+03 -0.21368748414E+02  0.13958094307E+03  0.00000000000E+00 0. -1.
         22    1    3    3    0    0 -0.40308909849E+02 -0.51681796915E+02 -0.25403876407E+03  0.26235759947E+03  0.00000000000E+00 0. -1.
         22    1    3    3    0    0  0.47452210773E+02 -0.40397197891E+02 -0.53133338661E+02  0.81895040033E+02  0.00000000000E+00 0. -1.
</event>
<event>
 7    1  0.6152634E-006  0.9377294E+02  0.7818608E-02  0.1359349E+00
          2   -1    0    0  502    0  0.00000000000E+00  0.00000000000E+00  0.28691180654E+04  0.28691180654E+04  0.00000000000E+00 0. -1.
          1   -1    0    0  501    0 -0.00000000000E+00 -0.00000000000E+00 -0.16447592798E+04  0.16447592798E+04  0.00000000000E+00 0. -1.
         25    2    1    2    0    0 -0.46409892043E+02  0.22271484976E+02  0.21568374085E+03  0.25454819440E+03  0.12500164032E+03 0.  0.
          2    1    1    2  501    0 -0.16727419760E+02  0.49850291718E+02 -0.16240293618E+04  0.16248803729E+04  0.00000000000E+00 0. -1.
          1    1    1    2  502    0  0.63137311804E+02 -0.72121776694E+02  0.26327044065E+04  0.26344487778E+04  0.00000000000E+00 0. -1.
         22    1    3    3    0    0 -0.89569412853E+02  0.20280419992E+02  0.14111348726E+03  0.16836564804E+03  0.00000000000E+00 0. -1.
         22    1    3    3    0    0  0.43159520810E+02  0.19910649840E+01  0.74570253586E+02  0.86182546355E+02  0.00000000000E+00 0. -1.
</event>
<event>
 7    1  0.6152634E-006  0.7936322E+02  0.7818608E-02  0.1485396E+00
          2   -1    0    0  502    0  0.00000000000E+00  0.00000000000E+00  0.75726497824E+02  0.75726497824E+02  0.00000000000E+00 0. -1.
          1   -1    0    0  501    0 -0.00000000000E+00 -0.00000000000E+00 -0.12243865874E+04  0.12243865874E+04  0.00000000000E+00 0. -1.
         25    2    1    2    0    0  0.64708945621E+02  0.22118124163E+02 -0.60048244187E+03  0.61715521743E+03  0.12499976138E+03 0.  0.
          2    1    1    2  501    0 -0.83293371420E+02 -0.75745459448E+01 -0.61055962549E+03  0.61626148326E+03  0.00000000000E+00 0. -1.
          1    1    1    2  502    0  0.18584425799E+02 -0.14543578218E+02  0.62381977817E+02  0.66696384505E+02  0.00000000000E+00 0. -1.
         22    1    3    3    0    0  0.77925992780E+02  0.22621669609E+02 -0.59826660339E+03  0.60374425796E+03  0.00000000000E+00 0.  1.
         22    1    3    3    0    0 -0.13217047159E+02 -0.50354544622E+00 -0.22158384751E+01  0.13410959465E+02  0.00000000000E+00 0.  1.
</event>
<event>
 7    1  0.6152634E-006  0.2914887E+03  0.7818608E-02  0.1262900E+00
          2   -1    0    0  502    0  0.00000000000E+00  0.00000000000E+00  0.11009227033E+04  0.11009227033E+04  0.00000000000E+00 0. -1.
          1   -1    0    0  501    0 -0.00000000000E+00 -0.00000000000E+00 -0.91356951271E+03  0.91356951271E+03  0.00000000000E+00 0. -1.
         25    2    1    2    0    0  0.13192964815E+03  0.26140604058E+03  0.11448910522E+03  0.33833589536E+03  0.12499949106E+03 0.  0.
          2    1    1    2  501    0 -0.37817285450E+02  0.14699862535E+02 -0.77677640917E+03  0.77783534433E+03  0.00000000000E+00 0. -1.
          1    1    1    2  502    0 -0.94112362704E+02 -0.27610590311E+03  0.84964049456E+03  0.89832097635E+03  0.00000000000E+00 0. -1.
         22    1    3    3    0    0  0.94937759386E+02  0.10300062866E+03  0.10560287890E+03  0.17542598351E+03  0.00000000000E+00 0.  1.
         22    1    3    3    0    0  0.36991888769E+02  0.15840541192E+03  0.88862263278E+01  0.16290991185E+03  0.00000000000E+00 0.  1.
</event>
<event>
 7    1  0.6152634E-006  0.1136392E+03  0.7818608E-02  0.1362422E+00
          2   -1    0    0  502    0  0.00000000000E+00  0.00000000000E+00  0.15793139255E+04  0.15793139255E+04  0.00000000000E+00 0. -1.
          1   -1    0    0  501    0 -0.00000000000E+00 -0.00000000000E+00 -0.37561411976E+03  0.37561411976E+03  0.00000000000E+00 0. -1.
         25    2    1    2    0    0 -0.58284662775E+02  0.13837247100E+03  0.54221365987E+03  0.57633805303E+03  0.12500342306E+03 0.  0.
          2    1    1    2  501    0  0.59594493695E+02 -0.96107899493E+02 -0.34918224191E+03  0.36703742328E+03  0.00000000000E+00 0. -1.
          1    1    1    2  502    0 -0.13098309198E+01 -0.42264571509E+02  0.10106683877E+04  0.10115525689E+04  0.00000000000E+00 0. -1.
         22    1    3    3    0    0 -0.59043773141E+02  0.13935490679E+03  0.54897922109E+03  0.56945951777E+03  0.00000000000E+00 0. -1.
         22    1    3    3    0    0  0.75911036567E+00 -0.98243578575E+00 -0.67655612230E+01  0.68785352570E+01  0.00000000000E+00 0. -1.
</event>
<event>
 7    1  0.6152634E-006  0.1878061E+03  0.7818608E-02  0.1378394E+00
          2   -1    0    0  502    0  0.00000000000E+00  0.00000000000E+00  0.16154059759E+04  0.16154059759E+04  0.00000000000E+00 0. -1.
          1   -1    0    0  501    0 -0.00000000000E+00 -0.00000000000E+00 -0.76758157921E+03  0.76758157921E+03  0.00000000000E+00 0. -1.
         25    2    1    2    0    0  0.40535961503E+02  0.16817637118E+03  0.11086661537E+04  0.11290285919E+04  0.12505384813E+03 0.  0.
          2    1    1    2  501    0 -0.60745062035E+02 -0.17788220360E+03 -0.74547495972E+03  0.76880748987E+03  0.00000000000E+00 0. -1.
          1    1    1    2  502    0  0.20209100532E+02  0.97058324179E+01  0.48463320264E+03  0.48515147329E+03  0.00000000000E+00 0. -1.
         22    1    3    3    0    0  0.68342904554E+02  0.40633798990E+02  0.32633834014E+03  0.33588475772E+03  0.00000000000E+00 0. -1.
         22    1    3    3    0    0 -0.27806943051E+02  0.12754257219E+03  0.78232781359E+03  0.79314383419E+03  0.00000000000E+00 0. -1.
</event>
<event>
 7    1  0.6152634E-006  0.1530570E+03  0.7818608E-02  0.1286106E+00
          2   -1    0    0  502    0  0.00000000000E+00  0.00000000000E+00  0.41256393896E+03  0.41256393896E+03  0.00000000000E+00 0. -1.
          1   -1    0    0  501    0 -0.00000000000E+00 -0.00000000000E+00 -0.67950951472E+03  0.67950951472E+03  0.00000000000E+00 0. -1.
         25    2    1    2    0    0 -0.19399798155E+03  0.72704696358E+02  0.27297753748E+02  0.24349812335E+03  0.12499991598E+03 0.  0.
          2    1    1    2  501    0  0.14512150364E+03 -0.34821939725E+02 -0.55802756402E+03  0.57763966321E+03  0.00000000000E+00 0. -1.
          1    1    1    2  502    0  0.48876477918E+02 -0.37882756633E+02  0.26378423451E+03  0.27093566712E+03  0.00000000000E+00 0. -1.
         22    1    3    3    0    0 -0.74020088693E+02  0.11952079088E+02  0.69819833334E+02  0.10245308610E+03  0.00000000000E+00 0. -1.
         22    1    3    3    0    0 -0.11997789286E+03  0.60752617270E+02 -0.42522079586E+02  0.14104503725E+03  0.00000000000E+00 0. -1.
</event>
<event>
 7    1  0.6152634E-006  0.1507106E+03  0.7818608E-02  0.1322120E+00
          2   -1    0    0  502    0  0.00000000000E+00  0.00000000000E+00  0.80743330372E+02  0.80743330372E+02  0.00000000000E+00 0. -1.
          1   -1    0    0  501    0 -0.00000000000E+00 -0.00000000000E+00 -0.18598378245E+04  0.18598378245E+04  0.00000000000E+00 0. -1.
         25    2    1    2    0    0 -0.21403202296E+02 -0.17245806685E+03 -0.41418647318E+03  0.46623474742E+03  0.12499809298E+03 0.  0.
          2    1    1    2  501    0 -0.28600311048E+02  0.34941561258E+02 -0.13207239225E+04  0.13214955808E+04  0.00000000000E+00 0. -1.
          1    1    1    2  502    0  0.50003513345E+02  0.13751650560E+03 -0.44184098420E+02  0.15285082666E+03  0.00000000000E+00 0. -1.
         22    1    3    3    0    0 -0.28435209822E+01  0.19275363827E+02 -0.59589087391E+02  0.62693577011E+02  0.00000000000E+00 0.  1.
         22    1    3    3    0    0 -0.18559681314E+02 -0.19173343068E+03 -0.35459738579E+03  0.40354117041E+03  0.00000000000E+00 0.  1.
</event>
<event>
 7    1  0.1246437E-005  0.6104733E+02  0.7818608E-02  0.1427592E+00
          2   -1    0    0  502    0  0.00000000000E+00  0.00000000000E+00  0.16680249976E+04  0.16680249976E+04  0.00000000000E+00 0. -1.
          1   -1    0    0  501    0 -0.00000000000E+00 -0.00000000000E+00 -0.10218768961E+04  0.10218768961E+04  0.00000000000E+00 0. -1.
         25    2    1    2    0    0  0.11794981840E+01 -0.22412434518E+02 -0.47757883417E+03  0.49416695988E+03  0.12496292630E+03 0.  0.
          2    1    1    2  501    0  0.41816215642E+02 -0.20997358658E+02 -0.53441907584E+03  0.53646363677E+03  0.00000000000E+00 0. -1.
          1    1    1    2  502    0 -0.42995713826E+02  0.43409793177E+02  0.16581460115E+04  0.16592712970E+04  0.00000000000E+00 0. -1.
         22    1    3    3    0    0 -0.53187420152E+02  0.12944190455E+02 -0.30356795636E+03  0.30846386799E+03  0.00000000000E+00 0. -1.
         22    1    3    3    0    0  0.54366918336E+02 -0.35356624973E+02 -0.17401087781E+03  0.18570309189E+03  0.00000000000E+00 0. -1.
</event>
<event>
 7    1  0.6152634E-006  0.3920950E+02  0.7818608E-02  0.1540619E+00
          2   -1    0    0  502    0  0.00000000000E+00  0.00000000000E+00  0.22824804275E+04  0.22824804275E+04  0.00000000000E+00 0. -1.
          1   -1    0    0  501    0 -0.00000000000E+00 -0.00000000000E+00 -0.17123014377E+02  0.17123014377E+02  0.00000000000E+00 0. -1.
         25    2    1    2    0    0 -0.63674935017E+02  0.12449809397E+02  0.50000239222E+03  0.51945991799E+03  0.12500687609E+03 0.  0.
          2    1    1    2  501    0  0.36617246802E+02  0.62628374202E+01  0.40433190500E+02  0.54908002968E+02  0.00000000000E+00 0. -1.
          1    1    1    2  502    0  0.27057688214E+02 -0.18712646817E+02  0.17249218304E+04  0.17252355209E+04  0.00000000000E+00 0. -1.
         22    1    3    3    0    0 -0.77627428907E+02  0.55281407726E+02  0.31857651061E+03  0.33252525448E+03  0.00000000000E+00 0. -1.
         22    1    3    3    0    0  0.13952493890E+02 -0.42831598329E+02  0.18142588162E+03  0.18693466351E+03  0.00000000000E+00 0. -1.
</event>
<event>
 7    1  0.6152634E-006  0.5992258E+02  0.7818608E-02  0.1434090E+00
          2   -1    0    0  502    0  0.00000000000E+00  0.00000000000E+00  0.12849436767E+03  0.12849436767E+03  0.00000000000E+00 0. -1.
          1   -1    0    0  501    0 -0.00000000000E+00 -0.00000000000E+00 -0.44595696079E+03  0.44595696079E+03  0.00000000000E+00 0. -1.
         25    2    1    2    0    0  0.75618953746E+02  0.10093653595E+00 -0.10598794620E+03  0.18049103781E+03  0.12500133454E+03 0.  0.
          2    1    1    2  501    0 -0.47767749932E+02 -0.35930940848E+02 -0.29387361595E+03  0.29989080111E+03  0.00000000000E+00 0. -1.
          1    1    1    2  502    0 -0.27851203814E+02  0.35830004312E+02  0.82398969029E+02  0.94069489527E+02  0.00000000000E+00 0. -1.
         22    1    3    3    0    0  0.50526145751E+02  0.40073311833E+02 -0.20229094204E-01  0.64488465131E+02  0.00000000000E+00 0.  1.
         22    1    3    3    0    0  0.25092807995E+02 -0.39972375297E+02 -0.10596771711E+03  0.11600257268E+03  0.00000000000E+00 0.  1.
</event>
<event>
 7    1  0.6152634E-006  0.6931565E+02  0.7818608E-02  0.1421304E+00
          2   -1    0    0  502    0  0.00000000000E+00  0.00000000000E+00  0.10844798086E+04  0.10844798086E+04  0.00000000000E+00 0. -1.
          1   -1    0    0  501    0 -0.00000000000E+00 -0.00000000000E+00 -0.21675090136E+03  0.21675090136E+03  0.00000000000E+00 0. -1.
         25    2    1    2    0    0  0.73226975902E+02  0.69651762053E+02  0.77563023741E+02  0.17848175897E+03  0.12500463062E+03 0.  0.
          2    1    1    2  501    0 -0.10370691194E+02 -0.41976571221E+02 -0.16222322325E+03  0.16788674137E+03  0.00000000000E+00 0. -1.
          1    1    1    2  502    0 -0.62856284708E+02 -0.27675190832E+02  0.95238910679E+03  0.95486220967E+03  0.00000000000E+00 0. -1.
         22    1    3    3    0    0  0.11147624789E+02  0.29855280113E+02  0.97101204092E+02  0.10219711897E+03  0.00000000000E+00 0.  1.
         22    1    3    3    0    0  0.62079351113E+02  0.39796481940E+02 -0.19538180351E+02  0.76284640006E+02  0.00000000000E+00 0.  1.
</event>
<event>
 7    1  0.6152634E-006  0.2084670E+03  0.7818608E-02  0.1264064E+00
          2   -1    0    0  502    0  0.00000000000E+00  0.00000000000E+00  0.13229092341E+03  0.13229092341E+03  0.00000000000E+00 0. -1.
          1   -1    0    0  501    0 -0.00000000000E+00 -0.00000000000E+00 -0.21374950226E+04  0.21374950226E+04  0.00000000000E+00 0. -1.
         25    2    1    2    0    0 -0.85804457160E+02  0.17390079340E+03 -0.43753693868E+03  0.49463756462E+03  0.12499542718E+03 0.  0.
          2    1    1    2  501    0  0.43764569499E+02  0.35083289390E+02 -0.15608616823E+04  0.15618691898E+04  0.00000000000E+00 0. -1.
          1    1    1    2  502    0  0.42039887661E+02 -0.20898408279E+03 -0.68054781634E+01  0.21327919154E+03  0.00000000000E+00 0. -1.
         22    1    3    3    0    0 -0.28671834401E+02  0.15568564272E+03 -0.23450999512E+03  0.28293997818E+03  0.00000000000E+00 0. -1.
         22    1    3    3    0    0 -0.57132622759E+02  0.18215150672E+02 -0.20302694355E+03  0.21169758644E+03  0.00000000000E+00 0. -1.
</event>
<event>
 7    1  0.6152634E-006  0.3602543E+02  0.7818608E-02  0.1589270E+00
          2   -1    0    0  502    0  0.00000000000E+00  0.00000000000E+00  0.45263134973E+03  0.45263134973E+03  0.00000000000E+00 0. -1.
          1   -1    0    0  501    0 -0.00000000000E+00 -0.00000000000E+00 -0.57967806338E+02  0.57967806338E+02  0.00000000000E+00 0. -1.
         25    2    1    2    0    0 -0.41413871381E+02 -0.25816312589E+01  0.73342241807E+02  0.15074260518E+03  0.12498989967E+03 0.  0.
          2    1    1    2  501    0  0.29717190919E+02 -0.21035722546E+02 -0.10359752141E+01  0.36423705246E+02  0.00000000000E+00 0. -1.
          1    1    1    2  502    0  0.11696680461E+02  0.23617353805E+02  0.32235727680E+03  0.32343284564E+03  0.00000000000E+00 0. -1.
         22    1    3    3    0    0  0.22625712611E+02 -0.22547862962E+02  0.77204502088E+02  0.83551565742E+02  0.00000000000E+00 0. -1.
         22    1    3    3    0    0 -0.64039583992E+02  0.19966231704E+02 -0.38622602808E+01  0.67191039438E+02  0.00000000000E+00 0. -1.
</event>
<event>
 7    1  0.6152634E-006  0.1432740E+03  0.7818608E-02  0.1242592E+00
          2   -1    0    0  502    0  0.00000000000E+00  0.00000000000E+00  0.70786093592E+03  0.70786093592E+03  0.00000000000E+00 0. -1.
          1   -1    0    0  501    0 -0.00000000000E+00 -0.00000000000E+00 -0.17025545805E+03  0.17025545805E+03  0.00000000000E+00 0. -1.
         25    2    1    2    0    0  0.11057372749E+03 -0.33297395640E+01  0.19173031480E+02  0.16801877958E+03  0.12500027512E+03 0.  0.
          2    1    1    2  501    0 -0.15954479391E+03  0.91687270626E+02  0.21518332197E+01  0.18402643083E+03  0.00000000000E+00 0. -1.
          1    1    1    2  502    0  0.48971066419E+02 -0.88357531062E+02  0.51628061317E+03  0.52607118357E+03  0.00000000000E+00 0. -1.
         22    1    3    3    0    0  0.10860522869E+03  0.41925502672E+01 -0.34310355870E+02  0.11397312708E+03  0.00000000000E+00 0. -1.
         22    1    3    3    0    0  0.19684987984E+01 -0.75222898311E+01  0.53483387350E+02  0.54045652501E+02  0.00000000000E+00 0. -1.
</event>
<event>
 7    1  0.6152634E-006  0.1603158E+03  0.7818608E-02  0.1214615E+00
          2   -1    0    0  502    0  0.00000000000E+00  0.00000000000E+00  0.10563800207E+03  0.10563800207E+03  0.00000000000E+00 0. -1.
          1   -1    0    0  501    0 -0.00000000000E+00 -0.00000000000E+00 -0.18464153482E+04  0.18464153482E+04  0.00000000000E+00 0. -1.
         25    2    1    2    0    0 -0.21459235522E+03 -0.42717902788E+02 -0.12585955333E+03  0.28169571371E+03  0.12504858984E+03 0.  0.
          2    1    1    2  501    0  0.11610958007E+03 -0.32611505529E+02 -0.14881702305E+04  0.14930490882E+04  0.00000000000E+00 0. -1.
          1    1    1    2  502    0  0.98482775148E+02  0.75329408317E+02 -0.12674756224E+03  0.17730854827E+03  0.00000000000E+00 0. -1.
         22    1    3    3    0    0 -0.21944215945E+02 -0.52964347316E+02 -0.43334959383E+02  0.71865773528E+02  0.00000000000E+00 0.  1.
         22    1    3    3    0    0 -0.19264813927E+03  0.10246444528E+02 -0.82524593943E+02  0.20982994018E+03  0.00000000000E+00 0.  1.
</event>
<event>
 7    1  0.6152634E-006  0.1925202E+03  0.7818608E-02  0.1322247E+00
          2   -1    0    0  502    0  0.00000000000E+00  0.00000000000E+00  0.18917373287E+04  0.18917373287E+04  0.00000000000E+00 0. -1.
          1   -1    0    0  501    0 -0.00000000000E+00 -0.00000000000E+00 -0.95017262956E+03  0.95017262956E+03  0.00000000000E+00 0. -1.
         25    2    1    2    0    0 -0.17527588575E+03 -0.24926214042E+02  0.15658852695E+03  0.26737251348E+03  0.12500056769E+03 0.  0.
          2    1    1    2  501    0  0.18415172056E+03  0.59100532474E+02 -0.88414094108E+03  0.90504692300E+03  0.00000000000E+00 0. -1.
          1    1    1    2  502    0 -0.88758348087E+01 -0.34174318432E+02  0.16691171132E+04  0.16694905217E+04  0.00000000000E+00 0. -1.
         22    1    3    3    0    0 -0.31998098349E+02 -0.65937526236E+01  0.11129614232E+03  0.11599218580E+03  0.00000000000E+00 0. -1.
         22    1    3    3    0    0 -0.14327778740E+03 -0.18332461418E+02  0.45292384630E+02  0.15138032768E+03  0.00000000000E+00 0. -1.
</event>
<event>
 7    1  0.6152634E-006  0.5609337E+02  0.7818608E-02  0.1431042E+00
          2   -1    0    0  502    0  0.00000000000E+00  0.00000000000E+00  0.24714677482E+03  0.24714677482E+03  0.00000000000E+00 0. -1.
          1   -1    0    0  501    0 -0.00000000000E+00 -0.00000000000E+00 -0.36559364213E+04  0.36559364213E+04  0.00000000000E+00 0. -1.
         25    2    1    2    0    0 -0.94540700366E+01  0.15830739133E+02 -0.13013550196E+04  0.13074745028E+04  0.12499878607E+03 0.  0.
          2    1    1    2  501    0 -0.12172123758E+02 -0.60477272164E+02 -0.23485918174E+04  0.23494018783E+04  0.00000000000E+00 0. -1.
          1    1    1    2  502    0  0.21626193795E+02  0.44646533031E+02  0.24115719060E+03  0.24620681499E+03  0.00000000000E+00 0. -1.
         22    1    3    3    0    0 -0.44579493394E+02  0.54428282773E+01 -0.11765113854E+04  0.11773682498E+04  0.00000000000E+00 0.  1.
         22    1    3    3    0    0  0.35125423358E+02  0.10387910856E+02 -0.12484363422E+03  0.13010625298E+03  0.00000000000E+00 0.  1.
</event>
<event>
 7    1  0.6152634E-006  0.3279158E+03  0.7818608E-02  0.1121252E+00
          2   -1    0    0  502    0  0.00000000000E+00  0.00000000000E+00  0.93321136179E+03  0.93321136179E+03  0.00000000000E+00 0. -1.
          1   -1    0    0  501    0 -0.00000000000E+00 -0.00000000000E+00 -0.23367144425E+04  0.23367144425E+04  0.00000000000E+00 0. -1.
         25    2    1    2    0    0  0.10812133116E+03 -0.45671339497E+03 -0.44124602259E+03  0.65620288680E+03  0.12500731496E+03 0.  0.
          2    1    1    2  501    0  0.33468093728E+02  0.16920329880E+03 -0.17524995350E+04  0.17609669190E+04  0.00000000000E+00 0. -1.
          1    1    1    2  502    0 -0.14158942489E+03  0.28751009617E+03  0.79024247690E+03  0.85275599848E+03  0.00000000000E+00 0. -1.
         22    1    3    3    0    0 -0.22725693338E+02 -0.15744513579E+03 -0.14472156285E+03  0.21505757061E+03  0.00000000000E+00 0. -1.
         22    1    3    3    0    0  0.13084702449E+03 -0.29926825918E+03 -0.29652445973E+03  0.44114531618E+03  0.00000000000E+00 0. -1.
</event>
<event>
 7    1  0.6152634E-006  0.5704156E+02  0.7818608E-02  0.1433417E+00
          2   -1    0    0  502    0  0.00000000000E+00  0.00000000000E+00  0.24616882502E+04  0.24616882502E+04  0.00000000000E+00 0. -1.
          1   -1    0    0  501    0 -0.00000000000E+00 -0.00000000000E+00 -0.45183879496E+02  0.45183879496E+02  0.00000000000E+00 0. -1.
         25    2    1    2    0    0  0.13492312195E+02  0.63289462777E+02  0.35723205348E+03  0.38396033360E+03  0.12499279643E+03 0.  0.
          2    1    1    2  501    0  0.31968369107E+02 -0.48146967137E+02 -0.50680072746E+01  0.58015444199E+02  0.00000000000E+00 0. -1.
          1    1    1    2  502    0 -0.45460681302E+02 -0.15142495640E+02  0.20643403245E+04  0.20648963519E+04  0.00000000000E+00 0. -1.
         22    1    3    3    0    0  0.16016332745E+02  0.64824222007E+02  0.36737600974E+03  0.37339501229E+03  0.00000000000E+00 0. -1.
         22    1    3    3    0    0 -0.25240205498E+01 -0.15347592300E+01 -0.10143956263E+02  0.10565321306E+02  0.00000000000E+00 0. -1.
</event>
<event>
 7    1  0.6152634E-006  0.6095853E+02  0.7818608E-02  0.1395305E+00
          2   -1    0    0  502    0  0.00000000000E+00  0.00000000000E+00  0.26885919953E+03  0.26885919953E+03  0.00000000000E+00 0. -1.
          1   -1    0    0  501    0 -0.00000000000E+00 -0.00000000000E+00 -0.30689754190E+03  0.30689754190E+03  0.00000000000E+00 0. -1.
         25    2    1    2    0    0 -0.21639008686E+02 -0.11230816922E+02 -0.11018257283E+03  0.16842637150E+03  0.12503145730E+03 0.  0.
          2    1    1    2  501    0 -0.21963149757E+02  0.56110936029E+02 -0.15785858550E+03  0.16896789667E+03  0.00000000000E+00 0. -1.
          1    1    1    2  502    0  0.43602158443E+02 -0.44880119107E+02  0.23000281596E+03  0.23836247327E+03  0.00000000000E+00 0. -1.
         22    1    3    3    0    0  0.45073894020E+02 -0.30360749745E+02 -0.68611379463E+02  0.87526866955E+02  0.00000000000E+00 0.  1.
         22    1    3    3    0    0 -0.66712902706E+02  0.19129932823E+02 -0.41571193364E+02  0.80899504541E+02  0.00000000000E+00 0.  1.
</event>
<event>
 7    1  0.6152634E-006  0.8792046E+02  0.7818608E-02  0.1435338E+00
          2   -1    0    0  502    0  0.00000000000E+00  0.00000000000E+00  0.43921652009E+03  0.43921652009E+03  0.00000000000E+00 0. -1.
          1   -1    0    0  501    0 -0.00000000000E+00 -0.00000000000E+00 -0.25822989341E+03  0.25822989341E+03  0.00000000000E+00 0. -1.
         25    2    1    2    0    0 -0.40869236503E+02 -0.56791069333E+02  0.78236410972E+02  0.16322264409E+03  0.12500070198E+03 0.  0.
          2    1    1    2  501    0  0.28566634395E+02  0.84853502070E+02 -0.20565549240E+03  0.22429969008E+03  0.00000000000E+00 0. -1.
          1    1    1    2  502    0  0.12302602108E+02 -0.28062432736E+02  0.30840570811E+03  0.30992407933E+03  0.00000000000E+00 0. -1.
         22    1    3    3    0    0  0.30493020003E+02 -0.63449318032E+02  0.28310935027E+02  0.75875880685E+02  0.00000000000E+00 0.  1.
         22    1    3    3    0    0 -0.71362256506E+02  0.66582486981E+01  0.49925475945E+02  0.87346763407E+02  0.00000000000E+00 0.  1.
</event>
<event>
 7    1  0.6152634E-006  0.1034304E+03  0.7818608E-02  0.1277177E+00
          2   -1    0    0  502    0  0.00000000000E+00  0.00000000000E+00  0.93590446532E+03  0.93590446532E+03  0.00000000000E+00 0. -1.
          1   -1    0    0  501    0 -0.00000000000E+00 -0.00000000000E+00 -0.16333497518E+04  0.16333497518E+04  0.00000000000E+00 0. -1.
         25    2    1    2    0    0  0.50956364692E+02 -0.26395631117E+02 -0.12544205513E+03  0.18618466118E+03  0.12504294629E+03 0.  0.
          2    1    1    2  501    0  0.18616179870E+02  0.10292998986E+03 -0.14727219013E+04  0.14764318282E+04  0.00000000000E+00 0. -1.
          1    1    1    2  502    0 -0.69572544562E+02 -0.76534358741E+02  0.90071866989E+03  0.90663772772E+03  0.00000000000E+00 0. -1.
         22    1    3    3    0    0  0.37473014322E+02  0.14040500202E+01  0.16463706231E+02  0.40954264512E+02  0.00000000000E+00 0.  1.
         22    1    3    3    0    0  0.13483350370E+02 -0.27799681137E+02 -0.14190576136E+03  0.14523039666E+03  0.00000000000E+00 0.  1.
</event>
<event>
 7    1  0.6152634E-006  0.4153074E+02  0.7818608E-02  0.1503544E+00
          2   -1    0    0  502    0  0.00000000000E+00  0.00000000000E+00  0.32637663980E+04  0.32637663980E+04  0.00000000000E+00 0. -1.
          1   -1    0    0  501    0 -0.00000000000E+00 -0.00000000000E+00 -0.14589190924E+02  0.14589190924E+02  0.00000000000E+00 0. -1.
         25    2    1    2    0    0  0.27540053351E+02 -0.18935807428E+02  0.32513510499E+03  0.34993465634E+03  0.12499763148E+03 0.  0.
          2    1    1    2  501    0 -0.32719053708E+02 -0.22609941830E+02  0.19286578414E+03  0.19692373304E+03  0.00000000000E+00 0. -1.
          1    1    1    2  502    0  0.51790003570E+01  0.41545749258E+02  0.27311763180E+04  0.27314971996E+04  0.00000000000E+00 0. -1.
         22    1    3    3    0    0 -0.29612317107E+02  0.38329482489E+02  0.12636116615E+03  0.13532620908E+03  0.00000000000E+00 0.  1.
         22    1    3    3    0    0  0.57152370458E+02 -0.57265289917E+02  0.19877393884E+03  0.21460844727E+03  0.00000000000E+00 0.  1.
</event>
<event>
 7    1  0.6152634E-006  0.7102522E+02  0.7818608E-02  0.1448349E+00
          2   -1    0    0  502    0  0.00000000000E+00  0.00000000000E+00  0.17326047786E+04  0.17326047786E+04  0.00000000000E+00 0. -1.
          1   -1    0    0  501    0 -0.00000000000E+00 -0.00000000000E+00 -0.10957933045E+03  0.10957933045E+03  0.00000000000E+00 0. -1.
         25    2    1    2    0    0 -0.43903876763E+02  0.36750681559E+02  0.19508833834E+02  0.13887397602E+03  0.12500889420E+03 0.  0.
          2    1    1    2  501    0  0.74766959570E+02 -0.21503230464E+02 -0.19277825398E+02  0.80150618936E+02  0.00000000000E+00 0. -1.
          1    1    1    2  502    0 -0.30863082806E+02 -0.15247451095E+02  0.16227944397E+04  0.16231595141E+04  0.00000000000E+00 0. -1.
         22    1    3    3    0    0 -0.60638207596E+02  0.32155281763E+02 -0.38242759820E+02  0.78571388205E+02  0.00000000000E+00 0.  1.
         22    1    3    3    0    0  0.16734330833E+02  0.45953997960E+01  0.57751593654E+02  0.60302587816E+02  0.00000000000E+00 0.  1.
</event>
<event>
 7    1  0.6152634E-006  0.6954426E+02  0.7818608E-02  0.1489175E+00
          2   -1    0    0  502    0  0.00000000000E+00  0.00000000000E+00  0.11698238080E+04  0.11698238080E+04  0.00000000000E+00 0. -1.
          1   -1    0    0  501    0 -0.00000000000E+00 -0.00000000000E+00 -0.62476561008E+03  0.62476561008E+03  0.00000000000E+00 0. -1.
         25    2    1    2    0    0  0.63722213471E+01  0.88648684188E+02  0.30969862944E+01  0.15342409728E+03  0.12502066984E+03 0.  0.
          2    1    1    2  501    0 -0.19853599877E+02 -0.66150303635E+02 -0.54727379784E+03  0.55161457369E+03  0.00000000000E+00 0. -1.
          1    1    1    2  502    0  0.13481378530E+02 -0.22498380553E+02  0.10892350094E+04  0.10895507471E+04  0.00000000000E+00 0. -1.
         22    1    3    3    0    0  0.57472616686E+02  0.21389955093E+02 -0.22247651161E+02  0.65234882002E+02  0.00000000000E+00 0. -1.
         22    1    3    3    0    0 -0.51100395339E+02  0.67258729095E+02  0.25344637456E+02  0.88189215277E+02  0.00000000000E+00 0. -1.
</event>
<event>
 7    1  0.6152634E-006  0.6009668E+02  0.7818608E-02  0.1506722E+00
          2   -1    0    0  502    0  0.00000000000E+00  0.00000000000E+00  0.32961174608E+04  0.32961174608E+04  0.00000000000E+00 0. -1.
          1   -1    0    0  501    0 -0.00000000000E+00 -0.00000000000E+00 -0.15679830051E+02  0.15679830051E+02  0.00000000000E+00 0. -1.
         25    2    1    2    0    0  0.33932457973E+02  0.10512795876E+02  0.42665670256E+03  0.44600752709E+03  0.12499936722E+03 0.  0.
          2    1    1    2  501    0  0.19876503724E+02  0.18117854860E+02  0.26183324589E+02  0.37535297408E+02  0.00000000000E+00 0. -1.
          1    1    1    2  502    0 -0.53808961697E+02 -0.28630650736E+02  0.28275976036E+04  0.28282544664E+04  0.00000000000E+00 0. -1.
         22    1    3    3    0    0 -0.88727772684E+01  0.19164471822E+02  0.38524654432E+03  0.38582496429E+03  0.00000000000E+00 0. -1.
         22    1    3    3    0    0  0.42805235242E+02 -0.86516759455E+01  0.41410158237E+02  0.60182562806E+02  0.00000000000E+00 0. -1.
</event>
<event>
 7    1  0.6152634E-006  0.9274014E+02  0.7818608E-02  0.1344039E+00
          2   -1    0    0  502    0  0.00000000000E+00  0.00000000000E+00  0.26772763402E+02  0.26772763402E+02  0.00000000000E+00 0. -1.
          1   -1    0    0  501    0 -0.00000000000E+00 -0.00000000000E+00 -0.11845370936E+04  0.11845370936E+04  0.00000000000E+00 0. -1.
         25    2    1    2    0    0  0.75759239825E+01  0.41814482448E+02 -0.73004516604E+03  0.74188728935E+03  0.12499984029E+03 0.  0.
          2    1    1    2  501    0  0.43371334217E+01  0.60410109516E+02 -0.29668579787E+03  0.30280464778E+03  0.00000000000E+00 0. -1.
          1    1    1    2  502    0 -0.11913057404E+02 -0.10222459196E+03 -0.13103336623E+03  0.16661791982E+03  0.00000000000E+00 0. -1.
         22    1    3    3    0    0  0.36409796023E+02 -0.21522282939E+02 -0.10840185408E+03  0.11636083481E+03  0.00000000000E+00 0.  1.
         22    1    3    3    0    0 -0.28833872040E+02  0.63336765387E+02 -0.62164331196E+03  0.62552645454E+03  0.00000000000E+00 0.  1.
</event>
<event>
 7    1  0.6152634E-006  0.6566069E+02  0.7818608E-02  0.1439390E+00
          2   -1    0    0  502    0  0.00000000000E+00  0.00000000000E+00  0.16368675900E+03  0.16368675900E+03  0.00000000000E+00 0. -1.
          1   -1    0    0  501    0 -0.00000000000E+00 -0.00000000000E+00 -0.24215034527E+04  0.24215034527E+04  0.00000000000E+00 0. -1.
         25    2    1    2    0    0 -0.62782650382E+02  0.31709495272E+02 -0.82989117176E+02  0.16570729349E+03  0.12499824105E+03 0.  0.
          2    1    1    2  501    0  0.65251014565E+02  0.80141619299E+01 -0.22934343784E+04  0.22943764228E+04  0.00000000000E+00 0. -1.
          1    1    1    2  502    0 -0.24683641828E+01 -0.39723657202E+02  0.11860680181E+03  0.12510649543E+03  0.00000000000E+00 0. -1.
         22    1    3    3    0    0  0.31425784717E+02 -0.15682825839E+02 -0.72289317331E+01  0.35857892094E+02  0.00000000000E+00 0. -1.
         22    1    3    3    0    0 -0.94208435099E+02  0.47392321111E+02 -0.75760185443E+02  0.12984940139E+03  0.00000000000E+00 0. -1.
</event>
<event>
 7    1  0.6152634E-006  0.2182808E+03  0.7818608E-02  0.1308619E+00
          2   -1    0    0  502    0  0.00000000000E+00  0.00000000000E+00  0.98892591745E+03  0.98892591745E+03  0.00000000000E+00 0. -1.
          1   -1    0    0  501    0 -0.00000000000E+00 -0.00000000000E+00 -0.11901014172E+04  0.11901014172E+04  0.00000000000E+00 0. -1.
         25    2    1    2    0    0 -0.22305783522E+03 -0.14754279516E+02  0.43096272532E+03  0.50132467832E+03  0.12500030346E+03 0.  0.
          2    1    1    2  501    0  0.21730811744E+03 -0.19976820398E+02 -0.11440019848E+04  0.11646297405E+04  0.00000000000E+00 0. -1.
          1    1    1    2  502    0  0.57497177786E+01  0.34731099914E+02  0.51186375967E+03  0.51307291589E+03  0.00000000000E+00 0. -1.
         22    1    3    3    0    0 -0.15606295110E+03  0.36726575735E+02  0.34681208311E+03  0.38207735743E+03  0.00000000000E+00 0.  1.
         22    1    3    3    0    0 -0.66994884122E+02 -0.51480855251E+02  0.84150642204E+02  0.11924732089E+03  0.00000000000E+00 0.  1.
</event>
<event>
 7    1  0.6152634E-006  0.7394744E+02  0.7818608E-02  0.1386103E+00
          2   -1    0    0  502    0  0.00000000000E+00  0.00000000000E+00  0.62069897251E+03  0.62069897251E+03  0.00000000000E+00 0. -1.
          1   -1    0    0  501    0 -0.00000000000E+00 -0.00000000000E+00 -0.18344409008E+04  0.18344409008E+04  0.00000000000E+00 0. -1.
         25    2    1    2    0    0  0.52851575642E+02 -0.85586271002E+02 -0.12544859182E+03  0.20366750918E+03  0.12499922511E+03 0.  0.
          2    1    1    2  501    0 -0.52157646343E+02  0.11818344330E+02 -0.16671129756E+04  0.16679705533E+04  0.00000000000E+00 0. -1.
          1    1    1    2  502    0 -0.69392929811E+00  0.73767926672E+02  0.57881963914E+03  0.58350181079E+03  0.00000000000E+00 0. -1.
         22    1    3    3    0    0  0.49179975506E+01  0.24721290832E+02 -0.63625400376E+02  0.68436251310E+02  0.00000000000E+00 0. -1.
         22    1    3    3    0    0  0.47933578091E+02 -0.11030756183E+03 -0.61823191440E+02  0.13523125787E+03  0.00000000000E+00 0. -1.
</event>
<event>
 7    1  0.6152634E-006  0.1276998E+03  0.7818608E-02  0.1322470E+00
          2   -1    0    0  502    0  0.00000000000E+00  0.00000000000E+00  0.18776434024E+04  0.18776434024E+04  0.00000000000E+00 0. -1.
          1   -1    0    0  501    0 -0.00000000000E+00 -0.00000000000E+00 -0.78868391355E+03  0.78868391355E+03  0.00000000000E+00 0. -1.
         25    2    1    2    0    0 -0.15386869009E+02 -0.84194574105E+02 -0.29200298409E+03  0.32896153679E+03  0.12499787169E+03 0.  0.
          2    1    1    2  501    0  0.31441304530E+02 -0.42821993208E+02 -0.47451351652E+03  0.47747812106E+03  0.00000000000E+00 0. -1.
          1    1    1    2  502    0 -0.16054435520E+02  0.12701656731E+03  0.18554759894E+04  0.18598876581E+04  0.00000000000E+00 0. -1.
         22    1    3    3    0    0  0.19983913441E+02 -0.38709875332E+02 -0.15068307623E+02  0.46096259493E+02  0.00000000000E+00 0.  1.
         22    1    3    3    0    0 -0.35370782450E+02 -0.45484698773E+02 -0.27693467646E+03  0.28286527730E+03  0.00000000000E+00 0.  1.
</event>
<event>
 7    1  0.6152634E-006  0.3257338E+02  0.7818608E-02  0.1643317E+00
          2   -1    0    0  502    0  0.00000000000E+00  0.00000000000E+00  0.96726686642E+03  0.96726686642E+03  0.00000000000E+00 0. -1.
          1   -1    0    0  501    0 -0.00000000000E+00 -0.00000000000E+00 -0.68797467128E+03  0.68797467128E+03  0.00000000000E+00 0. -1.
         25    2    1    2    0    0  0.19596627740E+02 -0.16984907807E+02  0.19772964340E+02  0.12917966541E+03  0.12499560362E+03 0.  0.
          2    1    1    2  501    0 -0.14684134549E+02 -0.15286597492E+02 -0.63279541823E+03  0.63315033381E+03  0.00000000000E+00 0. -1.
          1    1    1    2  502    0 -0.49124931911E+01  0.32271505300E+02  0.89231464904E+03  0.89291153847E+03  0.00000000000E+00 0. -1.
         22    1    3    3    0    0  0.51179353989E+02 -0.53101792262E+02 -0.72650752641E+01  0.74107408096E+02  0.00000000000E+00 0.  1.
         22    1    3    3    0    0 -0.31582726249E+02  0.36116884455E+02  0.27038039604E+02  0.55072257314E+02  0.00000000000E+00 0.  1.
</event>
<event>
 7    1  0.6152634E-006  0.9059217E+02  0.7818608E-02  0.1363270E+00
          2   -1    0    0  502    0  0.00000000000E+00  0.00000000000E+00  0.80626933088E+03  0.80626933088E+03  0.00000000000E+00 0. -1.
          1   -1    0    0  501    0 -0.00000000000E+00 -0.00000000000E+00 -0.86758684281E+03  0.86758684281E+03  0.00000000000E+00 0. -1.
         25    2    1    2    0    0  0.29644205854E+02 -0.13158236113E+03 -0.59853003833E+02  0.19339635644E+03  0.12500828740E+03 0.  0.
          2    1    1    2  501    0  0.10880967379E+02  0.51531204956E+02 -0.73729774489E+03  0.73917645062E+03  0.00000000000E+00 0. -1.
          1    1    1    2  502    0 -0.40525173233E+02  0.80051156170E+02  0.73583323679E+03  0.74128336663E+03  0.00000000000E+00 0. -1.
         22    1    3    3    0    0 -0.37373966799E+02 -0.14139367908E+02 -0.40332141686E+02  0.56775142203E+02  0.00000000000E+00 0.  1.
         22    1    3    3    0    0  0.67018172653E+02 -0.11744299322E+03 -0.19520862148E+02  0.13662121424E+03  0.00000000000E+00 0.  1.
</event>
<event>
 7    1  0.6152634E-006  0.2231734E+03  0.7818608E-02  0.1265776E+00
          2   -1    0    0  502    0  0.00000000000E+00  0.00000000000E+00  0.70626582141E+03  0.70626582141E+03  0.00000000000E+00 0. -1.
          1   -1    0    0  501    0 -0.00000000000E+00 -0.00000000000E+00 -0.55706846114E+03  0.55706846114E+03  0.00000000000E+00 0. -1.
         25    2    1    2    0    0 -0.22897146814E+03 -0.15306962624E+02 -0.14979220149E+03  0.30121010475E+03  0.12501034857E+03 0.  0.
          2    1    1    2  501    0  0.87186733401E+01  0.50784252361E+02 -0.30963889386E+03  0.31389695784E+03  0.00000000000E+00 0. -1.
          1    1    1    2  502    0  0.22025279480E+03 -0.35477289737E+02  0.60862845562E+03  0.64822721996E+03  0.00000000000E+00 0. -1.
         22    1    3    3    0    0 -0.15053591831E+03  0.16363836855E+02 -0.29683959836E+02  0.15430481305E+03  0.00000000000E+00 0. -1.
         22    1    3    3    0    0 -0.78435549833E+02 -0.31670799479E+02 -0.12010824165E+03  0.14690529170E+03  0.00000000000E+00 0. -1.
</event>
<event>
 7    1  0.6152634E-006  0.6741060E+02  0.7818608E-02  0.1521866E+00
          2   -1    0    0  502    0  0.00000000000E+00  0.00000000000E+00  0.19019383437E+04  0.19019383437E+04  0.00000000000E+00 0. -1.
          1   -1    0    0  501    0 -0.00000000000E+00 -0.00000000000E+00 -0.76603049557E+02  0.76603049557E+02  0.00000000000E+00 0. -1.
         25    2    1    2    0    0  0.91588824990E+00 -0.51147299825E+02  0.28663846416E+03  0.31686426352E+03  0.12499786891E+03 0.  0.
          2    1    1    2  501    0 -0.14965680586E+02 -0.15645558437E+02 -0.58832767282E+02  0.62690107675E+02  0.00000000000E+00 0. -1.
          1    1    1    2  502    0  0.14049792336E+02  0.66792858262E+02  0.15975295973E+04  0.15989870220E+04  0.00000000000E+00 0. -1.
         22    1    3    3    0    0  0.15501948041E+02  0.35677240423E+02  0.43911019385E+02  0.58663050557E+02  0.00000000000E+00 0.  1.
         22    1    3    3    0    0 -0.14586059791E+02 -0.86824540248E+02  0.24272744478E+03  0.25820121297E+03  0.00000000000E+00 0.  1.
</event>
<event>
 7    1  0.6152634E-006  0.8560116E+02  0.7818608E-02  0.1389176E+00
          2   -1    0    0  502    0  0.00000000000E+00  0.00000000000E+00  0.40012775487E+03  0.40012775487E+03  0.00000000000E+00 0. -1.
          1   -1    0    0  501    0 -0.00000000000E+00 -0.00000000000E+00 -0.80766190850E+03  0.80766190850E+03  0.00000000000E+00 0. -1.
         25    2    1    2    0    0 -0.12837802734E+02  0.41804091467E+02  0.19642088534E+03  0.23689189041E+03  0.12499684916E+03 0.  0.
          2    1    1    2  501    0  0.45009110181E+02 -0.73366405636E+02 -0.78226212243E+03  0.78698314954E+03  0.00000000000E+00 0. -1.
          1    1    1    2  502    0 -0.32171307447E+02  0.31562314169E+02  0.17830708345E+03  0.18391462342E+03  0.00000000000E+00 0. -1.
         22    1    3    3    0    0  0.16414205845E+02  0.50248931348E+02  0.17925602861E+02  0.55818531807E+02  0.00000000000E+00 0.  1.
         22    1    3    3    0    0 -0.29252008579E+02 -0.84448398808E+01  0.17849528248E+03  0.18107335860E+03  0.00000000000E+00 0.  1.
</event>
<event>
 7    1  0.6152634E-006  0.5193094E+02  0.7818608E-02  0.1518288E+00
          2   -1    0    0  502    0  0.00000000000E+00  0.00000000000E+00  0.19494697192E+04  0.19494697192E+04  0.00000000000E+00 0. -1.
          1   -1    0    0  501    0 -0.00000000000E+00 -0.00000000000E+00 -0.45058279769E+02  0.45058279769E+02  0.00000000000E+00 0. -1.
         25    2    1    2    0    0  0.57595725644E+02  0.53544625154E+02  0.72738427173E+03  0.74222448927E+03  0.12500007686E+03 0.  0.
          2    1    1    2  501    0 -0.19064303546E+02 -0.21566501201E+02 -0.31539418638E+02  0.42700076953E+02  0.00000000000E+00 0. -1.
          1    1    1    2  502    0 -0.38531422098E+02 -0.31978123953E+02  0.12085665864E+04  0.12096034328E+04  0.00000000000E+00 0. -1.
         22    1    3    3    0    0 -0.20651409106E+02 -0.27902660129E+02  0.17654779544E+03  0.17992821684E+03  0.00000000000E+00 0. -1.
         22    1    3    3    0    0  0.78247134750E+02  0.81447285283E+02  0.55083647629E+03  0.56229627243E+03  0.00000000000E+00 0. -1.
</event>
<event>
 7    1  0.6152634E-006  0.4381067E+02  0.7818608E-02  0.1527258E+00
          2   -1    0    0  502    0  0.00000000000E+00  0.00000000000E+00  0.63404607640E+03  0.63404607640E+03  0.00000000000E+00 0. -1.
          1   -1    0    0  501    0 -0.00000000000E+00 -0.00000000000E+00 -0.57398399509E+02  0.57398399509E+02  0.00000000000E+00 0. -1.
         25    2    1    2    0    0  0.39201429373E+02  0.50981899320E+02  0.40045547326E+03  0.42440977057E+03  0.12499264447E+03 0.  0.
          2    1    1    2  501    0 -0.30302024949E+02 -0.10715752179E+02 -0.37506147721E+02  0.49393837446E+02  0.00000000000E+00 0. -1.
          1    1    1    2  502    0 -0.88994044235E+01 -0.40266147141E+02  0.21369835135E+03  0.21764086789E+03  0.00000000000E+00 0. -1.
         22    1    3    3    0    0  0.83790037923E+02  0.44316481510E+02  0.29039314924E+03  0.30547160607E+03  0.00000000000E+00 0. -1.
         22    1    3    3    0    0 -0.44588608551E+02  0.66654178103E+01  0.11006232402E+03  0.11893816450E+03  0.00000000000E+00 0. -1.
</event>
<event>
 7    1  0.6152634E-006  0.6393993E+02  0.7818608E-02  0.1407246E+00
          2   -1    0    0  502    0  0.00000000000E+00  0.00000000000E+00  0.11994833699E+04  0.11994833699E+04  0.00000000000E+00 0. -1.
          1   -1    0    0  501    0 -0.00000000000E+00 -0.00000000000E+00 -0.13071610779E+03  0.13071610779E+03  0.00000000000E+00 0. -1.
         25    2    1    2    0    0 -0.93943690071E+02 -0.46213799241E+02  0.56187239380E+03  0.58505420974E+03  0.12500683693E+03 0.  0.
          2    1    1    2  501    0  0.63335646831E+02  0.38392414977E+01 -0.10949032930E+03  0.12654752524E+03  0.00000000000E+00 0. -1.
          1    1    1    2  502    0  0.30608043241E+02  0.42374557744E+02  0.61638519764E+03  0.61859774274E+03  0.00000000000E+00 0. -1.
         22    1    3    3    0    0 -0.22351001491E+02  0.42822800832E+02  0.14666912027E+03  0.15441887961E+03  0.00000000000E+00 0. -1.
         22    1    3    3    0    0 -0.71592688580E+02 -0.89036600073E+02  0.41520327353E+03  0.43063533014E+03  0.00000000000E+00 0. -1.
</event>
<event>
 7    1  0.6152634E-006  0.1332408E+03  0.7818608E-02  0.1262771E+00
          2   -1    0    0  502    0  0.00000000000E+00  0.00000000000E+00  0.70166274829E+03  0.70166274829E+03  0.00000000000E+00 0. -1.
          1   -1    0    0  501    0 -0.00000000000E+00 -0.00000000000E+00 -0.81032385623E+03  0.81032385623E+03  0.00000000000E+00 0. -1.
         25    2    1    2    0    0  0.13060965289E+03 -0.13295210045E+02 -0.26773908340E+02  0.18324624003E+03  0.12500679293E+03 0.  0.
          2    1    1    2  501    0 -0.96501787938E+02  0.95364735978E+02 -0.69555849515E+03  0.70866681037E+03  0.00000000000E+00 0. -1.
          1    1    1    2  502    0 -0.34107864950E+02 -0.82069525932E+02  0.61367129555E+03  0.62007355412E+03  0.00000000000E+00 0. -1.
         22    1    3    3    0    0  0.30444250974E+02  0.19603512028E+02 -0.62243622362E+02  0.72009850896E+02  0.00000000000E+00 0.  1.
         22    1    3    3    0    0  0.10016540191E+03 -0.32898722073E+02  0.35469714023E+02  0.11123638913E+03  0.00000000000E+00 0.  1.
</event>
<event>
 7    1  0.6152634E-006  0.9284807E+02  0.7818608E-02  0.1387769E+00
          2   -1    0    0  502    0  0.00000000000E+00  0.00000000000E+00  0.32640401157E+03  0.32640401157E+03  0.00000000000E+00 0. -1.
          1   -1    0    0  501    0 -0.00000000000E+00 -0.00000000000E+00 -0.50203957691E+03  0.50203957691E+03  0.00000000000E+00 0. -1.
         25    2    1    2    0    0  0.32691053554E+02 -0.76495029133E+02 -0.60974806787E+02  0.16205827739E+03  0.12499905497E+03 0.  0.
          2    1    1    2  501    0 -0.38213703462E+02 -0.17485714267E+02 -0.38130290173E+03  0.38361170498E+03  0.00000000000E+00 0. -1.
          1    1    1    2  502    0  0.55226499074E+01  0.93980743399E+02  0.26664214318E+03  0.28277360611E+03  0.00000000000E+00 0. -1.
         22    1    3    3    0    0  0.69615122568E+02 -0.81834719536E+02 -0.63260959609E+02  0.12468013323E+03  0.00000000000E+00 0.  1.
         22    1    3    3    0    0 -0.36924069014E+02  0.53396904039E+01  0.22861528218E+01  0.37378144160E+02  0.00000000000E+00 0.  1.
</event>
<event>
 7    1  0.6152634E-006  0.5825785E+02  0.7818608E-02  0.1413342E+00
          2   -1    0    0  502    0  0.00000000000E+00  0.00000000000E+00  0.18249108512E+04  0.18249108512E+04  0.00000000000E+00 0. -1.
          1   -1    0    0  501    0 -0.00000000000E+00 -0.00000000000E+00 -0.63514500163E+02  0.63514500163E+02  0.00000000000E+00 0. -1.
         25    2    1    2    0    0  0.78538809770E+02 -0.39705800539E+02  0.19940025976E+03  0.25126820175E+03  0.12502139969E+03 0.  0.
          2    1    1    2  501    0 -0.55984334868E+02 -0.10135746171E+02 -0.15297478248E+02  0.58915124899E+02  0.00000000000E+00 0. -1.
          1    1    1    2  502    0 -0.22554474902E+02  0.49841546710E+02  0.15772935695E+04  0.15782420247E+04  0.00000000000E+00 0. -1.
         22    1    3    3    0    0 -0.18883586080E+02 -0.16600945227E+02  0.12240894674E+03  0.12496452075E+03  0.00000000000E+00 0. -1.
         22    1    3    3    0    0  0.97422395851E+02 -0.23104855312E+02  0.76991313026E+02  0.12630368100E+03  0.00000000000E+00 0. -1.
</event>
<event>
 7    1  0.6152634E-006  0.1389401E+03  0.7818608E-02  0.1232280E+00
          2   -1    0    0  502    0  0.00000000000E+00  0.00000000000E+00  0.71038614476E+03  0.71038614476E+03  0.00000000000E+00 0. -1.
          1   -1    0    0  501    0 -0.00000000000E+00 -0.00000000000E+00 -0.24278333604E+04  0.24278333604E+04  0.00000000000E+00 0. -1.
         25    2    1    2    0    0  0.71329313357E+02  0.20663510038E+03 -0.23339189061E+03  0.34334228746E+03  0.12500486431E+03 0.  0.
          2    1    1    2  501    0  0.19754955386E+02 -0.13525162380E+03 -0.21321525226E+04  0.21365293445E+04  0.00000000000E+00 0. -1.
          1    1    1    2  502    0 -0.91084268743E+02 -0.71383476581E+02  0.64809719757E+03  0.65834787327E+03  0.00000000000E+00 0. -1.
         22    1    3    3    0    0  0.95033598709E+02  0.14405655792E+03 -0.21141082086E+03  0.27290696572E+03  0.00000000000E+00 0. -1.
         22    1    3    3    0    0 -0.23704285352E+02  0.62578542467E+02 -0.21981069752E+02  0.70435321741E+02  0.00000000000E+00 0. -1.
</event>
<event>
 7    1  0.6152634E-006  0.9885871E+02  0.7818608E-02  0.1301677E+00
          2   -1    0    0  502    0  0.00000000000E+00  0.00000000000E+00  0.18019363430E+04  0.18019363430E+04  0.00000000000E+00 0. -1.
          1   -1    0    0  501    0 -0.00000000000E+00 -0.00000000000E+00 -0.66583082065E+02  0.66583082065E+02  0.00000000000E+00 0. -1.
         25    2    1    2    0    0  0.95307537935E+02 -0.14668493993E+03  0.39206793072E+03  0.44714842012E+03  0.12499779566E+03 0.  0.
          2    1    1    2  501    0 -0.32668432315E+02  0.76109120336E+02  0.85054093396E+01  0.83259634015E+02  0.00000000000E+00 0. -1.
          1    1    1    2  502    0 -0.62639105619E+02  0.70575819596E+02  0.13347799209E+04  0.13381113709E+04  0.00000000000E+00 0. -1.
         22    1    3    3    0    0  0.12090866095E+03 -0.14047693918E+03  0.31246920386E+03  0.36330383716E+03  0.00000000000E+00 0. -1.
         22    1    3    3    0    0 -0.25601123013E+02 -0.62080007534E+01  0.79598726865E+02  0.83844582958E+02  0.00000000000E+00 0. -1.
</event>
<event>
 7    1  0.6152634E-006  0.9159706E+02  0.7818608E-02  0.1369330E+00
          2   -1    0    0  502    0  0.00000000000E+00  0.00000000000E+00  0.12027094152E+04  0.12027094152E+04  0.00000000000E+00 0. -1.
          1   -1    0    0  501    0 -0.00000000000E+00 -0.00000000000E+00 -0.37079887028E+03  0.37079887028E+03  0.00000000000E+00 0. -1.
         25    2    1    2    0    0 -0.26894013692E+02 -0.11919900883E+03 -0.18761499753E+03  0.25642675210E+03  0.12499440074E+03 0.  0.
          2    1    1    2  501    0 -0.61874216257E+01  0.82340679557E+02 -0.13674979716E+03  0.15974598186E+03  0.00000000000E+00 0. -1.
          1    1    1    2  502    0  0.33081435318E+02  0.36858329270E+02  0.11562753397E+04  0.11573355516E+04  0.00000000000E+00 0. -1.
         22    1    3    3    0    0 -0.12002824186E+02 -0.11489847358E+03 -0.64441063950E+02  0.13228143386E+03  0.00000000000E+00 0. -1.
         22    1    3    3    0    0 -0.14891189506E+02 -0.43005352426E+01 -0.12317393358E+03  0.12414531825E+03  0.00000000000E+00 0. -1.
</event>
<event>
 7    1  0.6152634E-006  0.1345843E+03  0.7818608E-02  0.1289192E+00
          2   -1    0    0  502    0  0.00000000000E+00  0.00000000000E+00  0.24069014970E+03  0.24069014970E+03  0.00000000000E+00 0. -1.
          1   -1    0    0  501    0 -0.00000000000E+00 -0.00000000000E+00 -0.44694833488E+03  0.44694833488E+03  0.00000000000E+00 0. -1.
         25    2    1    2    0    0 -0.64641150131E+02  0.16371698472E+03 -0.67014687951E+02  0.22604782214E+03  0.12499968047E+03 0.  0.
          2    1    1    2  501    0 -0.18524640683E+02 -0.65756293452E+02 -0.26985226472E+03  0.27836540233E+03  0.00000000000E+00 0. -1.
          1    1    1    2  502    0  0.83165790814E+02 -0.97960691272E+02  0.13060876749E+03  0.18322526011E+03  0.00000000000E+00 0. -1.
         22    1    3    3    0    0 -0.81945614409E+02  0.10519264976E+03  0.27299028268E+01  0.13337177233E+03  0.00000000000E+00 0. -1.
         22    1    3    3    0    0  0.17304464278E+02  0.58524334964E+02 -0.69744590778E+02  0.92676049817E+02  0.00000000000E+00 0. -1.
</event>
<event>
 7    1  0.6152634E-006  0.6574187E+02  0.7818608E-02  0.1409895E+00
          2   -1    0    0  502    0  0.00000000000E+00  0.00000000000E+00  0.82689893341E+02  0.82689893341E+02  0.00000000000E+00 0. -1.
          1   -1    0    0  501    0 -0.00000000000E+00 -0.00000000000E+00 -0.83827233115E+03  0.83827233115E+03  0.00000000000E+00 0. -1.
         25    2    1    2    0    0  0.20856452679E+02 -0.68708735323E+02 -0.11789118324E+03  0.18621299346E+03  0.12498426270E+03 0.  0.
          2    1    1    2  501    0  0.28176193065E+02  0.60011310655E+02 -0.67136769212E+03  0.67463311013E+03  0.00000000000E+00 0. -1.
          1    1    1    2  502    0 -0.49032645744E+02  0.86974246682E+01  0.33676437555E+02  0.60116120890E+02  0.00000000000E+00 0. -1.
         22    1    3    3    0    0  0.47621875401E+02 -0.94791336960E+02 -0.94899548954E+02  0.14233469349E+03  0.00000000000E+00 0. -1.
         22    1    3    3    0    0 -0.26765422722E+02  0.26082601636E+02 -0.22991634284E+02  0.43878299974E+02  0.00000000000E+00 0. -1.
</event>
<event>
 7    1  0.6152634E-006  0.1125123E+03  0.7818608E-02  0.1313064E+00
          2   -1    0    0  502    0  0.00000000000E+00  0.00000000000E+00  0.32759499569E+03  0.32759499569E+03  0.00000000000E+00 0. -1.
          1   -1    0    0  501    0 -0.00000000000E+00 -0.00000000000E+00 -0.10777460158E+04  0.10777460158E+04  0.00000000000E+00 0. -1.
         25    2    1    2    0    0  0.12271638802E+02  0.11325151607E+03 -0.21237209481E+02  0.17044988050E+03  0.12500257471E+03 0.  0.
          2    1    1    2  501    0  0.52090372850E+02 -0.10056289448E+03 -0.97431391001E+03  0.98087404795E+03  0.00000000000E+00 0. -1.
          1    1    1    2  502    0 -0.64362011652E+02 -0.12688621593E+02  0.24540009942E+03  0.25401708300E+03  0.00000000000E+00 0. -1.
         22    1    3    3    0    0  0.55504896586E+02  0.15446307206E+02  0.11223630567E+02  0.58697119473E+02  0.00000000000E+00 0. -1.
         22    1    3    3    0    0 -0.43233257784E+02  0.97805208866E+02 -0.32460840049E+02  0.11175276102E+03  0.00000000000E+00 0. -1.
</event>
<event>
 7    1  0.6152634E-006  0.3870640E+02  0.7818608E-02  0.1583252E+00
          2   -1    0    0  502    0  0.00000000000E+00  0.00000000000E+00  0.43423287168E+03  0.43423287168E+03  0.00000000000E+00 0. -1.
          1   -1    0    0  501    0 -0.00000000000E+00 -0.00000000000E+00 -0.81824473181E+02  0.81824473181E+02  0.00000000000E+00 0. -1.
         25    2    1    2    0    0  0.54753668364E+01  0.25388555016E+02  0.18393512308E+03  0.22390054509E+03  0.12499906488E+03 0.  0.
          2    1    1    2  501    0 -0.30900591493E+02 -0.24254501892E+02 -0.54806867649E+02  0.67430854645E+02  0.00000000000E+00 0. -1.
          1    1    1    2  502    0  0.25425224657E+02 -0.11340531233E+01  0.22328014306E+03  0.22472594512E+03  0.00000000000E+00 0. -1.
         22    1    3    3    0    0 -0.55906113457E+02  0.31046867158E+01  0.50754893910E+02  0.75572427891E+02  0.00000000000E+00 0.  1.
         22    1    3    3    0    0  0.61381480294E+02  0.22283868300E+02  0.13318022917E+03  0.14832811720E+03  0.00000000000E+00 0.  1.
</event>
<event>
 7    1  0.6152634E-006  0.2773427E+03  0.7818608E-02  0.1331700E+00
          2   -1    0    0  502    0  0.00000000000E+00  0.00000000000E+00  0.80434649650E+03  0.80434649650E+03  0.00000000000E+00 0. -1.
          1   -1    0    0  501    0 -0.00000000000E+00 -0.00000000000E+00 -0.22099021197E+03  0.22099021197E+03  0.00000000000E+00 0. -1.
         25    2    1    2    0    0 -0.25192154811E+03 -0.63876219201E+02 -0.18438650768E+02  0.28898070676E+03  0.12500090902E+03 0.  0.
          2    1    1    2  501    0 -0.22255391290E+02  0.36020111373E+01 -0.34313711886E+02  0.41057371434E+02  0.00000000000E+00 0. -1.
          1    1    1    2  502    0  0.27417693940E+03  0.60274208064E+02  0.63610864718E+03  0.69529863029E+03  0.00000000000E+00 0. -1.
         22    1    3    3    0    0 -0.20400666603E+03 -0.10301137267E+02 -0.50286195533E+02  0.21036524113E+03  0.00000000000E+00 0. -1.
         22    1    3    3    0    0 -0.47914882082E+02 -0.53575081934E+02  0.31847544765E+02  0.78615465633E+02  0.00000000000E+00 0. -1.
</event>
<event>
 7    1  0.6152634E-006  0.1080490E+03  0.7818608E-02  0.1299058E+00
          2   -1    0    0  502    0  0.00000000000E+00  0.00000000000E+00  0.88860820550E+03  0.88860820550E+03  0.00000000000E+00 0. -1.
          1   -1    0    0  501    0 -0.00000000000E+00 -0.00000000000E+00 -0.24771402150E+03  0.24771402150E+03  0.00000000000E+00 0. -1.
         25    2    1    2    0    0 -0.11896324312E+02 -0.38885013331E+02  0.92186352099E+02  0.16055678615E+03  0.12500636492E+03 0.  0.
          2    1    1    2  501    0  0.21396476989E+00 -0.77629222751E+02 -0.20177962117E+03  0.21619749658E+03  0.00000000000E+00 0. -1.
          1    1    1    2  502    0  0.11682359542E+02  0.11651423608E+03  0.75048745307E+03  0.75956794427E+03  0.00000000000E+00 0. -1.
         22    1    3    3    0    0 -0.58627903269E+02  0.14439385171E+01  0.12852502509E+02  0.60037511781E+02  0.00000000000E+00 0.  1.
         22    1    3    3    0    0  0.46731578957E+02 -0.40328951848E+02  0.79333849590E+02  0.10051927437E+03  0.00000000000E+00 0.  1.
</event>
<event>
 7    1  0.6152634E-006  0.9593507E+02  0.7818608E-02  0.1351487E+00
          2   -1    0    0  502    0  0.00000000000E+00  0.00000000000E+00  0.10788247542E+04  0.10788247542E+04  0.00000000000E+00 0. -1.
          1   -1    0    0  501    0 -0.00000000000E+00 -0.00000000000E+00 -0.34276116048E+03  0.34276116048E+03  0.00000000000E+00 0. -1.
         25    2    1    2    0    0 -0.71083305475E+02 -0.11565412755E+03 -0.85629033894E+02  0.20343578669E+03  0.12500029729E+03 0.  0.
          2    1    1    2  501    0  0.24665756970E+02  0.86277621694E+02 -0.18728798457E+03  0.20767526751E+03  0.00000000000E+00 0. -1.
          1    1    1    2  502    0  0.46417548506E+02  0.29376505858E+02  0.10089806121E+04  0.10104748604E+04  0.00000000000E+00 0. -1.
         22    1    3    3    0    0 -0.40586644100E+02 -0.65248215269E+01  0.22456441433E+02  0.46841656002E+02  0.00000000000E+00 0.  1.
         22    1    3    3    0    0 -0.30496661376E+02 -0.10912930603E+03 -0.10808547533E+03  0.15659413069E+03  0.00000000000E+00 0.  1.
</event>
<event>
 7    1  0.6152634E-006  0.2380387E+03  0.7818608E-02  0.1253279E+00
          2   -1    0    0  502    0  0.00000000000E+00  0.00000000000E+00  0.10448106977E+04  0.10448106977E+04  0.00000000000E+00 0. -1.
          1   -1    0    0  501    0 -0.00000000000E+00 -0.00000000000E+00 -0.16882022952E+04  0.16882022952E+04  0.00000000000E+00 0. -1.
         25    2    1    2    0    0 -0.24460948989E+03  0.15912217365E+03 -0.84258104413E+03  0.90040062088E+03  0.12499917380E+03 0.  0.
          2    1    1    2  501    0  0.45720854711E+02 -0.29895926691E+02 -0.80192565592E+03  0.80378412563E+03  0.00000000000E+00 0. -1.
          1    1    1    2  502    0  0.19888863518E+03 -0.12922624696E+03  0.10011151025E+04  0.10288282464E+04  0.00000000000E+00 0. -1.
         22    1    3    3    0    0 -0.39145536136E+02  0.64203677890E+02 -0.35463083501E+03  0.36251553676E+03  0.00000000000E+00 0. -1.
         22    1    3    3    0    0 -0.20546395375E+03  0.94918495758E+02 -0.48795020912E+03  0.53788508411E+03  0.00000000000E+00 0. -1.
</event>
<event>
 7    1  0.6152634E-006  0.6785688E+02  0.7818608E-02  0.1458120E+00
          2   -1    0    0  502    0  0.00000000000E+00  0.00000000000E+00  0.98298710143E+03  0.98298710143E+03  0.00000000000E+00 0. -1.
          1   -1    0    0  501    0 -0.00000000000E+00 -0.00000000000E+00 -0.18935629247E+04  0.18935629247E+04  0.00000000000E+00 0. -1.
         25    2    1    2    0    0 -0.34235494998E+02 -0.67643696970E+02  0.10984773964E+03  0.18286356973E+03  0.12499928149E+03 0.  0.
          2    1    1    2  501    0  0.54264461565E+02  0.40740980311E+02 -0.18560986433E+04  0.18573385887E+04  0.00000000000E+00 0. -1.
          1    1    1    2  502    0 -0.20028966567E+02  0.26902716659E+02  0.83567508046E+03  0.83634786768E+03  0.00000000000E+00 0. -1.
         22    1    3    3    0    0  0.26504404309E+02 -0.29506393143E+02  0.10352795631E+03  0.11086545189E+03  0.00000000000E+00 0. -1.
         22    1    3    3    0    0 -0.60739899307E+02 -0.38137303827E+02  0.63197833275E+01  0.71998117839E+02  0.00000000000E+00 0. -1.
</event>
<event>
 7    1  0.6152634E-006  0.8008016E+02  0.7818608E-02  0.1375542E+00
          2   -1    0    0  502    0  0.00000000000E+00  0.00000000000E+00  0.30314651400E+03  0.30314651400E+03  0.00000000000E+00 0. -1.
          1   -1    0    0  501    0 -0.00000000000E+00 -0.00000000000E+00 -0.16649510896E+03  0.16649510896E+03  0.00000000000E+00 0. -1.
         25    2    1    2    0    0  0.41329935894E+02 -0.17363910126E+01 -0.34602704165E+02  0.13612747098E+03  0.12498864974E+03 0.  0.
          2    1    1    2  501    0  0.27470509672E+02 -0.46282073733E+02 -0.64072973713E+02  0.83677985224E+02  0.00000000000E+00 0. -1.
          1    1    1    2  502    0 -0.68800445566E+02  0.48018464746E+02  0.23532708291E+03  0.24983616675E+03  0.00000000000E+00 0. -1.
         22    1    3    3    0    0 -0.44536543942E+02 -0.27283552974E+01 -0.20503845858E+02  0.49105553290E+02  0.00000000000E+00 0.  1.
         22    1    3    3    0    0  0.85866479836E+02  0.99196428489E+00 -0.14098858307E+02  0.87021917689E+02  0.00000000000E+00 0.  1.
</event>
<event>
 7    1  0.6152634E-006  0.4886930E+02  0.7818608E-02  0.1491370E+00
          2   -1    0    0  502    0  0.00000000000E+00  0.00000000000E+00  0.18637740767E+03  0.18637740767E+03  0.00000000000E+00 0. -1.
          1   -1    0    0  501    0 -0.00000000000E+00 -0.00000000000E+00 -0.17465963239E+04  0.17465963239E+04  0.00000000000E+00 0. -1.
         25    2    1    2    0    0  0.51555708570E+02  0.38966644962E+02  0.13732695493E+03  0.19662322585E+03  0.12500243953E+03 0.  0.
          2    1    1    2  501    0 -0.36743149131E+02 -0.10578502473E+01 -0.16951835343E+04  0.16955820219E+04  0.00000000000E+00 0. -1.
          1    1    1    2  502    0 -0.14812559438E+02 -0.37908794715E+02 -0.23623368081E+01  0.40768483771E+02  0.00000000000E+00 0. -1.
         22    1    3    3    0    0  0.70381262502E+02  0.69859083082E+02  0.12229475535E+03  0.15744783513E+03  0.00000000000E+00 0. -1.
         22    1    3    3    0    0 -0.18825553933E+02 -0.30892438120E+02  0.15032199573E+02  0.39175390717E+02  0.00000000000E+00 0. -1.
</event>
<event>
 7    1  0.6152634E-006  0.4497529E+02  0.7818608E-02  0.1513400E+00
          2   -1    0    0  502    0  0.00000000000E+00  0.00000000000E+00  0.34012408288E+04  0.34012408288E+04  0.00000000000E+00 0. -1.
          1   -1    0    0  501    0 -0.00000000000E+00 -0.00000000000E+00 -0.17950569287E+03  0.17950569287E+03  0.00000000000E+00 0. -1.
         25    2    1    2    0    0 -0.73989843642E+02 -0.18415250977E+02  0.15215308331E+04  0.15285598969E+04  0.12500265548E+03 0.  0.
          2    1    1    2  501    0  0.31377801497E+02  0.13969667005E+02 -0.17406820374E+03  0.17742451233E+03  0.00000000000E+00 0. -1.
          1    1    1    2  502    0  0.42612042145E+02  0.44455839719E+01  0.18742725066E+04  0.18747621124E+04  0.00000000000E+00 0. -1.
         22    1    3    3    0    0  0.10301860308E+02  0.18873537396E+02  0.53798725407E+02  0.57936530748E+02  0.00000000000E+00 0.  1.
         22    1    3    3    0    0 -0.84291703951E+02 -0.37288788373E+02  0.14677321077E+04  0.14706233661E+04  0.00000000000E+00 0.  1.
</event>
<event>
 7    1  0.6152634E-006  0.1572177E+03  0.7818608E-02  0.1248558E+00
          2   -1    0    0  502    0  0.00000000000E+00  0.00000000000E+00  0.70340875120E+03  0.70340875120E+03  0.00000000000E+00 0. -1.
          1   -1    0    0  501    0 -0.00000000000E+00 -0.00000000000E+00 -0.63332468507E+03  0.63332468507E+03  0.00000000000E+00 0. -1.
         25    2    1    2    0    0 -0.16595100220E+02 -0.18839222680E+03  0.27220144861E+02  0.22832659984E+03  0.12500028574E+03 0.  0.
          2    1    1    2  501    0  0.74774619366E+02  0.43878477672E+02 -0.51856627181E+03  0.52576377088E+03  0.00000000000E+00 0. -1.
          1    1    1    2  502    0 -0.58179519146E+02  0.14451374913E+03  0.56143019308E+03  0.58264306556E+03  0.00000000000E+00 0. -1.
         22    1    3    3    0    0  0.17636423927E+02 -0.53598046941E+02  0.63151407523E+02  0.84687037715E+02  0.00000000000E+00 0. -1.
         22    1    3    3    0    0 -0.34231524146E+02 -0.13479417986E+03 -0.35931262663E+02  0.14363956212E+03  0.00000000000E+00 0. -1.
</event>
<event>
 7    1  0.6152634E-006  0.8975256E+02  0.7818608E-02  0.1453679E+00
          2   -1    0    0  502    0  0.00000000000E+00  0.00000000000E+00  0.24305261051E+03  0.24305261051E+03  0.00000000000E+00 0. -1.
          1   -1    0    0  501    0 -0.00000000000E+00 -0.00000000000E+00 -0.17054858003E+03  0.17054858003E+03  0.00000000000E+00 0. -1.
         25    2    1    2    0    0  0.31617124229E+02 -0.10149170577E+03 -0.37923388617E+02  0.16841197994E+03  0.12499681076E+03 0.  0.
          2    1    1    2  501    0  0.10456125202E+02  0.24016428401E+02 -0.53213163953E+02  0.59310709027E+02  0.00000000000E+00 0. -1.
          1    1    1    2  502    0 -0.42073249431E+02  0.77475277370E+02  0.16364058305E+03  0.18587850156E+03  0.00000000000E+00 0. -1.
         22    1    3    3    0    0  0.79376007531E+02 -0.56514094098E+02 -0.31917703971E+02  0.10253357123E+03  0.00000000000E+00 0. -1.
         22    1    3    3    0    0 -0.47758883301E+02 -0.44977611672E+02 -0.60056846460E+01  0.65878408709E+02  0.00000000000E+00 0. -1.
</event>
<event>
 7    1  0.6152634E-006  0.2774540E+03  0.7818608E-02  0.1336341E+00
          2   -1    0    0  502    0  0.00000000000E+00  0.00000000000E+00  0.42678878093E+03  0.42678878093E+03  0.00000000000E+00 0. -1.
          1   -1    0    0  501    0 -0.00000000000E+00 -0.00000000000E+00 -0.16653502847E+04  0.16653502847E+04  0.00000000000E+00 0. -1.
         25    2    1    2    0    0  0.23880244973E+03  0.15111012380E+03 -0.46714198433E+03  0.56009692978E+03  0.12500423078E+03 0.  0.
          2    1    1    2  501    0  0.56950955740E+01 -0.20877131483E+02 -0.11011651102E+04  0.11013777230E+04  0.00000000000E+00 0. -1.
          1    1    1    2  502    0 -0.24449754530E+03 -0.13023299232E+03  0.32974559073E+03  0.43066441291E+03  0.00000000000E+00 0. -1.
         22    1    3    3    0    0  0.11062967704E+03  0.66800959248E+02 -0.10401753725E+03  0.16589436897E+03  0.00000000000E+00 0.  1.
         22    1    3    3    0    0  0.12817277268E+03  0.84309164554E+02 -0.36312444708E+03  0.39420256081E+03  0.00000000000E+00 0.  1.
</event>
<event>
 7    1  0.6152634E-006  0.4191697E+02  0.7818608E-02  0.1532729E+00
          2   -1    0    0  502    0  0.00000000000E+00  0.00000000000E+00  0.34484031662E+03  0.34484031662E+03  0.00000000000E+00 0. -1.
          1   -1    0    0  501    0 -0.00000000000E+00 -0.00000000000E+00 -0.14229903853E+03  0.14229903853E+03  0.00000000000E+00 0. -1.
         25    2    1    2    0    0 -0.48368982635E+02 -0.42613658526E+02 -0.37237525367E+02  0.14548930483E+03  0.12500008860E+03 0.  0.
          2    1    1    2  501    0  0.32119677423E+02  0.42693810230E+01 -0.44104936224E+02  0.54727933374E+02  0.00000000000E+00 0. -1.
          1    1    1    2  502    0  0.16249305212E+02  0.38344277503E+02  0.28388373968E+03  0.28692211695E+03  0.00000000000E+00 0. -1.
         22    1    3    3    0    0  0.27129278139E+01 -0.33113028987E+02 -0.74485542067E+02  0.81559356564E+02  0.00000000000E+00 0.  1.
         22    1    3    3    0    0 -0.51081910449E+02 -0.95006295389E+01  0.37248016700E+02  0.63929948263E+02  0.00000000000E+00 0.  1.
</event>
<event>
 7    1  0.6152634E-006  0.6578952E+02  0.7818608E-02  0.1405839E+00
          2   -1    0    0  502    0  0.00000000000E+00  0.00000000000E+00  0.13307764778E+04  0.13307764778E+04  0.00000000000E+00 0. -1.
          1   -1    0    0  501    0 -0.00000000000E+00 -0.00000000000E+00 -0.22974610658E+03  0.22974610658E+03  0.00000000000E+00 0. -1.
         25    2    1    2    0    0  0.50978872009E+02 -0.23635777657E+02  0.11328563907E+04  0.11411152339E+04  0.12499151829E+03 0.  0.
          2    1    1    2  501    0 -0.18349322056E+02  0.63307962657E+02 -0.21723486484E+03  0.22701449790E+03  0.00000000000E+00 0. -1.
          1    1    1    2  502    0 -0.32629549953E+02 -0.39672185000E+02  0.18540884530E+03  0.19239285254E+03  0.00000000000E+00 0. -1.
         22    1    3    3    0    0  0.91077603620E+02 -0.30194880448E+02  0.75170256912E+03  0.75780182971E+03  0.00000000000E+00 0. -1.
         22    1    3    3    0    0 -0.40098731611E+02  0.65591027910E+01  0.38115382160E+03  0.38331340419E+03  0.00000000000E+00 0. -1.
</event>
<event>
 7    1  0.6152634E-006  0.7160805E+02  0.7818608E-02  0.1433324E+00
          2   -1    0    0  502    0  0.00000000000E+00  0.00000000000E+00  0.98460005187E+03  0.98460005187E+03  0.00000000000E+00 0. -1.
          1   -1    0    0  501    0 -0.00000000000E+00 -0.00000000000E+00 -0.71650742653E+03  0.71650742653E+03  0.00000000000E+00 0. -1.
         25    2    1    2    0    0  0.81836184614E+01  0.32815677306E+02  0.34517906807E+03  0.36866813975E+03  0.12499507169E+03 0.  0.
          2    1    1    2  501    0 -0.23021993261E+02 -0.68011569464E+02 -0.70234975782E+03  0.70601045890E+03  0.00000000000E+00 0. -1.
          1    1    1    2  502    0  0.14838374800E+02  0.35195892159E+02  0.62526331509E+03  0.62642887975E+03  0.00000000000E+00 0. -1.
         22    1    3    3    0    0  0.26376808834E+02  0.59761770972E+02  0.88817735261E+02  0.11025332381E+03  0.00000000000E+00 0.  1.
         22    1    3    3    0    0 -0.18193190372E+02 -0.26946093666E+02  0.25636133281E+03  0.25841481594E+03  0.00000000000E+00 0.  1.
</event>
<event>
 7    1  0.6258606E-006  0.6863710E+02  0.7818608E-02  0.1459069E+00
          2   -1    0    0  502    0  0.00000000000E+00  0.00000000000E+00  0.97870508440E+03  0.97870508440E+03  0.00000000000E+00 0. -1.
          1   -1    0    0  501    0 -0.00000000000E+00 -0.00000000000E+00 -0.20316586367E+04  0.20316586367E+04  0.00000000000E+00 0. -1.
         25    2    1    2    0    0 -0.17891328166E+02  0.89489327382E+02 -0.12789148557E+03  0.20077229029E+03  0.12499936451E+03 0.  0.
          2    1    1    2  501    0 -0.14914094563E+02 -0.29359440799E+02 -0.18659364584E+04  0.18662270156E+04  0.00000000000E+00 0. -1.
          1    1    1    2  502    0  0.32805422729E+02 -0.60129886583E+02  0.94087439166E+03  0.94336441522E+03  0.00000000000E+00 0. -1.
         22    1    3    3    0    0  0.19773987237E+02 -0.25434333154E+02 -0.15825253192E+02  0.35893655607E+02  0.00000000000E+00 0.  1.
         22    1    3    3    0    0 -0.37665315403E+02  0.11492366054E+03 -0.11206623237E+03  0.16487863468E+03  0.00000000000E+00 0.  1.
</event>
<event>
 7    1  0.6152634E-006  0.1211321E+03  0.7818608E-02  0.1277266E+00
          2   -1    0    0  502    0  0.00000000000E+00  0.00000000000E+00  0.63968616918E+03  0.63968616918E+03  0.00000000000E+00 0. -1.
          1   -1    0    0  501    0 -0.00000000000E+00 -0.00000000000E+00 -0.21667493768E+04  0.21667493768E+04  0.00000000000E+00 0. -1.
         25    2    1    2    0    0 -0.69354077907E+02 -0.80572775550E+02 -0.14219977297E+04  0.14314344483E+04  0.12500030440E+03 0.  0.
          2    1    1    2  501    0  0.31511068963E+02  0.15665482762E+03 -0.72849150949E+03  0.74581067429E+03  0.00000000000E+00 0. -1.
          1    1    1    2  502    0  0.37843008944E+02 -0.76082052073E+02  0.62342603162E+03  0.62919042338E+03  0.00000000000E+00 0. -1.
         22    1    3    3    0    0 -0.70039281223E+02 -0.71823288480E+01 -0.35493882006E+03  0.36185446349E+03  0.00000000000E+00 0.  1.
         22    1    3    3    0    0  0.68520331619E+00 -0.73390446702E+02 -0.10670589097E+04  0.10695799848E+04  0.00000000000E+00 0.  1.
</event>
<event>
 7    1  0.6152634E-006  0.6962375E+02  0.7818608E-02  0.1490262E+00
          2   -1    0    0  502    0  0.00000000000E+00  0.00000000000E+00  0.11786855593E+04  0.11786855593E+04  0.00000000000E+00 0. -1.
          1   -1    0    0  501    0 -0.00000000000E+00 -0.00000000000E+00 -0.92176923228E+02  0.92176923228E+02  0.00000000000E+00 0. -1.
         25    2    1    2    0    0  0.84448091701E+02  0.35853220524E+02  0.10919718382E+03  0.18964794824E+03  0.12500154281E+03 0.  0.
          2    1    1    2  501    0 -0.25987405035E+02  0.83156533535E+00 -0.47463233573E+02  0.54118344973E+02  0.00000000000E+00 0. -1.
          1    1    1    2  502    0 -0.58460686665E+02 -0.36684785859E+02  0.10247746858E+04  0.10270961893E+04  0.00000000000E+00 0. -1.
         22    1    3    3    0    0  0.99384874722E+02  0.72150914424E+01  0.29916746147E+02  0.10404048524E+03  0.00000000000E+00 0. -1.
         22    1    3    3    0    0 -0.14936783022E+02  0.28638129081E+02  0.79280437678E+02  0.85607463008E+02  0.00000000000E+00 0. -1.
</event>
<event>
 7    1  0.6152634E-006  0.1514330E+03  0.7818608E-02  0.1331454E+00
          2   -1    0    0  502    0  0.00000000000E+00  0.00000000000E+00  0.13942064760E+04  0.13942064760E+04  0.00000000000E+00 0. -1.
          1   -1    0    0  501    0 -0.00000000000E+00 -0.00000000000E+00 -0.56793003575E+02  0.56793003575E+02  0.00000000000E+00 0. -1.
         25    2    1    2    0    0 -0.12320914023E+03  0.12652358961E+03  0.33044204076E+03  0.39497748152E+03  0.12500623044E+03 0.  0.
          2    1    1    2  501    0  0.26621543538E+01 -0.41293717307E+02  0.32562129014E+01  0.41507361724E+02  0.00000000000E+00 0. -1.
          1    1    1    2  502    0  0.12054698588E+03 -0.85229872301E+02  0.10037152188E+04  0.10145146363E+04  0.00000000000E+00 0. -1.
         22    1    3    3    0    0 -0.16994351469E+02  0.21417476727E+02 -0.49667801286E+01  0.27788220455E+02  0.00000000000E+00 0. -1.
         22    1    3    3    0    0 -0.10621478876E+03  0.10510611288E+03  0.33540882089E+03  0.36718926107E+03  0.00000000000E+00 0. -1.
</event>
<event>
 7    1  0.6152634E-006  0.1159734E+03  0.7818608E-02  0.1262661E+00
          2   -1    0    0  502    0  0.00000000000E+00  0.00000000000E+00  0.13814548375E+03  0.13814548375E+03  0.00000000000E+00 0. -1.
          1   -1    0    0  501    0 -0.00000000000E+00 -0.00000000000E+00 -0.23747335225E+04  0.23747335225E+04  0.00000000000E+00 0. -1.
         25    2    1    2    0    0  0.38267221894E+02  0.86133218511E+02 -0.85763240753E+03  0.87179914583E+03  0.12496836653E+03 0.  0.
          2    1    1    2  501    0 -0.12002183793E+03 -0.38773818762E+01 -0.14814482288E+04  0.14863072127E+04  0.00000000000E+00 0. -1.
          1    1    1    2  502    0  0.81754616038E+02 -0.82255836635E+02  0.10249259767E+03  0.15477264772E+03  0.00000000000E+00 0. -1.
         22    1    3    3    0    0 -0.45734407886E+01 -0.27180744256E+02 -0.76186196280E+02  0.81018798575E+02  0.00000000000E+00 0.  1.
         22    1    3    3    0    0  0.42840662682E+02  0.11331396277E+03 -0.78144621125E+03  0.79078034726E+03  0.00000000000E+00 0.  1.
</event>
<event>
 7    1  0.6152634E-006  0.8852366E+02  0.7818608E-02  0.1333832E+00
          2   -1    0    0  502    0  0.00000000000E+00  0.00000000000E+00  0.19199568553E+02  0.19199568553E+02  0.00000000000E+00 0. -1.
          1   -1    0    0  501    0 -0.00000000000E+00 -0.00000000000E+00 -0.18729195663E+04  0.18729195663E+04  0.00000000000E+00 0. -1.
         25    2    1    2    0    0 -0.17180562432E+02  0.31063021834E+02 -0.91292591418E+03  0.92212726411E+03  0.12499953350E+03 0.  0.
          2    1    1    2  501    0 -0.62728462029E+02  0.29516960543E+02 -0.76078306815E+03  0.76393519862E+03  0.00000000000E+00 0. -1.
          1    1    1    2  502    0  0.79909024461E+02 -0.60579982377E+02 -0.18001101540E+03  0.20605667211E+03  0.00000000000E+00 0. -1.
         22    1    3    3    0    0 -0.27433236941E+02  0.51419612285E+02 -0.18761954513E+03  0.19646285331E+03  0.00000000000E+00 0. -1.
         22    1    3    3    0    0  0.10252674510E+02 -0.20356590451E+02 -0.72530636906E+03  0.72566441080E+03  0.00000000000E+00 0. -1.
</event>
<event>
 7    1  0.6152634E-006  0.1169152E+03  0.7818608E-02  0.1333640E+00
          2   -1    0    0  502    0  0.00000000000E+00  0.00000000000E+00  0.30464441961E+04  0.30464441961E+04  0.00000000000E+00 0. -1.
          1   -1    0    0  501    0 -0.00000000000E+00 -0.00000000000E+00 -0.28829195213E+03  0.28829195213E+03  0.00000000000E+00 0. -1.
         25    2    1    2    0    0 -0.67065628376E+02 -0.15282647396E+03  0.25373479147E+03  0.32841991623E+03  0.12499826927E+03 0.  0.
          2    1    1    2  501    0  0.50667260839E+02  0.10286969261E+03 -0.23758458578E+03  0.26381012182E+03  0.00000000000E+00 0. -1.
          1    1    1    2  502    0  0.16398367537E+02  0.49956781356E+02  0.27420020382E+04  0.27425061101E+04  0.00000000000E+00 0. -1.
         22    1    3    3    0    0 -0.71237551662E+02 -0.16285648065E+03  0.26068678625E+03  0.31552277665E+03  0.00000000000E+00 0.  1.
         22    1    3    3    0    0  0.41719232862E+01  0.10030006684E+02 -0.69519947842E+01  0.12897139584E+02  0.00000000000E+00 0.  1.
</event>
<event>
 7    1  0.6152634E-006  0.9758512E+02  0.7818608E-02  0.1330589E+00
          2   -1    0    0  502    0  0.00000000000E+00  0.00000000000E+00  0.15247177378E+03  0.15247177378E+03  0.00000000000E+00 0. -1.
          1   -1    0    0  501    0 -0.00000000000E+00 -0.00000000000E+00 -0.18326000597E+04  0.18326000597E+04  0.00000000000E+00 0. -1.
         25    2    1    2    0    0 -0.37265522798E+02 -0.64105149788E+01 -0.99332959166E+03  0.10018775344E+04  0.12500040938E+03 0.  0.
          2    1    1    2  501    0 -0.59504848309E+02  0.25408334023E+02 -0.81716878328E+03  0.81972631456E+03  0.00000000000E+00 0. -1.
          1    1    1    2  502    0  0.96770371107E+02 -0.18997819045E+02  0.13037008903E+03  0.16346798453E+03  0.00000000000E+00 0. -1.
         22    1    3    3    0    0 -0.53668759637E+02  0.48102293058E+02 -0.63111829257E+03  0.63522001352E+03  0.00000000000E+00 0. -1.
         22    1    3    3    0    0  0.16403236840E+02 -0.54512808037E+02 -0.36221129909E+03  0.36665752086E+03  0.00000000000E+00 0. -1.
</event>
<event>
 7    1  0.6152634E-006  0.1170904E+03  0.7818608E-02  0.1421177E+00
          2   -1    0    0  502    0  0.00000000000E+00  0.00000000000E+00  0.98778422026E+02  0.98778422026E+02  0.00000000000E+00 0. -1.
          1   -1    0    0  501    0 -0.00000000000E+00 -0.00000000000E+00 -0.89108040692E+03  0.89108040692E+03  0.00000000000E+00 0. -1.
         25    2    1    2    0    0 -0.76502092151E+02  0.65308717098E+02  0.59095022868E+01  0.16055422244E+03  0.12499974997E+03 0.  0.
          2    1    1    2  501    0  0.10158702862E+03 -0.60091702800E+02 -0.79473080900E+03  0.80344756885E+03  0.00000000000E+00 0. -1.
          1    1    1    2  502    0 -0.25084936467E+02 -0.52170142975E+01 -0.34806781844E+01  0.25857037657E+02  0.00000000000E+00 0. -1.
         22    1    3    3    0    0 -0.10733425090E+03  0.49307850215E+02  0.25263334083E+02  0.12078965832E+03  0.00000000000E+00 0.  1.
         22    1    3    3    0    0  0.30832158746E+02  0.16000866883E+02 -0.19353831796E+02  0.39764564114E+02  0.00000000000E+00 0.  1.
</event>
<event>
 7    1  0.6152634E-006  0.9261858E+02  0.7818608E-02  0.1409619E+00
          2   -1    0    0  502    0  0.00000000000E+00  0.00000000000E+00  0.24222373527E+03  0.24222373527E+03  0.00000000000E+00 0. -1.
          1   -1    0    0  501    0 -0.00000000000E+00 -0.00000000000E+00 -0.60269842532E+03  0.60269842532E+03  0.00000000000E+00 0. -1.
         25    2    1    2    0    0 -0.73117382732E+02  0.25353885047E+02  0.20251939479E+02  0.14840401602E+03  0.12499855909E+03 0.  0.
          2    1    1    2  501    0 -0.23941181301E+02 -0.26108504155E+02 -0.52305011201E+03  0.52424827498E+03  0.00000000000E+00 0. -1.
          1    1    1    2  502    0  0.97058564033E+02  0.75461910821E+00  0.14232348248E+03  0.17226986959E+03  0.00000000000E+00 0. -1.
         22    1    3    3    0    0 -0.74714617382E+01 -0.23007703851E+02  0.54760417387E+02  0.59865520038E+02  0.00000000000E+00 0.  1.
         22    1    3    3    0    0 -0.65645920994E+02  0.48361588898E+02 -0.34508477908E+02  0.88538495986E+02  0.00000000000E+00 0.  1.
</event>
<event>
 7    1  0.6152634E-006  0.1170715E+03  0.7818608E-02  0.1422999E+00
          2   -1    0    0  502    0  0.00000000000E+00  0.00000000000E+00  0.50307348749E+03  0.50307348749E+03  0.00000000000E+00 0. -1.
          1   -1    0    0  501    0 -0.00000000000E+00 -0.00000000000E+00 -0.23081754944E+03  0.23081754944E+03  0.00000000000E+00 0. -1.
         25    2    1    2    0    0 -0.59406681256E+02 -0.11077572423E+03 -0.90113145914E+02  0.19885803364E+03  0.12499489439E+03 0.  0.
          2    1    1    2  501    0  0.69729862487E+02  0.87710247714E+02 -0.49423042180E+02  0.12246623361E+03  0.00000000000E+00 0. -1.
          1    1    1    2  502    0 -0.10323181232E+02  0.23065476513E+02  0.41179212615E+03  0.41256676967E+03  0.00000000000E+00 0. -1.
         22    1    3    3    0    0  0.33770024162E+02 -0.26425549401E+02  0.21644806018E+01  0.42934941124E+02  0.00000000000E+00 0. -1.
         22    1    3    3    0    0 -0.93176705418E+02 -0.84350174826E+02 -0.92277626516E+02  0.15592309252E+03  0.00000000000E+00 0. -1.
</event>
<event>
 7    1  0.6152634E-006  0.7492138E+02  0.7818608E-02  0.1455520E+00
          2   -1    0    0  502    0  0.00000000000E+00  0.00000000000E+00  0.19724859173E+04  0.19724859173E+04  0.00000000000E+00 0. -1.
          1   -1    0    0  501    0 -0.00000000000E+00 -0.00000000000E+00 -0.18731714677E+03  0.18731714677E+03  0.00000000000E+00 0. -1.
         25    2    1    2    0    0 -0.84937504664E+02  0.39917172678E+02  0.75006840837E+03  0.76618184098E+03  0.12499694334E+03 0.  0.
          2    1    1    2  501    0  0.29969916024E+02  0.77632261835E+01 -0.17682429336E+03  0.17951405034E+03  0.00000000000E+00 0. -1.
          1    1    1    2  502    0  0.54967588640E+02 -0.47680398861E+02  0.12119246555E+04  0.12141071728E+04  0.00000000000E+00 0. -1.
         22    1    3    3    0    0 -0.70387656918E+02 -0.11327027152E+02  0.63937675727E+03  0.64333922741E+03  0.00000000000E+00 0.  1.
         22    1    3    3    0    0 -0.14549847746E+02  0.51244199830E+02  0.11069165110E+03  0.12284261357E+03  0.00000000000E+00 0.  1.
</event>
<event>
 7    1  0.6152634E-006  0.1361016E+03  0.7818608E-02  0.1256972E+00
          2   -1    0    0  502    0  0.00000000000E+00  0.00000000000E+00  0.85060287589E+03  0.85060287589E+03  0.00000000000E+00 0. -1.
          1   -1    0    0  501    0 -0.00000000000E+00 -0.00000000000E+00 -0.15445497752E+04  0.15445497752E+04  0.00000000000E+00 0. -1.
         25    2    1    2    0    0  0.27201092184E+02 -0.18902813595E+03 -0.98596361988E+02  0.24863191494E+03  0.12500020373E+03 0.  0.
          2    1    1    2  501    0 -0.69161793034E+02  0.60836026950E+02 -0.13635054382E+04  0.13666131332E+04  0.00000000000E+00 0. -1.
          1    1    1    2  502    0  0.41960700850E+02  0.12819210900E+03  0.76815490094E+03  0.77990760290E+03  0.00000000000E+00 0. -1.
         22    1    3    3    0    0  0.54692444108E+02 -0.16690828807E+03 -0.39852324235E+02  0.18010510214E+03  0.00000000000E+00 0.  1.
         22    1    3    3    0    0 -0.27491351924E+02 -0.22119847877E+02 -0.58744037753E+02  0.68526812798E+02  0.00000000000E+00 0.  1.
</event>
<event>
 7    1  0.6152634E-006  0.5801033E+02  0.7818608E-02  0.1430054E+00
          2   -1    0    0  502    0  0.00000000000E+00  0.00000000000E+00  0.16888988708E+04  0.16888988708E+04  0.00000000000E+00 0. -1.
          1   -1    0    0  501    0 -0.00000000000E+00 -0.00000000000E+00 -0.36984337606E+03  0.36984337606E+03  0.00000000000E+00 0. -1.
         25    2    1    2    0    0  0.10448612077E+03 -0.98613961311E+01  0.27136819317E+02  0.16545777396E+03  0.12500108573E+03 0.  0.
          2    1    1    2  501    0 -0.56616588052E+02  0.32079535027E+01 -0.29763866559E+03  0.30299258120E+03  0.00000000000E+00 0. -1.
          1    1    1    2  502    0 -0.47869532713E+02  0.66534426283E+01  0.15895573410E+04  0.15902918917E+04  0.00000000000E+00 0. -1.
         22    1    3    3    0    0 -0.21008516590E+02  0.25117945079E+02  0.22423016889E+01  0.32822200584E+02  0.00000000000E+00 0.  1.
         22    1    3    3    0    0  0.12549463736E+03 -0.34979341210E+02  0.24894517628E+02  0.13263557337E+03  0.00000000000E+00 0.  1.
</event>
<event>
 7    1  0.6152634E-006  0.1556461E+03  0.7818608E-02  0.1271241E+00
          2   -1    0    0  502    0  0.00000000000E+00  0.00000000000E+00  0.40841387270E+04  0.40841387270E+04  0.00000000000E+00 0. -1.
          1   -1    0    0  501    0 -0.00000000000E+00 -0.00000000000E+00 -0.70198215765E+03  0.70198215765E+03  0.00000000000E+00 0. -1.
         25    2    1    2    0    0 -0.19010358243E+03  0.54550845010E+01 -0.20489876742E+03  0.30623406955E+03  0.12500668166E+03 0.  0.
          2    1    1    2  501    0  0.45953668669E+02  0.52897916573E+02 -0.44215682972E+03  0.44767464894E+03  0.00000000000E+00 0. -1.
          1    1    1    2  502    0  0.14414991376E+03 -0.58353001074E+02  0.40292121665E+04  0.40322121662E+04  0.00000000000E+00 0. -1.
         22    1    3    3    0    0 -0.62022131798E+02  0.36360069446E+02 -0.12390301559E+02  0.72954225756E+02  0.00000000000E+00 0. -1.
         22    1    3    3    0    0 -0.12808145063E+03 -0.30904984945E+02 -0.19250846586E+03  0.23327984379E+03  0.00000000000E+00 0. -1.
</event>
<event>
 7    1  0.6152634E-006  0.4871072E+02  0.7818608E-02  0.1503216E+00
          2   -1    0    0  502    0  0.00000000000E+00  0.00000000000E+00  0.16420769063E+04  0.16420769063E+04  0.00000000000E+00 0. -1.
          1   -1    0    0  501    0 -0.00000000000E+00 -0.00000000000E+00 -0.22666180092E+03  0.22666180092E+03  0.00000000000E+00 0. -1.
         25    2    1    2    0    0  0.52434752949E+02  0.22764024640E+01  0.13384843226E+04  0.13453329385E+04  0.12500339278E+03 0.  0.
          2    1    1    2  501    0 -0.11300432646E+02 -0.32051041289E+02 -0.21977446102E+03  0.22238656151E+03  0.00000000000E+00 0. -1.
          1    1    1    2  502    0 -0.41134320303E+02  0.29774638825E+02  0.29670524385E+03  0.30101920728E+03  0.00000000000E+00 0. -1.
         22    1    3    3    0    0 -0.25801281157E+02  0.34267914235E+02  0.69478661909E+03  0.69610950441E+03  0.00000000000E+00 0. -1.
         22    1    3    3    0    0  0.78236034106E+02 -0.31991511771E+02  0.64369770349E+03  0.64922343407E+03  0.00000000000E+00 0. -1.
</event>
<event>
 7    1  0.6152634E-006  0.7627885E+02  0.7818608E-02  0.1427752E+00
          2   -1    0    0  502    0  0.00000000000E+00  0.00000000000E+00  0.10557407373E+03  0.10557407373E+03  0.00000000000E+00 0. -1.
          1   -1    0    0  501    0 -0.00000000000E+00 -0.00000000000E+00 -0.25108321453E+03  0.25108321453E+03  0.00000000000E+00 0. -1.
         25    2    1    2    0    0 -0.63512122402E+02  0.55496747238E+02 -0.97177743853E+02  0.17938246680E+03  0.12498350631E+03 0.  0.
          2    1    1    2  501    0  0.29023836119E+02 -0.69971674190E+02 -0.92393757379E+02  0.11947813463E+03  0.00000000000E+00 0. -1.
          1    1    1    2  502    0  0.34488286283E+02  0.14474926952E+02  0.44062360438E+02  0.57796686829E+02  0.00000000000E+00 0. -1.
         22    1    3    3    0    0 -0.26983612860E+02  0.22939687314E+02 -0.12019735939E+03  0.12530662321E+03  0.00000000000E+00 0. -1.
         22    1    3    3    0    0 -0.36528509542E+02  0.32557059924E+02  0.23019615537E+02  0.54075843588E+02  0.00000000000E+00 0. -1.
</event>
<event>
 7    1  0.6152634E-006  0.3073249E+02  0.7818608E-02  0.1655625E+00
          2   -1    0    0  502    0  0.00000000000E+00  0.00000000000E+00  0.58944795133E+03  0.58944795133E+03  0.00000000000E+00 0. -1.
          1   -1    0    0  501    0 -0.00000000000E+00 -0.00000000000E+00 -0.29718934036E+03  0.29718934036E+03  0.00000000000E+00 0. -1.
         25    2    1    2    0    0  0.28802765161E+02 -0.42767671466E+02  0.26604112007E+03  0.29842948642E+03  0.12499443105E+03 0.  0.
          2    1    1    2  501    0 -0.18177245609E+02  0.24703929241E+02 -0.27979877037E+03  0.28147477378E+03  0.00000000000E+00 0. -1.
          1    1    1    2  502    0 -0.10625519552E+02  0.18063742224E+02  0.30601626127E+03  0.30673303149E+03  0.00000000000E+00 0. -1.
         22    1    3    3    0    0 -0.43655827429E+02 -0.25814913315E+02  0.55788421717E+02  0.75396213536E+02  0.00000000000E+00 0. -1.
         22    1    3    3    0    0  0.72458592590E+02 -0.16952758151E+02  0.21025269835E+03  0.22303327288E+03  0.00000000000E+00 0. -1.
</event>
<event>
 7    1  0.6152634E-006  0.1055049E+03  0.7818608E-02  0.1308704E+00
          2   -1    0    0  502    0  0.00000000000E+00  0.00000000000E+00  0.22222312216E+03  0.22222312216E+03  0.00000000000E+00 0. -1.
          1   -1    0    0  501    0 -0.00000000000E+00 -0.00000000000E+00 -0.12862069719E+04  0.12862069719E+04  0.00000000000E+00 0. -1.
         25    2    1    2    0    0  0.56274919686E+02  0.32915499096E+02 -0.18577429441E+02  0.14220003793E+03  0.12500173293E+03 0.  0.
          2    1    1    2  501    0 -0.13443000600E+01  0.72764654992E+02 -0.11824359920E+04  0.11846735320E+04  0.00000000000E+00 0. -1.
          1    1    1    2  502    0 -0.54930619626E+02 -0.10568015409E+03  0.13702957172E+03  0.18155652416E+03  0.00000000000E+00 0. -1.
         22    1    3    3    0    0  0.19955816983E+02 -0.13379848865E+02 -0.63679616588E+02  0.68061358757E+02  0.00000000000E+00 0. -1.
         22    1    3    3    0    0  0.36319102703E+02  0.46295347961E+02  0.45102187147E+02  0.74138679172E+02  0.00000000000E+00 0. -1.
</event>
<event>
 7    1  0.6152634E-006  0.6601049E+02  0.7818608E-02  0.1486262E+00
          2   -1    0    0  502    0  0.00000000000E+00  0.00000000000E+00  0.86422167152E+03  0.86422167152E+03  0.00000000000E+00 0. -1.
          1   -1    0    0  501    0 -0.00000000000E+00 -0.00000000000E+00 -0.52411276381E+03  0.52411276381E+03  0.00000000000E+00 0. -1.
         25    2    1    2    0    0  0.15242186890E+02  0.35632438931E+02  0.20485425567E+03  0.24308923462E+03  0.12500045983E+03 0.  0.
          2    1    1    2  501    0 -0.18496769794E+02 -0.63644699198E+02 -0.50250767503E+03  0.50685968640E+03  0.00000000000E+00 0. -1.
          1    1    1    2  502    0  0.32545829040E+01  0.28012260267E+02  0.63776232707E+03  0.63838551430E+03  0.00000000000E+00 0. -1.
         22    1    3    3    0    0 -0.37133734809E+02 -0.18068114205E+02  0.25136774996E+02  0.48344890826E+02  0.00000000000E+00 0.  1.
         22    1    3    3    0    0  0.52375921699E+02  0.53700553135E+02  0.17971748068E+03  0.19474434380E+03  0.00000000000E+00 0.  1.
</event>
<event>
 7    1  0.6152634E-006  0.3902867E+02  0.7818608E-02  0.1520656E+00
          2   -1    0    0  502    0  0.00000000000E+00  0.00000000000E+00  0.81081790164E+03  0.81081790164E+03  0.00000000000E+00 0. -1.
          1   -1    0    0  501    0 -0.00000000000E+00 -0.00000000000E+00 -0.56196788662E+02  0.56196788662E+02  0.00000000000E+00 0. -1.
         25    2    1    2    0    0  0.17579862567E+02 -0.13101976841E+02  0.13295297983E+03  0.18379796974E+03  0.12499794185E+03 0.  0.
          2    1    1    2  501    0 -0.33284032121E+02 -0.22627784567E+02 -0.16759459283E+02  0.43597280926E+02  0.00000000000E+00 0. -1.
          1    1    1    2  502    0  0.15704169554E+02  0.35729761409E+02  0.63842759243E+03  0.63961943964E+03  0.00000000000E+00 0. -1.
         22    1    3    3    0    0 -0.10726218157E+02 -0.65653525126E+02  0.60464812447E+02  0.89896777816E+02  0.00000000000E+00 0. -1.
         22    1    3    3    0    0  0.28306080725E+02  0.52551548285E+02  0.72488167388E+02  0.93901191922E+02  0.00000000000E+00 0. -1.
</event>
<event>
 7    1  0.6152634E-006  0.5539276E+02  0.7818608E-02  0.1450550E+00
          2   -1    0    0  502    0  0.00000000000E+00  0.00000000000E+00  0.32737283611E+02  0.32737283611E+02  0.00000000000E+00 0. -1.
          1   -1    0    0  501    0 -0.00000000000E+00 -0.00000000000E+00 -0.17172276516E+04  0.17172276516E+04  0.00000000000E+00 0. -1.
         25    2    1    2    0    0  0.51066106137E+02  0.69249725679E+02 -0.17707116422E+03  0.23319659110E+03  0.12499272459E+03 0.  0.
          2    1    1    2  501    0 -0.10416870642E+02 -0.53963200873E+02 -0.13975091661E+04  0.13985894350E+04  0.00000000000E+00 0. -1.
          1    1    1    2  502    0 -0.40649235495E+02 -0.15286524806E+02 -0.10991003761E+03  0.11817890909E+03  0.00000000000E+00 0. -1.
         22    1    3    3    0    0 -0.34440291425E+02  0.33371320884E+02 -0.10607007371E+03  0.11640721312E+03  0.00000000000E+00 0.  1.
         22    1    3    3    0    0  0.85506397561E+02  0.35878404795E+02 -0.71001090513E+02  0.11678937798E+03  0.00000000000E+00 0.  1.
</event>
<event>
 7    1  0.6152634E-006  0.9541807E+02  0.7818608E-02  0.1392259E+00
          2   -1    0    0  502    0  0.00000000000E+00  0.00000000000E+00  0.10066903603E+04  0.10066903603E+04  0.00000000000E+00 0. -1.
          1   -1    0    0  501    0 -0.00000000000E+00 -0.00000000000E+00 -0.15708479808E+04  0.15708479808E+04  0.00000000000E+00 0. -1.
         25    2    1    2    0    0 -0.68984850068E+02  0.87169361084E+02  0.43883380143E+03  0.46963524884E+03  0.12499901850E+03 0.  0.
          2    1    1    2  501    0  0.29695297529E+02 -0.90649404752E+02 -0.15532782334E+04  0.15562044839E+04  0.00000000000E+00 0. -1.
          1    1    1    2  502    0  0.39289552539E+02  0.34800436680E+01  0.55028681148E+03  0.55169860842E+03  0.00000000000E+00 0. -1.
         22    1    3    3    0    0 -0.37952519244E+02 -0.20973795407E+02  0.21251720238E+03  0.21689595460E+03  0.00000000000E+00 0.  1.
         22    1    3    3    0    0 -0.31032330824E+02  0.10814315649E+03  0.22631659904E+03  0.25273929424E+03  0.00000000000E+00 0.  1.
</event>
<event>
 7    1  0.6152634E-006  0.4160709E+02  0.7818608E-02  0.1580365E+00
          2   -1    0    0  502    0  0.00000000000E+00  0.00000000000E+00  0.10199700681E+03  0.10199700681E+03  0.00000000000E+00 0. -1.
          1   -1    0    0  501    0 -0.00000000000E+00 -0.00000000000E+00 -0.14406437999E+04  0.14406437999E+04  0.00000000000E+00 0. -1.
         25    2    1    2    0    0  0.56656532770E+02 -0.29482694070E+02 -0.22341203969E+03  0.26385011707E+03  0.12499901138E+03 0.  0.
          2    1    1    2  501    0 -0.39155752546E+02  0.12912173429E+02 -0.11948736872E+04  0.11955848049E+04  0.00000000000E+00 0. -1.
          1    1    1    2  502    0 -0.17500780224E+02  0.16570520642E+02  0.79638933887E+02  0.83205884729E+02  0.00000000000E+00 0. -1.
         22    1    3    3    0    0  0.54172645580E+02 -0.75850149208E+02 -0.13608649406E+03  0.16494682334E+03  0.00000000000E+00 0. -1.
         22    1    3    3    0    0  0.24838871893E+01  0.46367455138E+02 -0.87325545627E+02  0.98903293730E+02  0.00000000000E+00 0. -1.
</event>
<event>
 7    1  0.6729256E-006  0.1589935E+03  0.7818608E-02  0.1277439E+00
          2   -1    0    0  502    0  0.00000000000E+00  0.00000000000E+00  0.28947097707E+04  0.28947097707E+04  0.00000000000E+00 0. -1.
          1   -1    0    0  501    0 -0.00000000000E+00 -0.00000000000E+00 -0.82928250360E+03  0.82928250360E+03  0.00000000000E+00 0. -1.
         25    2    1    2    0    0  0.12650085408E+03  0.12495722109E+03 -0.19909811134E+03  0.29475937495E+03  0.12500503187E+03 0.  0.
          2    1    1    2  501    0 -0.64467425596E+02 -0.14309950075E+03 -0.57140389160E+03  0.59256723114E+03  0.00000000000E+00 0. -1.
          1    1    1    2  502    0 -0.62033428485E+02  0.18142279660E+02  0.28359292701E+04  0.28366656683E+04  0.00000000000E+00 0. -1.
         22    1    3    3    0    0  0.16355939861E+02  0.63708989589E+02 -0.14180893552E+03  0.15632058827E+03  0.00000000000E+00 0. -1.
         22    1    3    3    0    0  0.11014491422E+03  0.61248231503E+02 -0.57289175821E+02  0.13843878668E+03  0.00000000000E+00 0. -1.
</event>
<event>
 7    1  0.6152634E-006  0.6875408E+02  0.7818608E-02  0.1454709E+00
          2   -1    0    0  502    0  0.00000000000E+00  0.00000000000E+00  0.12740949064E+04  0.12740949064E+04  0.00000000000E+00 0. -1.
          1   -1    0    0  501    0 -0.00000000000E+00 -0.00000000000E+00 -0.96651573433E+03  0.96651573433E+03  0.00000000000E+00 0. -1.
         25    2    1    2    0    0  0.20537371978E+02 -0.35645973800E+02  0.31795920722E+03  0.34411584241E+03  0.12500094576E+03 0.  0.
          2    1    1    2  501    0 -0.53618321079E+02  0.43219379786E+02 -0.95188768717E+03  0.95437571644E+03  0.00000000000E+00 0. -1.
          1    1    1    2  502    0  0.33080949101E+02 -0.75734059857E+01  0.94150765199E+03  0.94211908187E+03  0.00000000000E+00 0. -1.
         22    1    3    3    0    0  0.46494528275E+02 -0.41128757964E+02  0.65407798304E+02  0.90174807846E+02  0.00000000000E+00 0. -1.
         22    1    3    3    0    0 -0.25957156297E+02  0.54827841639E+01  0.25255140892E+03  0.25394103456E+03  0.00000000000E+00 0. -1.
</event>
<event>
 7    1  0.6152634E-006  0.1940739E+03  0.7818608E-02  0.1175537E+00
          2   -1    0    0  502    0  0.00000000000E+00  0.00000000000E+00  0.12721201567E+04  0.12721201567E+04  0.00000000000E+00 0. -1.
          1   -1    0    0  501    0 -0.00000000000E+00 -0.00000000000E+00 -0.11584552329E+04  0.11584552329E+04  0.00000000000E+00 0. -1.
         25    2    1    2    0    0 -0.63459413398E+02  0.11445329997E+03 -0.33230483754E+03  0.37838845922E+03  0.12499866396E+03 0.  0.
          2    1    1    2  501    0  0.16307185795E+02 -0.25985310487E+03 -0.77712341827E+03  0.81957938459E+03  0.00000000000E+00 0. -1.
          1    1    1    2  502    0  0.47152227603E+02  0.14539980490E+03  0.12230931797E+04  0.12326075458E+04  0.00000000000E+00 0. -1.
         22    1    3    3    0    0 -0.90230738847E+02  0.77755485576E+02 -0.15570267008E+03  0.19603781074E+03  0.00000000000E+00 0.  1.
         22    1    3    3    0    0  0.26771325449E+02  0.36697814390E+02 -0.17660216746E+03  0.18235064847E+03  0.00000000000E+00 0.  1.
</event>
<event>
 7    1  0.6152634E-006  0.1138596E+03  0.7818608E-02  0.1336398E+00
          2   -1    0    0  502    0  0.00000000000E+00  0.00000000000E+00  0.32540973895E+04  0.32540973895E+04  0.00000000000E+00 0. -1.
          1   -1    0    0  501    0 -0.00000000000E+00 -0.00000000000E+00 -0.23328326968E+03  0.23328326968E+03  0.00000000000E+00 0. -1.
         25    2    1    2    0    0  0.12964934114E+03  0.91545771603E+02  0.37573886497E+03  0.42660783578E+03  0.12499988377E+03 0.  0.
          2    1    1    2  501    0 -0.10213819551E+03 -0.46589183944E+02 -0.19242761005E+03  0.22278049321E+03  0.00000000000E+00 0. -1.
          1    1    1    2  502    0 -0.27511145627E+02 -0.44956587659E+02  0.28375028649E+04  0.28379923301E+04  0.00000000000E+00 0. -1.
         22    1    3    3    0    0  0.11797956973E+02  0.43212923769E+02  0.22426736416E+03  0.22869717794E+03  0.00000000000E+00 0. -1.
         22    1    3    3    0    0  0.11785138417E+03  0.48332847834E+02  0.15147150081E+03  0.19791065784E+03  0.00000000000E+00 0. -1.
</event>
<event>
 7    1  0.6152634E-006  0.2252122E+03  0.7818608E-02  0.1238491E+00
          2   -1    0    0  502    0  0.00000000000E+00  0.00000000000E+00  0.26123564935E+04  0.26123564935E+04  0.00000000000E+00 0. -1.
          1   -1    0    0  501    0 -0.00000000000E+00 -0.00000000000E+00 -0.76385334933E+03  0.76385334933E+03  0.00000000000E+00 0. -1.
         25    2    1    2    0    0 -0.15896219727E+03  0.18166450666E+03 -0.64757206886E+03  0.70231465823E+03  0.12500128662E+03 0.  0.
          2    1    1    2  501    0  0.11501127699E+03 -0.13109834841E+03 -0.25067211454E+01  0.17441517836E+03  0.00000000000E+00 0. -1.
          1    1    1    2  502    0  0.43950920276E+02 -0.50566158251E+02  0.24985819341E+04  0.24994800062E+04  0.00000000000E+00 0. -1.
         22    1    3    3    0    0 -0.14839818365E+03  0.17439164818E+03 -0.45553315839E+03  0.50984794425E+03  0.00000000000E+00 0. -1.
         22    1    3    3    0    0 -0.10564013617E+02  0.72728584780E+01 -0.19203891048E+03  0.19246671398E+03  0.00000000000E+00 0. -1.
</event>
<event>
 7    1  0.6152634E-006  0.9296238E+02  0.7818608E-02  0.1330542E+00
          2   -1    0    0  502    0  0.00000000000E+00  0.00000000000E+00  0.13926391302E+04  0.13926391302E+04  0.00000000000E+00 0. -1.
          1   -1    0    0  501    0 -0.00000000000E+00 -0.00000000000E+00 -0.12219041348E+03  0.12219041348E+03  0.00000000000E+00 0. -1.
         25    2    1    2    0    0 -0.14541981580E+03  0.47945907483E+02  0.43721553340E+03  0.47982714698E+03  0.12502373959E+03 0.  0.
          2    1    1    2  501    0  0.77484767696E+02 -0.46619296631E+02 -0.79100362504E+02  0.12014206337E+03  0.00000000000E+00 0. -1.
          1    1    1    2  502    0  0.67935048108E+02 -0.13266108524E+01  0.91233354585E+03  0.91486033335E+03  0.00000000000E+00 0. -1.
         22    1    3    3    0    0 -0.11798348127E+03  0.42411434394E+01  0.39763952202E+03  0.41479546601E+03  0.00000000000E+00 0. -1.
         22    1    3    3    0    0 -0.27436334535E+02  0.43704764044E+02  0.39576011373E+02  0.65031680964E+02  0.00000000000E+00 0. -1.
</event>
<event>
 7    1  0.6152634E-006  0.3395911E+02  0.7818608E-02  0.1580614E+00
          2   -1    0    0  502    0  0.00000000000E+00  0.00000000000E+00  0.13081573601E+04  0.13081573601E+04  0.00000000000E+00 0. -1.
          1   -1    0    0  501    0 -0.00000000000E+00 -0.00000000000E+00 -0.13588656330E+04  0.13588656330E+04  0.00000000000E+00 0. -1.
         25    2    1    2    0    0  0.73804515392E+01 -0.95436996372E+01 -0.22022996974E+02  0.12749547355E+03  0.12499812043E+03 0.  0.
          2    1    1    2  501    0  0.26494384659E+02  0.12935373151E+02 -0.12837062980E+04  0.12840448340E+04  0.00000000000E+00 0. -1.
          1    1    1    2  502    0 -0.33874836198E+02 -0.33916735133E+01  0.12550210220E+04  0.12554826855E+04  0.00000000000E+00 0. -1.
         22    1    3    3    0    0 -0.49315612966E+02 -0.13010143782E+02  0.22084888145E+02  0.55579095061E+02  0.00000000000E+00 0.  1.
         22    1    3    3    0    0  0.56696064505E+02  0.34664441451E+01 -0.44107885119E+02  0.71916378489E+02  0.00000000000E+00 0.  1.
</event>
<event>
 7    1  0.6152634E-006  0.4634881E+02  0.7818608E-02  0.1482017E+00
          2   -1    0    0  502    0  0.00000000000E+00  0.00000000000E+00  0.10881028014E+03  0.10881028014E+03  0.00000000000E+00 0. -1.
          1   -1    0    0  501    0 -0.00000000000E+00 -0.00000000000E+00 -0.25759678301E+03  0.25759678301E+03  0.00000000000E+00 0. -1.
         25    2    1    2    0    0 -0.30964120758E+02 -0.97873961595E+01 -0.38447836713E+02  0.13475253820E+03  0.12500176200E+03 0.  0.
          2    1    1    2  501    0  0.37144170623E+02 -0.31127539702E+02 -0.15990436386E+03  0.16708685981E+03  0.00000000000E+00 0. -1.
          1    1    1    2  502    0 -0.61800498655E+01  0.40914935862E+02  0.49565697705E+02  0.64567665142E+02  0.00000000000E+00 0. -1.
         22    1    3    3    0    0 -0.23910447770E+02 -0.64054068391E+02 -0.41436890388E+02  0.79947789682E+02  0.00000000000E+00 0.  1.
         22    1    3    3    0    0 -0.70536729877E+01  0.54266672232E+02  0.29890536746E+01  0.54804748513E+02  0.00000000000E+00 0.  1.
</event>
<event>
 7    1  0.6152634E-006  0.8341219E+02  0.7818608E-02  0.1457008E+00
          2   -1    0    0  502    0  0.00000000000E+00  0.00000000000E+00  0.77705525314E+03  0.77705525314E+03  0.00000000000E+00 0. -1.
          1   -1    0    0  501    0 -0.00000000000E+00 -0.00000000000E+00 -0.26872541538E+04  0.26872541538E+04  0.00000000000E+00 0. -1.
         25    2    1    2    0    0  0.18791256233E+02  0.85210590839E+02 -0.60524697943E+02  0.16401232915E+03  0.12499139551E+03 0.  0.
          2    1    1    2  501    0 -0.42722793496E+02 -0.71648719097E+02 -0.25740489162E+04  0.25754002793E+04  0.00000000000E+00 0. -1.
          1    1    1    2  502    0  0.23931537262E+02 -0.13561871742E+02  0.72437471347E+03  0.72489679842E+03  0.00000000000E+00 0. -1.
         22    1    3    3    0    0  0.25583679296E+02 -0.22716165318E+02 -0.42206160586E+02  0.54331471584E+02  0.00000000000E+00 0.  1.
         22    1    3    3    0    0 -0.67924230627E+01  0.10792675616E+03 -0.18318537357E+02  0.10968085757E+03  0.00000000000E+00 0.  1.
</event>
<event>
 7    1  0.6152634E-006  0.7095447E+02  0.7818608E-02  0.1386947E+00
          2   -1    0    0  502    0  0.00000000000E+00  0.00000000000E+00  0.13759243462E+03  0.13759243462E+03  0.00000000000E+00 0. -1.
          1   -1    0    0  501    0 -0.00000000000E+00 -0.00000000000E+00 -0.23140182471E+04  0.23140182471E+04  0.00000000000E+00 0. -1.
         25    2    1    2    0    0  0.12164348287E+03  0.21830135059E+02 -0.11527417849E+04  0.11660669679E+04  0.12499943751E+03 0.  0.
          2    1    1    2  501    0 -0.55314635480E+02  0.21641416872E+01 -0.11443962117E+04  0.11457342981E+04  0.00000000000E+00 0. -1.
          1    1    1    2  502    0 -0.66328847391E+02 -0.23994276746E+02  0.12071218414E+03  0.13980941568E+03  0.00000000000E+00 0. -1.
         22    1    3    3    0    0  0.15991351060E+02 -0.17610230519E+01 -0.71351852626E+03  0.71369987518E+03  0.00000000000E+00 0.  1.
         22    1    3    3    0    0  0.10565213181E+03  0.23591158111E+02 -0.43922325860E+03  0.45236709274E+03  0.00000000000E+00 0.  1.
</event>
<event>
 7    1  0.6152634E-006  0.1251817E+03  0.7818608E-02  0.1256438E+00
          2   -1    0    0  502    0  0.00000000000E+00  0.00000000000E+00  0.12416073024E+04  0.12416073024E+04  0.00000000000E+00 0. -1.
          1   -1    0    0  501    0 -0.00000000000E+00 -0.00000000000E+00 -0.13249766006E+03  0.13249766006E+03  0.00000000000E+00 0. -1.
         25    2    1    2    0    0  0.88451731265E+02 -0.21743438603E+02  0.11632912401E+03  0.19353176711E+03  0.12500237558E+03 0.  0.
          2    1    1    2  501    0 -0.29316900033E+02 -0.96312310537E+02 -0.61554776548E+02  0.11800225551E+03  0.00000000000E+00 0. -1.
          1    1    1    2  502    0 -0.59134831232E+02  0.11805574914E+03  0.10543352949E+04  0.10625709398E+04  0.00000000000E+00 0. -1.
         22    1    3    3    0    0  0.31100360497E+02 -0.13924575121E+02 -0.24036721168E+02  0.41700002157E+02  0.00000000000E+00 0.  1.
         22    1    3    3    0    0  0.57351370768E+02 -0.78188634818E+01  0.14036584518E+03  0.15183176495E+03  0.00000000000E+00 0.  1.
</event>
<event>
 7    1  0.6152634E-006  0.1214059E+03  0.7818608E-02  0.1279673E+00
          2   -1    0    0  502    0  0.00000000000E+00  0.00000000000E+00  0.18391098297E+04  0.18391098297E+04  0.00000000000E+00 0. -1.
          1   -1    0    0  501    0 -0.00000000000E+00 -0.00000000000E+00 -0.28311278987E+04  0.28311278987E+04  0.00000000000E+00 0. -1.
         25    2    1    2    0    0 -0.10048724597E+03 -0.13664011223E+03 -0.10056843563E+04  0.10275187067E+04  0.12500184464E+03 0.  0.
          2    1    1    2  501    0  0.10231690048E+03  0.53802125619E+02 -0.18117444605E+04  0.18154287116E+04  0.00000000000E+00 0. -1.
          1    1    1    2  502    0 -0.18296545001E+01  0.82837986610E+02  0.18254107478E+04  0.18272903102E+04  0.00000000000E+00 0. -1.
         22    1    3    3    0    0 -0.42261074437E+02 -0.52137587902E+02 -0.13453867193E+03  0.15034952853E+03  0.00000000000E+00 0. -1.
         22    1    3    3    0    0 -0.58226171537E+02 -0.84502524328E+02 -0.87114568439E+03  0.87716917815E+03  0.00000000000E+00 0. -1.
</event>
<event>
 7    1  0.6152634E-006  0.7718716E+02  0.7818608E-02  0.1400534E+00
          2   -1    0    0  502    0  0.00000000000E+00  0.00000000000E+00  0.29001602666E+03  0.29001602666E+03  0.00000000000E+00 0. -1.
          1   -1    0    0  501    0 -0.00000000000E+00 -0.00000000000E+00 -0.18004001555E+04  0.18004001555E+04  0.00000000000E+00 0. -1.
         25    2    1    2    0    0  0.23461072114E-01 -0.11958038944E+03 -0.21677355695E+03  0.27733654859E+03  0.12500126441E+03 0.  0.
          2    1    1    2  501    0  0.10587039839E+02  0.75179251668E+02 -0.15504030868E+04  0.15522608469E+04  0.00000000000E+00 0. -1.
          1    1    1    2  502    0 -0.10610500911E+02  0.44401137775E+02  0.25679251490E+03  0.26081878666E+03  0.00000000000E+00 0. -1.
         22    1    3    3    0    0 -0.55636259049E+02 -0.91054385772E+02 -0.16317815539E+03  0.19497026667E+03  0.00000000000E+00 0.  1.
         22    1    3    3    0    0  0.55659720121E+02 -0.28526003672E+02 -0.53595401554E+02  0.82366281919E+02  0.00000000000E+00 0.  1.
</event>
<event>
 7    1  0.6152634E-006  0.2943497E+02  0.7818608E-02  0.1624027E+00
          2   -1    0    0  502    0  0.00000000000E+00  0.00000000000E+00  0.14153378170E+04  0.14153378170E+04  0.00000000000E+00 0. -1.
          1   -1    0    0  501    0 -0.00000000000E+00 -0.00000000000E+00 -0.13576119342E+03  0.13576119342E+03  0.00000000000E+00 0. -1.
         25    2    1    2    0    0  0.78142894728E+01  0.56330111134E+01  0.36890574566E+03  0.38962620917E+03  0.12499735899E+03 0.  0.
          2    1    1    2  501    0  0.19826329414E+02 -0.17151197359E+02 -0.12381184107E+03  0.12655678132E+03  0.00000000000E+00 0. -1.
          1    1    1    2  502    0 -0.27640618887E+02  0.11518186246E+02  0.10344827190E+04  0.10349160199E+04  0.00000000000E+00 0. -1.
         22    1    3    3    0    0  0.54994116639E+02  0.18219156137E+02  0.29770956116E+03  0.30329403773E+03  0.00000000000E+00 0. -1.
         22    1    3    3    0    0 -0.47179827166E+02 -0.12586145024E+02  0.71196184494E+02  0.86332171434E+02  0.00000000000E+00 0. -1.
</event>
<event>
 7    1  0.6152634E-006  0.1428590E+03  0.7818608E-02  0.1227507E+00
          2   -1    0    0  502    0  0.00000000000E+00  0.00000000000E+00  0.56769661579E+03  0.56769661579E+03  0.00000000000E+00 0. -1.
          1   -1    0    0  501    0 -0.00000000000E+00 -0.00000000000E+00 -0.37532306066E+03  0.37532306066E+03  0.00000000000E+00 0. -1.
         25    2    1    2    0    0  0.91654799567E+02  0.12782773380E+03  0.35420760336E+03  0.40722001433E+03  0.12499832792E+03 0.  0.
          2    1    1    2  501    0 -0.14261722428E+03 -0.21138409659E+02 -0.31257332492E+03  0.34422171413E+03  0.00000000000E+00 0. -1.
          1    1    1    2  502    0  0.50962424718E+02 -0.10668932414E+03  0.15073927668E+03  0.19157794798E+03  0.00000000000E+00 0. -1.
         22    1    3    3    0    0  0.18254086233E+02 -0.11204471780E+02  0.19950792211E+01  0.21511210871E+02  0.00000000000E+00 0.  1.
         22    1    3    3    0    0  0.73400713334E+02  0.13903220557E+03  0.35221252414E+03  0.38570880346E+03  0.00000000000E+00 0.  1.
</event>
<event>
 7    1  0.6152634E-006  0.2697486E+02  0.7818608E-02  0.1658954E+00
          2   -1    0    0  502    0  0.00000000000E+00  0.00000000000E+00  0.25346646863E+03  0.25346646863E+03  0.00000000000E+00 0. -1.
          1   -1    0    0  501    0 -0.00000000000E+00 -0.00000000000E+00 -0.54784639535E+03  0.54784639535E+03  0.00000000000E+00 0. -1.
         25    2    1    2    0    0 -0.16217524401E+02 -0.44113756143E+02  0.92788424660E+02  0.16260834078E+03  0.12499099632E+03 0.  0.
          2    1    1    2  501    0  0.28654519528E+00  0.26925302802E+02 -0.51148744506E+03  0.51219572479E+03  0.00000000000E+00 0. -1.
          1    1    1    2  502    0  0.15930979205E+02  0.17188453342E+02  0.12431909367E+03  0.12650879842E+03  0.00000000000E+00 0. -1.
         22    1    3    3    0    0  0.28273167304E+02 -0.24570585640E+02  0.10585621007E+03  0.11228812439E+03  0.00000000000E+00 0. -1.
         22    1    3    3    0    0 -0.44490691704E+02 -0.19543170503E+02 -0.13067785413E+02  0.50320216387E+02  0.00000000000E+00 0. -1.
</event>
<event>
 7    1  0.6152634E-006  0.7136489E+02  0.7818608E-02  0.1456731E+00
          2   -1    0    0  502    0  0.00000000000E+00  0.00000000000E+00  0.18119229318E+03  0.18119229318E+03  0.00000000000E+00 0. -1.
          1   -1    0    0  501    0 -0.00000000000E+00 -0.00000000000E+00 -0.21177032964E+03  0.21177032964E+03  0.00000000000E+00 0. -1.
         25    2    1    2    0    0  0.65754994792E+02 -0.60812225574E+02 -0.96066212185E+02  0.18131697414E+03  0.12500112747E+03 0.  0.
          2    1    1    2  501    0 -0.58810678771E+02  0.29353806458E+02 -0.55757467092E+02  0.86193021919E+02  0.00000000000E+00 0. -1.
          1    1    1    2  502    0 -0.69443160206E+01  0.31458419116E+02  0.12124564282E+03  0.12545262676E+03  0.00000000000E+00 0. -1.
         22    1    3    3    0    0  0.76684135741E+02 -0.66680242983E+00 -0.92398686457E+02  0.12007671947E+03  0.00000000000E+00 0.  1.
         22    1    3    3    0    0 -0.10929140949E+02 -0.60145423144E+02 -0.36675257285E+01  0.61240254670E+02  0.00000000000E+00 0.  1.
</event>
<event>
 7    1  0.6152634E-006  0.1617211E+03  0.7818608E-02  0.1389939E+00
          2   -1    0    0  502    0  0.00000000000E+00  0.00000000000E+00  0.10730021382E+04  0.10730021382E+04  0.00000000000E+00 0. -1.
          1   -1    0    0  501    0 -0.00000000000E+00 -0.00000000000E+00 -0.13959641610E+04  0.13959641610E+04  0.00000000000E+00 0. -1.
         25    2    1    2    0    0 -0.11079791024E+03  0.12413992649E+03  0.52681373445E+02  0.21467730614E+03  0.12499648155E+03 0.  0.
          2    1    1    2  501    0 -0.12632057817E+02 -0.20064084420E+02 -0.13079203202E+04  0.13081351996E+04  0.00000000000E+00 0. -1.
          1    1    1    2  502    0  0.12342996806E+03 -0.10407584207E+03  0.93227692397E+03  0.94615379346E+03  0.00000000000E+00 0. -1.
         22    1    3    3    0    0 -0.85028512501E+02  0.21687139685E+02 -0.15266249552E+02  0.89068728189E+02  0.00000000000E+00 0.  1.
         22    1    3    3    0    0 -0.25769397743E+02  0.10245278681E+03  0.67947622997E+02  0.12560857795E+03  0.00000000000E+00 0.  1.
</event>
<event>
 7    1  0.6152634E-006  0.1257220E+03  0.7818608E-02  0.1241239E+00
          2   -1    0    0  502    0  0.00000000000E+00  0.00000000000E+00  0.21515138100E+03  0.21515138100E+03  0.00000000000E+00 0. -1.
          1   -1    0    0  501    0 -0.00000000000E+00 -0.00000000000E+00 -0.54519190987E+03  0.54519190987E+03  0.00000000000E+00 0. -1.
         25    2    1    2    0    0 -0.43160735950E+01  0.30473280331E+02 -0.16136501433E+03  0.20645238024E+03  0.12504666389E+03 0.  0.
          2    1    1    2  501    0  0.12374512092E+03  0.22207530655E+02 -0.32603733851E+03  0.34943722680E+03  0.00000000000E+00 0. -1.
          1    1    1    2  502    0 -0.11942904733E+03 -0.52680810986E+02  0.15736182397E+03  0.20445368384E+03  0.00000000000E+00 0. -1.
         22    1    3    3    0    0  0.19017993782E+02 -0.36495504283E+02 -0.11392549368E+03  0.12113060732E+03  0.00000000000E+00 0. -1.
         22    1    3    3    0    0 -0.23334067377E+02  0.66968784614E+02 -0.47439520651E+02  0.85321772911E+02  0.00000000000E+00 0. -1.
</event>
<event>
 7    1  0.6152634E-006  0.1464723E+03  0.7818608E-02  0.1287167E+00
          2   -1    0    0  502    0  0.00000000000E+00  0.00000000000E+00  0.22840321408E+04  0.22840321408E+04  0.00000000000E+00 0. -1.
          1   -1    0    0  501    0 -0.00000000000E+00 -0.00000000000E+00 -0.99571877659E+02  0.99571877659E+02  0.00000000000E+00 0. -1.
         25    2    1    2    0    0 -0.86143527641E+02 -0.19631003272E+02  0.10861664762E+04  0.10968994412E+04  0.12499874505E+03 0.  0.
          2    1    1    2  501    0  0.13898313359E+03  0.55699412997E+02 -0.33231345982E+02  0.15337228689E+03  0.00000000000E+00 0. -1.
          1    1    1    2  502    0 -0.52839605949E+02 -0.36068409725E+02  0.11315251329E+04  0.11333322904E+04  0.00000000000E+00 0. -1.
         22    1    3    3    0    0 -0.11792497298E+03 -0.10690998884E+02  0.90939605369E+03  0.91707239582E+03  0.00000000000E+00 0. -1.
         22    1    3    3    0    0  0.31781445341E+02 -0.89400043875E+01  0.17677042255E+03  0.17982704533E+03  0.00000000000E+00 0. -1.
</event>
<event>
 7    1  0.6152634E-006  0.5527410E+02  0.7818608E-02  0.1510371E+00
          2   -1    0    0  502    0  0.00000000000E+00  0.00000000000E+00  0.71379630926E+03  0.71379630926E+03  0.00000000000E+00 0. -1.
          1   -1    0    0  501    0 -0.00000000000E+00 -0.00000000000E+00 -0.23688825843E+03  0.23688825843E+03  0.00000000000E+00 0. -1.
         25    2    1    2    0    0  0.10628185962E+02 -0.75940280568E+02 -0.22048659400E+02  0.14828239022E+03  0.12498655655E+03 0.  0.
          2    1    1    2  501    0 -0.21249441778E+02  0.49465756318E+02 -0.14662202675E+03  0.15619352916E+03  0.00000000000E+00 0. -1.
          1    1    1    2  502    0  0.10621255816E+02  0.26474524250E+02  0.64557873698E+03  0.64620864831E+03  0.00000000000E+00 0. -1.
         22    1    3    3    0    0  0.10875870321E+02 -0.56110551635E+02  0.48524793706E+02  0.74975557112E+02  0.00000000000E+00 0.  1.
         22    1    3    3    0    0 -0.24768435874E+00 -0.19829728933E+02 -0.70573453106E+02  0.73306833109E+02  0.00000000000E+00 0.  1.
</event>
<event>
 7    1  0.6152634E-006  0.6229278E+02  0.7818608E-02  0.1456952E+00
          2   -1    0    0  502    0  0.00000000000E+00  0.00000000000E+00  0.13257091774E+02  0.13257091774E+02  0.00000000000E+00 0. -1.
          1   -1    0    0  501    0 -0.00000000000E+00 -0.00000000000E+00 -0.35731683173E+04  0.35731683173E+04  0.00000000000E+00 0. -1.
         25    2    1    2    0    0  0.92169716425E+02 -0.29011321791E+02 -0.23288451418E+04  0.23341981718E+04  0.12499798881E+03 0.  0.
          2    1    1    2  501    0 -0.36655959277E+02  0.37582098294E+01 -0.11509474643E+04  0.11515371680E+04  0.00000000000E+00 0. -1.
          1    1    1    2  502    0 -0.55513757149E+02  0.25253111961E+02 -0.80118619447E+02  0.10069006941E+03  0.00000000000E+00 0. -1.
         22    1    3    3    0    0  0.35363205480E+02  0.37331312929E+02 -0.14753381582E+04  0.14762340140E+04  0.00000000000E+00 0. -1.
         22    1    3    3    0    0  0.56806510945E+02 -0.66342634720E+02 -0.85350698362E+03  0.85796415774E+03  0.00000000000E+00 0. -1.
</event>
<event>
 7    1  0.6152634E-006  0.1309165E+03  0.7818608E-02  0.1345546E+00
          2   -1    0    0  502    0  0.00000000000E+00  0.00000000000E+00  0.28758931842E+03  0.28758931842E+03  0.00000000000E+00 0. -1.
          1   -1    0    0  501    0 -0.00000000000E+00 -0.00000000000E+00 -0.33060506075E+03  0.33060506075E+03  0.00000000000E+00 0. -1.
         25    2    1    2    0    0 -0.12247846249E+03  0.81525134883E+02 -0.20252550485E+03  0.27980153318E+03  0.12499998585E+03 0.  0.
          2    1    1    2  501    0  0.80209814557E+02 -0.84180183622E+02 -0.48595609741E+02  0.12602162891E+03  0.00000000000E+00 0. -1.
          1    1    1    2  502    0  0.42268647932E+02  0.26550487399E+01  0.20810537227E+03  0.21237121709E+03  0.00000000000E+00 0. -1.
         22    1    3    3    0    0 -0.17975621168E+02  0.78710943392E+02 -0.12830138343E+03  0.15159083270E+03  0.00000000000E+00 0. -1.
         22    1    3    3    0    0 -0.10450284132E+03  0.28141914907E+01 -0.74224121416E+02  0.12821070048E+03  0.00000000000E+00 0. -1.
</event>
<event>
 7    1  0.6152634E-006  0.7884323E+02  0.7818608E-02  0.1363794E+00
          2   -1    0    0  502    0  0.00000000000E+00  0.00000000000E+00  0.12875531024E+04  0.12875531024E+04  0.00000000000E+00 0. -1.
          1   -1    0    0  501    0 -0.00000000000E+00 -0.00000000000E+00 -0.45110587606E+03  0.45110587606E+03  0.00000000000E+00 0. -1.
         25    2    1    2    0    0  0.83171363550E+02  0.10726373482E+02 -0.25983481585E+03  0.30027969862E+03  0.12498493938E+03 0.  0.
          2    1    1    2  501    0 -0.33145474546E+02  0.50314542347E+02 -0.16447041620E+03  0.17515905189E+03  0.00000000000E+00 0. -1.
          1    1    1    2  502    0 -0.50025889004E+02 -0.61040915829E+02  0.12607524584E+04  0.12632202280E+04  0.00000000000E+00 0. -1.
         22    1    3    3    0    0  0.84141304675E+02 -0.11956974833E+02 -0.72894701237E+02  0.11196591387E+03  0.00000000000E+00 0.  1.
         22    1    3    3    0    0 -0.96994112564E+00  0.22683348315E+02 -0.18694011461E+03  0.18831378475E+03  0.00000000000E+00 0.  1.
</event>
<event>
 7    1  0.6152634E-006  0.1632659E+03  0.7818608E-02  0.1281109E+00
          2   -1    0    0  502    0  0.00000000000E+00  0.00000000000E+00  0.30254077233E+04  0.30254077233E+04  0.00000000000E+00 0. -1.
          1   -1    0    0  501    0 -0.00000000000E+00 -0.00000000000E+00 -0.66411823799E+03  0.66411823799E+03  0.00000000000E+00 0. -1.
         25    2    1    2    0    0  0.15985933707E+03 -0.13831966614E+03  0.28316646763E+02  0.24721234536E+03  0.12499909410E+03 0.  0.
          2    1    1    2  501    0 -0.59879162389E+02  0.10417125943E+02 -0.55071550573E+03  0.55405920158E+03  0.00000000000E+00 0. -1.
          1    1    1    2  502    0 -0.99980174680E+02  0.12790254020E+03  0.28836883442E+04  0.28882544143E+04  0.00000000000E+00 0. -1.
         22    1    3    3    0    0  0.96175792272E+02 -0.11911152805E+03 -0.33153442339E+02  0.15664127768E+03  0.00000000000E+00 0. -1.
         22    1    3    3    0    0  0.63683544797E+02 -0.19208138092E+02  0.61470089102E+02  0.90571067682E+02  0.00000000000E+00 0. -1.
</event>
<event>
 7    1  0.6152634E-006  0.2390969E+03  0.7818608E-02  0.1223724E+00
          2   -1    0    0  502    0  0.00000000000E+00  0.00000000000E+00  0.13856466377E+04  0.13856466377E+04  0.00000000000E+00 0. -1.
          1   -1    0    0  501    0 -0.00000000000E+00 -0.00000000000E+00 -0.11869537347E+04  0.11869537347E+04  0.00000000000E+00 0. -1.
         25    2    1    2    0    0  0.73611691286E+02  0.21522549029E+03 -0.18276553027E+03  0.31744115278E+03  0.12499981464E+03 0.  0.
          2    1    1    2  501    0  0.69867676076E+02 -0.22755568299E+02 -0.92445149062E+03  0.92736716922E+03  0.00000000000E+00 0. -1.
          1    1    1    2  502    0 -0.14347936736E+03 -0.19246992199E+03  0.13059099239E+04  0.13277920504E+04  0.00000000000E+00 0. -1.
         22    1    3    3    0    0  0.95512751626E+02  0.20251621216E+03 -0.12999442539E+03  0.25890935198E+03  0.00000000000E+00 0. -1.
         22    1    3    3    0    0 -0.21901060339E+02  0.12709278127E+02 -0.52771104880E+02  0.58531800799E+02  0.00000000000E+00 0. -1.
</event>
<event>
 7    1  0.6152634E-006  0.8279540E+02  0.7818608E-02  0.1383319E+00
          2   -1    0    0  502    0  0.00000000000E+00  0.00000000000E+00  0.13836720798E+04  0.13836720798E+04  0.00000000000E+00 0. -1.
          1   -1    0    0  501    0 -0.00000000000E+00 -0.00000000000E+00 -0.18263634566E+04  0.18263634566E+04  0.00000000000E+00 0. -1.
         25    2    1    2    0    0 -0.10313652651E+03  0.43589284949E+02  0.31714620924E+03  0.35881186076E+03  0.12500825784E+03 0.  0.
          2    1    1    2  501    0  0.57083528350E+02 -0.59893952508E+02 -0.18040113105E+04  0.18059077006E+04  0.00000000000E+00 0. -1.
          1    1    1    2  502    0  0.46052998158E+02  0.16304667560E+02  0.10441737245E+04  0.10453159751E+04  0.00000000000E+00 0. -1.
         22    1    3    3    0    0 -0.11132906731E+03  0.95660932193E+01  0.29940451940E+03  0.31957587144E+03  0.00000000000E+00 0. -1.
         22    1    3    3    0    0  0.81925408007E+01  0.34023191730E+02  0.17741689836E+02  0.39235989327E+02  0.00000000000E+00 0. -1.
</event>
<event>
 7    1  0.6152634E-006  0.1171727E+03  0.7818608E-02  0.1278400E+00
          2   -1    0    0  502    0  0.00000000000E+00  0.00000000000E+00  0.81420034981E+03  0.81420034981E+03  0.00000000000E+00 0. -1.
          1   -1    0    0  501    0 -0.00000000000E+00 -0.00000000000E+00 -0.10786734829E+04  0.10786734829E+04  0.00000000000E+00 0. -1.
         25    2    1    2    0    0  0.69916192349E+01  0.12719387948E+03  0.20583593781E+03  0.27242439728E+03  0.12497781092E+03 0.  0.
          2    1    1    2  501    0  0.72609427988E+02 -0.92335456766E+02 -0.10387672082E+04  0.10453876211E+04  0.00000000000E+00 0. -1.
          1    1    1    2  502    0 -0.79601047223E+02 -0.34858422714E+02  0.56845813731E+03  0.57506181427E+03  0.00000000000E+00 0. -1.
         22    1    3    3    0    0 -0.29476607854E+02  0.20151953600E+01  0.10066579715E+03  0.10491203047E+03  0.00000000000E+00 0. -1.
         22    1    3    3    0    0  0.36468227089E+02  0.12517868412E+03  0.10517014066E+03  0.16751236680E+03  0.00000000000E+00 0. -1.
</event>
<event>
 7    1  0.6152634E-006  0.7295649E+02  0.7818608E-02  0.1382660E+00
          2   -1    0    0  502    0  0.00000000000E+00  0.00000000000E+00  0.17052449740E+04  0.17052449740E+04  0.00000000000E+00 0. -1.
          1   -1    0    0  501    0 -0.00000000000E+00 -0.00000000000E+00 -0.19276822744E+02  0.19276822744E+02  0.00000000000E+00 0. -1.
         25    2    1    2    0    0 -0.19752084152E+02 -0.26521455617E+02  0.35484347941E+03  0.37766644584E+03  0.12499806797E+03 0.  0.
          2    1    1    2  501    0  0.21311809019E+02 -0.51504505218E+02  0.11072968818E+03  0.12396762120E+03  0.00000000000E+00 0. -1.
          1    1    1    2  502    0 -0.15597248666E+01  0.78025960835E+02  0.12203949836E+04  0.12228877297E+04  0.00000000000E+00 0. -1.
         22    1    3    3    0    0 -0.44204469583E+02 -0.40523665921E+02  0.34107146765E+03  0.34630326114E+03  0.00000000000E+00 0.  1.
         22    1    3    3    0    0  0.24452385431E+02  0.14002210303E+02  0.13772011760E+02  0.31363184700E+02  0.00000000000E+00 0.  1.
</event>
<event>
 7    1  0.6152634E-006  0.9709246E+02  0.7818608E-02  0.1326574E+00
          2   -1    0    0  502    0  0.00000000000E+00  0.00000000000E+00  0.26216682606E+03  0.26216682606E+03  0.00000000000E+00 0. -1.
          1   -1    0    0  501    0 -0.00000000000E+00 -0.00000000000E+00 -0.16107668192E+03  0.16107668192E+03  0.00000000000E+00 0. -1.
         25    2    1    2    0    0  0.58791302255E+02  0.59970592113E+01  0.75327269115E+02  0.15746294570E+03  0.12501199884E+03 0.  0.
          2    1    1    2  501    0  0.65322196981E+02 -0.16499385372E+02 -0.78426749833E+02  0.10339233156E+03  0.00000000000E+00 0. -1.
          1    1    1    2  502    0 -0.12411349924E+03  0.10502326161E+02  0.10418962486E+03  0.16238823072E+03  0.00000000000E+00 0. -1.
         22    1    3    3    0    0  0.34270984232E+02  0.30598040851E+02  0.10317641183E+03  0.11294296093E+03  0.00000000000E+00 0. -1.
         22    1    3    3    0    0  0.24520318023E+02 -0.24600981640E+02 -0.27849142719E+02  0.44519984768E+02  0.00000000000E+00 0. -1.
</event>
<event>
 7    1  0.6152634E-006  0.4145109E+02  0.7818608E-02  0.1590202E+00
          2   -1    0    0  502    0  0.00000000000E+00  0.00000000000E+00  0.12370768056E+04  0.12370768056E+04  0.00000000000E+00 0. -1.
          1   -1    0    0  501    0 -0.00000000000E+00 -0.00000000000E+00 -0.70781365737E+03  0.70781365737E+03  0.00000000000E+00 0. -1.
         25    2    1    2    0    0 -0.23398944406E+02 -0.92572662983E+01 -0.14587454698E+03  0.19374569906E+03  0.12499921949E+03 0.  0.
          2    1    1    2  501    0  0.41913604426E+02 -0.40067952015E+01 -0.53707261161E+03  0.53872051640E+03  0.00000000000E+00 0. -1.
          1    1    1    2  502    0 -0.18514660021E+02  0.13264061500E+02  0.12122103068E+04  0.12124242475E+04  0.00000000000E+00 0. -1.
         22    1    3    3    0    0 -0.60831056171E+02  0.32104150688E+02 -0.59628792810E+02  0.91031240891E+02  0.00000000000E+00 0.  1.
         22    1    3    3    0    0  0.37432111765E+02 -0.41361416986E+02 -0.86245754166E+02  0.10271445817E+03  0.00000000000E+00 0.  1.
</event>
<event>
 7    1  0.6152634E-006  0.5004856E+02  0.7818608E-02  0.1492523E+00
          2   -1    0    0  502    0  0.00000000000E+00  0.00000000000E+00  0.39217025394E+02  0.39217025394E+02  0.00000000000E+00 0. -1.
          1   -1    0    0  501    0 -0.00000000000E+00 -0.00000000000E+00 -0.76426898556E+03  0.76426898556E+03  0.00000000000E+00 0. -1.
         25    2    1    2    0    0  0.48028673213E+02  0.11498996837E+02 -0.25581366130E+03  0.28897171364E+03  0.12500016640E+03 0.  0.
          2    1    1    2  501    0 -0.29323941297E+02 -0.41796174817E+02 -0.47561004581E+03  0.47834269038E+03  0.00000000000E+00 0. -1.
          1    1    1    2  502    0 -0.18704731916E+02  0.30297177980E+02  0.63717469370E+01  0.36171606940E+02  0.00000000000E+00 0. -1.
         22    1    3    3    0    0  0.36841852333E+02  0.10882263723E+02 -0.59695100205E+01  0.38876481282E+02  0.00000000000E+00 0.  1.
         22    1    3    3    0    0  0.11186820880E+02  0.61673311471E+00 -0.24984415128E+03  0.25009523236E+03  0.00000000000E+00 0.  1.
</event>
<event>
 7    1  0.6152634E-006  0.5795826E+02  0.7818608E-02  0.1424185E+00
          2   -1    0    0  502    0  0.00000000000E+00  0.00000000000E+00  0.18898473670E+04  0.18898473670E+04  0.00000000000E+00 0. -1.
          1   -1    0    0  501    0 -0.00000000000E+00 -0.00000000000E+00 -0.84083382530E+02  0.84083382530E+02  0.00000000000E+00 0. -1.
         25    2    1    2    0    0  0.29914880237E+02  0.16354017592E+01  0.10331601215E+03  0.16490845943E+03  0.12499210786E+03 0.  0.
          2    1    1    2  501    0 -0.36698929284E+02 -0.51761524545E+02 -0.33898834626E+02  0.71938847801E+02  0.00000000000E+00 0. -1.
          1    1    1    2  502    0  0.67840490473E+01  0.50126122786E+02  0.17363468070E+04  0.17370834423E+04  0.00000000000E+00 0. -1.
         22    1    3    3    0    0  0.12045792428E+02  0.12207070804E+02  0.12998448515E+03  0.13111094566E+03  0.00000000000E+00 0.  1.
         22    1    3    3    0    0  0.17869087809E+02 -0.10571669044E+02 -0.26668472995E+02  0.33797513775E+02  0.00000000000E+00 0.  1.
</event>
<event>
 7    1  0.6152634E-006  0.5520106E+02  0.7818608E-02  0.1427262E+00
          2   -1    0    0  502    0  0.00000000000E+00  0.00000000000E+00  0.17678927645E+03  0.17678927645E+03  0.00000000000E+00 0. -1.
          1   -1    0    0  501    0 -0.00000000000E+00 -0.00000000000E+00 -0.66101768830E+03  0.66101768830E+03  0.00000000000E+00 0. -1.
         25    2    1    2    0    0 -0.12049144711E+02  0.67323851856E+01 -0.25227761361E+03  0.28188732806E+03  0.12500385792E+03 0.  0.
          2    1    1    2  501    0  0.27650166627E+02 -0.56208671511E+02 -0.38719883718E+03  0.39223320357E+03  0.00000000000E+00 0. -1.
          1    1    1    2  502    0 -0.15601021916E+02  0.49476286326E+02  0.15524803894E+03  0.16368643312E+03  0.00000000000E+00 0. -1.
         22    1    3    3    0    0 -0.28432738431E+02  0.37367431156E+01 -0.26135192049E+03  0.26292053972E+03  0.00000000000E+00 0.  1.
         22    1    3    3    0    0  0.16383593720E+02  0.29956420700E+01  0.90743068795E+01  0.18966788340E+02  0.00000000000E+00 0.  1.
</event>
<event>
 7    1  0.6152634E-006  0.2429519E+03  0.7818608E-02  0.1264327E+00
          2   -1    0    0  502    0  0.00000000000E+00  0.00000000000E+00  0.20354181396E+04  0.20354181396E+04  0.00000000000E+00 0. -1.
          1   -1    0    0  501    0 -0.00000000000E+00 -0.00000000000E+00 -0.28886608950E+04  0.28886608950E+04  0.00000000000E+00 0. -1.
         25    2    1    2    0    0 -0.16611090055E+03 -0.13230540182E+03  0.30792568587E+02  0.24834334808E+03  0.12501474162E+03 0.  0.
          2    1    1    2  501    0  0.21257596347E+03  0.12024044183E+03 -0.27742160616E+04  0.27849454322E+04  0.00000000000E+00 0. -1.
          1    1    1    2  502    0 -0.46465062913E+02  0.12064959992E+02  0.18901807375E+04  0.18907902543E+04  0.00000000000E+00 0. -1.
         22    1    3    3    0    0 -0.13145896586E+03 -0.93681214194E+02 -0.34372042904E+02  0.16504262156E+03  0.00000000000E+00 0.  1.
         22    1    3    3    0    0 -0.34651934693E+02 -0.38624187626E+02  0.65164611491E+02  0.83300726518E+02  0.00000000000E+00 0.  1.
</event>
<event>
 7    1  0.6152634E-006  0.1408839E+03  0.7818608E-02  0.1259429E+00
          2   -1    0    0  502    0  0.00000000000E+00  0.00000000000E+00  0.15561119720E+03  0.15561119720E+03  0.00000000000E+00 0. -1.
          1   -1    0    0  501    0 -0.00000000000E+00 -0.00000000000E+00 -0.17970429323E+04  0.17970429323E+04  0.00000000000E+00 0. -1.
         25    2    1    2    0    0 -0.65654264475E+02 -0.59789986080E+02 -0.24738821067E+03  0.29105370073E+03  0.12500402014E+03 0.  0.
          2    1    1    2  501    0  0.46572796931E+02  0.14452264651E+03 -0.15095025834E+04  0.15171202556E+04  0.00000000000E+00 0. -1.
          1    1    1    2  502    0  0.19081467544E+02 -0.84732660434E+02  0.11545905894E+03  0.14448017317E+03  0.00000000000E+00 0. -1.
         22    1    3    3    0    0 -0.23129300207E+02 -0.36849359969E+02 -0.48809333800E+01  0.43779714125E+02  0.00000000000E+00 0. -1.
         22    1    3    3    0    0 -0.42524964268E+02 -0.22940626111E+02 -0.24250727729E+03  0.24727398660E+03  0.00000000000E+00 0. -1.
</event>
<event>
 7    1  0.6152634E-006  0.3667456E+02  0.7818608E-02  0.1595599E+00
          2   -1    0    0  502    0  0.00000000000E+00  0.00000000000E+00  0.99391243017E+03  0.99391243017E+03  0.00000000000E+00 0. -1.
          1   -1    0    0  501    0 -0.00000000000E+00 -0.00000000000E+00 -0.18257946503E+02  0.18257946503E+02  0.00000000000E+00 0. -1.
         25    2    1    2    0    0 -0.36915170878E+02 -0.29877401082E+02  0.50550715316E+03  0.52289308694E+03  0.12499723812E+03 0.  0.
          2    1    1    2  501    0  0.96273769294E+00  0.24893497827E+02  0.86743559925E+01  0.26379111998E+02  0.00000000000E+00 0. -1.
          1    1    1    2  502    0  0.35952433185E+02  0.49839032551E+01  0.46147297451E+03  0.46289817773E+03  0.00000000000E+00 0. -1.
         22    1    3    3    0    0 -0.29706532224E+02 -0.22223906712E+02  0.51008033041E+03  0.51142773053E+03  0.00000000000E+00 0.  1.
         22    1    3    3    0    0 -0.72086386536E+01 -0.76534943699E+01 -0.45731772530E+01  0.11465356405E+02  0.00000000000E+00 0.  1.
</event>
<event>
 7    1  0.6152634E-006  0.1128828E+03  0.7818608E-02  0.1318666E+00
          2   -1    0    0  502    0  0.00000000000E+00  0.00000000000E+00  0.62294662726E+03  0.62294662726E+03  0.00000000000E+00 0. -1.
          1   -1    0    0  501    0 -0.00000000000E+00 -0.00000000000E+00 -0.75891299674E+03  0.75891299674E+03  0.00000000000E+00 0. -1.
         25    2    1    2    0    0  0.47441437947E+02 -0.22480785605E+02 -0.24418549721E+03  0.27929890763E+03  0.12500098799E+03 0.  0.
          2    1    1    2  501    0  0.49977553006E+02 -0.36984039313E+02 -0.48980876303E+03  0.49373899918E+03  0.00000000000E+00 0. -1.
          1    1    1    2  502    0 -0.97418990953E+02  0.59464824918E+02  0.59802789076E+03  0.60882171720E+03  0.00000000000E+00 0. -1.
         22    1    3    3    0    0  0.19623135887E+02  0.35131306309E+02 -0.19360531729E+03  0.19774300248E+03  0.00000000000E+00 0.  1.
         22    1    3    3    0    0  0.27818302060E+02 -0.57612091914E+02 -0.50580179919E+02  0.81555905150E+02  0.00000000000E+00 0.  1.
</event>
<event>
 7    1  0.6152634E-006  0.7047460E+02  0.7818608E-02  0.1401370E+00
          2   -1    0    0  502    0  0.00000000000E+00  0.00000000000E+00  0.75332365685E+03  0.75332365685E+03  0.00000000000E+00 0. -1.
          1   -1    0    0  501    0 -0.00000000000E+00 -0.00000000000E+00 -0.38751219706E+03  0.38751219706E+03  0.00000000000E+00 0. -1.
         25    2    1    2    0    0  0.24162739752E+02 -0.33204632058E+02 -0.14651590316E+03  0.19692413840E+03  0.12500328325E+03 0.  0.
          2    1    1    2  501    0 -0.84805955301E+01  0.80334239480E+02 -0.20734610705E+03  0.22252622012E+03  0.00000000000E+00 0. -1.
          1    1    1    2  502    0 -0.15682144222E+02 -0.47129607422E+02  0.71967347000E+03  0.72138549539E+03  0.00000000000E+00 0. -1.
         22    1    3    3    0    0 -0.28246891026E+02  0.14018499659E+02  0.29240884280E+01  0.31669472343E+02  0.00000000000E+00 0.  1.
         22    1    3    3    0    0  0.52409630778E+02 -0.47223131718E+02 -0.14943999159E+03  0.16525466606E+03  0.00000000000E+00 0.  1.
</event>
<event>
 7    1  0.6152634E-006  0.2347894E+02  0.7818608E-02  0.1691867E+00
          2   -1    0    0  502    0  0.00000000000E+00  0.00000000000E+00  0.13435034448E+04  0.13435034448E+04  0.00000000000E+00 0. -1.
          1   -1    0    0  501    0 -0.00000000000E+00 -0.00000000000E+00 -0.36223310426E+03  0.36223310426E+03  0.00000000000E+00 0. -1.
         25    2    1    2    0    0 -0.10817802724E+02 -0.22642987881E+02 -0.87177823550E+02  0.15444675003E+03  0.12499638363E+03 0.  0.
          2    1    1    2  501    0 -0.11577139338E+02  0.20601753267E+02 -0.24074571810E+03  0.24190279695E+03  0.00000000000E+00 0. -1.
          1    1    1    2  502    0  0.22394942062E+02  0.20412346137E+01  0.13091938821E+04  0.13093870020E+04  0.00000000000E+00 0. -1.
         22    1    3    3    0    0  0.10249252429E+02 -0.57579492995E+02 -0.32052218888E+00  0.58485450528E+02  0.00000000000E+00 0. -1.
         22    1    3    3    0    0 -0.21067055153E+02  0.34936505115E+02 -0.86857301361E+02  0.95961299503E+02  0.00000000000E+00 0. -1.
</event>
<event>
 7    1  0.6152634E-006  0.4943321E+02  0.7818608E-02  0.1494789E+00
          2   -1    0    0  502    0  0.00000000000E+00  0.00000000000E+00  0.21387928289E+03  0.21387928289E+03  0.00000000000E+00 0. -1.
          1   -1    0    0  501    0 -0.00000000000E+00 -0.00000000000E+00 -0.91415031995E+03  0.91415031995E+03  0.00000000000E+00 0. -1.
         25    2    1    2    0    0 -0.21323238480E+02 -0.14014747360E+01 -0.78920627556E+02  0.14937089512E+03  0.12500621674E+03 0.  0.
          2    1    1    2  501    0  0.41970688291E+02 -0.27460840860E+02 -0.79744660302E+03  0.79902235333E+03  0.00000000000E+00 0. -1.
          1    1    1    2  502    0 -0.20647449811E+02  0.28862315596E+02  0.17609619353E+03  0.17963635439E+03  0.00000000000E+00 0. -1.
         22    1    3    3    0    0  0.20877226622E+02 -0.49380224410E+02 -0.64490387408E+02  0.83864624379E+02  0.00000000000E+00 0.  1.
         22    1    3    3    0    0 -0.42200465102E+02  0.47978749674E+02 -0.14430240148E+02  0.65506270737E+02  0.00000000000E+00 0.  1.
</event>
<event>
 7    1  0.6152634E-006  0.9442555E+02  0.7818608E-02  0.1393911E+00
          2   -1    0    0  502    0  0.00000000000E+00  0.00000000000E+00  0.32079213368E+03  0.32079213368E+03  0.00000000000E+00 0. -1.
          1   -1    0    0  501    0 -0.00000000000E+00 -0.00000000000E+00 -0.69330391054E+03  0.69330391054E+03  0.00000000000E+00 0. -1.
         25    2    1    2    0    0 -0.87399200942E+02  0.40197296441E+02 -0.73100008642E+02  0.17384557537E+03  0.12499691934E+03 0.  0.
          2    1    1    2  501    0 -0.74096886362E+01 -0.38630764600E+02 -0.56080874343E+03  0.56218652258E+03  0.00000000000E+00 0. -1.
          1    1    1    2  502    0  0.94808889578E+02 -0.15665318407E+01  0.26139697521E+03  0.27806394627E+03  0.00000000000E+00 0. -1.
         22    1    3    3    0    0 -0.10172383644E+03 -0.60342293295E+01 -0.73160509650E+02  0.12544564957E+03  0.00000000000E+00 0.  1.
         22    1    3    3    0    0  0.14324635497E+02  0.46231525770E+02  0.60501007925E-01  0.48399925801E+02  0.00000000000E+00 0.  1.
</event>
<event>
 7    1  0.6152634E-006  0.4860143E+02  0.7818608E-02  0.1456164E+00
          2   -1    0    0  502    0  0.00000000000E+00  0.00000000000E+00  0.14959218937E+04  0.14959218937E+04  0.00000000000E+00 0. -1.
          1   -1    0    0  501    0 -0.00000000000E+00 -0.00000000000E+00 -0.10874066231E+03  0.10874066231E+03  0.00000000000E+00 0. -1.
         25    2    1    2    0    0 -0.92627461900E+02 -0.92479709175E+01  0.31746876061E+03  0.35366213403E+03  0.12500047767E+03 0.  0.
          2    1    1    2  501    0  0.45452167117E+02  0.14798546460E+02 -0.83819170762E+02  0.96491190583E+02  0.00000000000E+00 0. -1.
          1    1    1    2  502    0  0.47175294783E+02 -0.55505755424E+01  0.11535316415E+04  0.11545092314E+04  0.00000000000E+00 0. -1.
         22    1    3    3    0    0 -0.11017299648E+03  0.24583017535E+02  0.19406338637E+03  0.22450615099E+03  0.00000000000E+00 0. -1.
         22    1    3    3    0    0  0.17545534576E+02 -0.33830988452E+02  0.12340537424E+03  0.12915598304E+03  0.00000000000E+00 0. -1.
</event>
<event>
 7    1  0.6152634E-006  0.3164388E+02  0.7818608E-02  0.1640381E+00
          2   -1    0    0  502    0  0.00000000000E+00  0.00000000000E+00  0.57197844474E+03  0.57197844474E+03  0.00000000000E+00 0. -1.
          1   -1    0    0  501    0 -0.00000000000E+00 -0.00000000000E+00 -0.95239455228E+03  0.95239455228E+03  0.00000000000E+00 0. -1.
         25    2    1    2    0    0  0.21089625119E+02  0.13589318825E+02 -0.37755394243E+03  0.39849886967E+03  0.12499971123E+03 0.  0.
          2    1    1    2  501    0 -0.13949423481E+02  0.17254587068E+02 -0.56370345295E+03  0.56413995610E+03  0.00000000000E+00 0. -1.
          1    1    1    2  502    0 -0.71402016373E+01 -0.30843905892E+02  0.56084128785E+03  0.56173417126E+03  0.00000000000E+00 0. -1.
         22    1    3    3    0    0 -0.31605721459E+02 -0.31390903679E+02 -0.24411535353E+03  0.24814636062E+03  0.00000000000E+00 0.  1.
         22    1    3    3    0    0  0.52695346578E+02  0.44980222503E+02 -0.13343858890E+03  0.15035250904E+03  0.00000000000E+00 0.  1.
</event>
<event>
 7    1  0.6152634E-006  0.7282158E+02  0.7818608E-02  0.1399070E+00
          2   -1    0    0  502    0  0.00000000000E+00  0.00000000000E+00  0.25039246347E+04  0.25039246347E+04  0.00000000000E+00 0. -1.
          1   -1    0    0  501    0 -0.00000000000E+00 -0.00000000000E+00 -0.28778408558E+02  0.28778408558E+02  0.00000000000E+00 0. -1.
         25    2    1    2    0    0  0.54457922852E+02  0.45112372784E+01  0.74640831750E+03  0.75877291954E+03  0.12499980148E+03 0.  0.
          2    1    1    2  501    0 -0.53204908495E+02 -0.53447710714E+02  0.41688172887E+02  0.86170318714E+02  0.00000000000E+00 0. -1.
          1    1    1    2  502    0 -0.12530143573E+01  0.48936473435E+02  0.16870497358E+04  0.16877598050E+04  0.00000000000E+00 0. -1.
         22    1    3    3    0    0  0.67605927794E+02 -0.27159715296E+02  0.23082294114E+03  0.24204842855E+03  0.00000000000E+00 0. -1.
         22    1    3    3    0    0 -0.13148004942E+02  0.31670952575E+02  0.51558537636E+03  0.51672449098E+03  0.00000000000E+00 0. -1.
</event>
<event>
 7    1  0.6152634E-006  0.9224473E+02  0.7818608E-02  0.1391800E+00
          2   -1    0    0  502    0  0.00000000000E+00  0.00000000000E+00  0.19233997437E+04  0.19233997437E+04  0.00000000000E+00 0. -1.
          1   -1    0    0  501    0 -0.00000000000E+00 -0.00000000000E+00 -0.44095593533E+02  0.44095593533E+02  0.00000000000E+00 0. -1.
         25    2    1    2    0    0  0.32439677908E+00 -0.95191814978E+02  0.51741607198E+03  0.54074617700E+03  0.12500179812E+03 0.  0.
          2    1    1    2  501    0  0.39134625659E+02  0.84239760231E+02  0.35049848537E+02  0.99279141877E+02  0.00000000000E+00 0. -1.
          1    1    1    2  502    0 -0.39459022438E+02  0.10952054747E+02  0.13268382297E+04  0.13274700184E+04  0.00000000000E+00 0. -1.
         22    1    3    3    0    0 -0.37168683891E+02 -0.87061245385E+01  0.44970261589E+02  0.58988406438E+02  0.00000000000E+00 0.  1.
         22    1    3    3    0    0  0.37493080670E+02 -0.86485690439E+02  0.47244581039E+03  0.48175777057E+03  0.00000000000E+00 0.  1.
</event>
<event>
 7    1  0.6152634E-006  0.1477392E+03  0.7818608E-02  0.1261626E+00
          2   -1    0    0  502    0  0.00000000000E+00  0.00000000000E+00  0.11693959607E+04  0.11693959607E+04  0.00000000000E+00 0. -1.
          1   -1    0    0  501    0 -0.00000000000E+00 -0.00000000000E+00 -0.55365101618E+03  0.55365101618E+03  0.00000000000E+00 0. -1.
         25    2    1    2    0    0  0.52233412181E+02  0.11417368783E+03  0.18183732652E+03  0.25388027982E+03  0.12500569117E+03 0.  0.
          2    1    1    2  501    0  0.21296407058E+02 -0.14828485346E+03 -0.50500788500E+03  0.52675886194E+03  0.00000000000E+00 0. -1.
          1    1    1    2  502    0 -0.73529819239E+02  0.34111165626E+02  0.93891550301E+03  0.94240783513E+03  0.00000000000E+00 0. -1.
         22    1    3    3    0    0 -0.27140108295E+02  0.90255626801E+02  0.98933379792E+02  0.13663995493E+03  0.00000000000E+00 0.  1.
         22    1    3    3    0    0  0.79373520476E+02  0.23918061033E+02  0.82903946732E+02  0.11724032489E+03  0.00000000000E+00 0.  1.
</event>
<event>
 7    1  0.6152634E-006  0.9868242E+02  0.7818608E-02  0.1328656E+00
          2   -1    0    0  502    0  0.00000000000E+00  0.00000000000E+00  0.14839891886E+04  0.14839891886E+04  0.00000000000E+00 0. -1.
          1   -1    0    0  501    0 -0.00000000000E+00 -0.00000000000E+00 -0.17260363951E+03  0.17260363951E+03  0.00000000000E+00 0. -1.
         25    2    1    2    0    0  0.50899417147E+02  0.12787421219E+03  0.27747829030E+03  0.33400514680E+03  0.12499068643E+03 0.  0.
          2    1    1    2  501    0 -0.57066314314E+02 -0.31288692085E+02 -0.13490101290E+03  0.14977927014E+03  0.00000000000E+00 0. -1.
          1    1    1    2  502    0  0.61668971672E+01 -0.96585520107E+02  0.11688082717E+04  0.11728084112E+04  0.00000000000E+00 0. -1.
         22    1    3    3    0    0  0.88308069677E+02  0.10423624755E+03  0.23934842464E+03  0.27559241436E+03  0.00000000000E+00 0.  1.
         22    1    3    3    0    0 -0.37408652530E+02  0.23637964643E+02  0.38129865654E+02  0.58412732442E+02  0.00000000000E+00 0.  1.
</event>
<event>
 7    1  0.6152634E-006  0.6911515E+02  0.7818608E-02  0.1413448E+00
          2   -1    0    0  502    0  0.00000000000E+00  0.00000000000E+00  0.17134613001E+04  0.17134613001E+04  0.00000000000E+00 0. -1.
          1   -1    0    0  501    0 -0.00000000000E+00 -0.00000000000E+00 -0.22268884031E+04  0.22268884031E+04  0.00000000000E+00 0. -1.
         25    2    1    2    0    0 -0.82446904855E+02  0.28633286945E+02 -0.80760863371E+02  0.17252567888E+03  0.12500174230E+03 0.  0.
          2    1    1    2  501    0  0.14994978330E+02 -0.43567125915E+02 -0.20992767098E+04  0.20997822859E+04  0.00000000000E+00 0. -1.
          1    1    1    2  502    0  0.67451926526E+02  0.14933838970E+02  0.16666104702E+04  0.16680417384E+04  0.00000000000E+00 0. -1.
         22    1    3    3    0    0 -0.73074598551E+02  0.59103157149E+02 -0.98416643387E+02  0.13608422331E+03  0.00000000000E+00 0. -1.
         22    1    3    3    0    0 -0.93723063040E+01 -0.30469870204E+02  0.17655780016E+02  0.36441455565E+02  0.00000000000E+00 0. -1.
</event>
<event>
 7    1  0.6152634E-006  0.1148346E+03  0.7818608E-02  0.1330838E+00
          2   -1    0    0  502    0  0.00000000000E+00  0.00000000000E+00  0.41031937909E+03  0.41031937909E+03  0.00000000000E+00 0. -1.
          1   -1    0    0  501    0 -0.00000000000E+00 -0.00000000000E+00 -0.73730070682E+03  0.73730070682E+03  0.00000000000E+00 0. -1.
         25    2    1    2    0    0  0.38207417431E+02 -0.58378549333E+02 -0.72152288238E+02  0.16030838535E+03  0.12499985579E+03 0.  0.
          2    1    1    2  501    0 -0.22067693475E+01 -0.54818947057E+02 -0.61017569472E+03  0.61263722154E+03  0.00000000000E+00 0. -1.
          1    1    1    2  502    0 -0.36000648083E+02  0.11319749639E+03  0.35534665522E+03  0.37467447902E+03  0.00000000000E+00 0. -1.
         22    1    3    3    0    0  0.12046374868E+00 -0.89198384235E+02 -0.65931486580E+02  0.11092036416E+03  0.00000000000E+00 0.  1.
         22    1    3    3    0    0  0.38086953682E+02  0.30819834902E+02 -0.62208016574E+01  0.49388021194E+02  0.00000000000E+00 0.  1.
</event>
<event>
 7    1  0.6152634E-006  0.6568521E+02  0.7818608E-02  0.1453946E+00
          2   -1    0    0  502    0  0.00000000000E+00  0.00000000000E+00  0.13659718592E+03  0.13659718592E+03  0.00000000000E+00 0. -1.
          1   -1    0    0  501    0 -0.00000000000E+00 -0.00000000000E+00 -0.42592577553E+03  0.42592577553E+03  0.00000000000E+00 0. -1.
         25    2    1    2    0    0 -0.60551370375E+02 -0.75132245137E+01 -0.86405392690E+02  0.16375026776E+03  0.12500136523E+03 0.  0.
          2    1    1    2  501    0  0.86100110464E+01 -0.34668311856E+02 -0.28818486265E+03  0.29039032214E+03  0.00000000000E+00 0. -1.
          1    1    1    2  502    0  0.51941359328E+02  0.42181536370E+02  0.85261665729E+02  0.10838237155E+03  0.00000000000E+00 0. -1.
         22    1    3    3    0    0  0.59600086792E+01 -0.24116446087E+02 -0.91688845913E+02  0.94994574268E+02  0.00000000000E+00 0. -1.
         22    1    3    3    0    0 -0.66511379054E+02  0.16603221573E+02  0.52834532236E+01  0.68755693497E+02  0.00000000000E+00 0. -1.
</event>
<event>
 7    1  0.6152634E-006  0.1126671E+03  0.7818608E-02  0.1348047E+00
          2   -1    0    0  502    0  0.00000000000E+00  0.00000000000E+00  0.57104638756E+03  0.57104638756E+03  0.00000000000E+00 0. -1.
          1   -1    0    0  501    0 -0.00000000000E+00 -0.00000000000E+00 -0.32441815316E+03  0.32441815316E+03  0.00000000000E+00 0. -1.
         25    2    1    2    0    0  0.11044140284E+03 -0.43526747673E+02 -0.77212396883E+02  0.18888328862E+03  0.12499304486E+03 0.  0.
          2    1    1    2  501    0 -0.79563238285E+02  0.80495624027E+02 -0.17336966910E+03  0.20704322384E+03  0.00000000000E+00 0. -1.
          1    1    1    2  502    0 -0.30878164551E+02 -0.36968876355E+02  0.49721030039E+03  0.49953802826E+03  0.00000000000E+00 0. -1.
         22    1    3    3    0    0 -0.40095392808E+01 -0.23182024044E+02 -0.68367543888E+02  0.72302169410E+02  0.00000000000E+00 0. -1.
         22    1    3    3    0    0  0.11445094212E+03 -0.20344723628E+02 -0.88448529944E+01  0.11658111921E+03  0.00000000000E+00 0. -1.
</event>
<event>
 7    1  0.6152634E-006  0.9066625E+02  0.7818608E-02  0.1436983E+00
          2   -1    0    0  502    0  0.00000000000E+00  0.00000000000E+00  0.61503091036E+03  0.61503091036E+03  0.00000000000E+00 0. -1.
          1   -1    0    0  501    0 -0.00000000000E+00 -0.00000000000E+00 -0.15957133171E+03  0.15957133171E+03  0.00000000000E+00 0. -1.
         25    2    1    2    0    0  0.61437985721E+02 -0.16077474867E+02  0.17915626118E+03  0.22749596074E+03  0.12499733974E+03 0.  0.
          2    1    1    2  501    0 -0.90299690872E+02  0.21396568063E+02 -0.11889264947E+03  0.15082211175E+03  0.00000000000E+00 0. -1.
          1    1    1    2  502    0  0.28861705152E+02 -0.53190931958E+01  0.39519596693E+03  0.39628416957E+03  0.00000000000E+00 0. -1.
         22    1    3    3    0    0  0.78670111007E+02 -0.33437151706E+02  0.18370233751E+03  0.20261682627E+03  0.00000000000E+00 0. -1.
         22    1    3    3    0    0 -0.17232125286E+02  0.17359676839E+02 -0.45460763292E+01  0.24879134467E+02  0.00000000000E+00 0. -1.
</event>
<event>
 7    1  0.6152634E-006  0.7934589E+02  0.7818608E-02  0.1389539E+00
          2   -1    0    0  502    0  0.00000000000E+00  0.00000000000E+00  0.12216901128E+04  0.12216901128E+04  0.00000000000E+00 0. -1.
          1   -1    0    0  501    0 -0.00000000000E+00 -0.00000000000E+00 -0.71873165129E+02  0.71873165129E+02  0.00000000000E+00 0. -1.
         25    2    1    2    0    0 -0.97322844700E+02 -0.71566421857E+02  0.30052031950E+03  0.34717565662E+03  0.12499994113E+03 0.  0.
          2    1    1    2  501    0  0.51644465503E+02  0.55325112164E+02 -0.17953131143E+02  0.77783891461E+02  0.00000000000E+00 0. -1.
          1    1    1    2  502    0  0.45678379197E+02  0.16241309693E+02  0.86724975932E+03  0.86860372985E+03  0.00000000000E+00 0. -1.
         22    1    3    3    0    0 -0.73496181553E+02 -0.72125632154E+02  0.94446085658E+02  0.13972780186E+03  0.00000000000E+00 0.  1.
         22    1    3    3    0    0 -0.23826663147E+02  0.55921029725E+00  0.20607423384E+03  0.20744785476E+03  0.00000000000E+00 0.  1.
</event>
<event>
 7    1  0.7170046E-006  0.5388427E+02  0.7818608E-02  0.1498757E+00
          2   -1    0    0  502    0  0.00000000000E+00  0.00000000000E+00  0.25953513688E+04  0.25953513688E+04  0.00000000000E+00 0. -1.
          1   -1    0    0  501    0 -0.00000000000E+00 -0.00000000000E+00 -0.94707991326E+03  0.94707991326E+03  0.00000000000E+00 0. -1.
         25    2    1    2    0    0 -0.59581245274E+02  0.90164947878E+00 -0.13786409241E+02  0.13916187857E+03  0.12500090243E+03 0.  0.
          2    1    1    2  501    0  0.13406443247E+02 -0.28699564083E+02 -0.87003077244E+03  0.87060722641E+03  0.00000000000E+00 0. -1.
          1    1    1    2  502    0  0.46174802028E+02  0.27797914604E+02  0.25320886372E+04  0.25326621770E+04  0.00000000000E+00 0. -1.
         22    1    3    3    0    0 -0.75566968882E+02  0.25848352905E+02  0.30824896676E+02  0.85607700524E+02  0.00000000000E+00 0.  1.
         22    1    3    3    0    0  0.15985723607E+02 -0.24946703426E+02 -0.44611305917E+02  0.53554178051E+02  0.00000000000E+00 0.  1.
</event>
<event>
 7    1  0.6152634E-006  0.6917083E+02  0.7818608E-02  0.1404270E+00
          2   -1    0    0  502    0  0.00000000000E+00  0.00000000000E+00  0.20570152339E+04  0.20570152339E+04  0.00000000000E+00 0. -1.
          1   -1    0    0  501    0 -0.00000000000E+00 -0.00000000000E+00 -0.27565611657E+03  0.27565611657E+03  0.00000000000E+00 0. -1.
         25    2    1    2    0    0  0.52701901010E+02 -0.43275235473E+02  0.43449627746E+03  0.45723228098E+03  0.12499642902E+03 0.  0.
          2    1    1    2  501    0 -0.10216440100E+02  0.68602877007E+02 -0.25935020341E+03  0.26846463155E+03  0.00000000000E+00 0. -1.
          1    1    1    2  502    0 -0.42485460910E+02 -0.25327641534E+02  0.16062130433E+04  0.16069744380E+04  0.00000000000E+00 0. -1.
         22    1    3    3    0    0 -0.18503352358E+02 -0.88166707901E+01  0.58037214525E+01  0.21302368765E+02  0.00000000000E+00 0.  1.
         22    1    3    3    0    0  0.71205253368E+02 -0.34458564683E+02  0.42869255601E+03  0.43592991222E+03  0.00000000000E+00 0.  1.
</event>
<event>
 7    1  0.6152634E-006  0.3188170E+02  0.7818608E-02  0.1627355E+00
          2   -1    0    0  502    0  0.00000000000E+00  0.00000000000E+00  0.32775770932E+03  0.32775770932E+03  0.00000000000E+00 0. -1.
          1   -1    0    0  501    0 -0.00000000000E+00 -0.00000000000E+00 -0.40999179813E+03  0.40999179813E+03  0.00000000000E+00 0. -1.
         25    2    1    2    0    0 -0.14668205133E+02  0.17022135265E+02  0.36044742842E+02  0.13202095894E+03  0.12500160311E+03 0.  0.
          2    1    1    2  501    0  0.32012747301E+02 -0.81374335331E+00 -0.36071461629E+03  0.36213328012E+03  0.00000000000E+00 0. -1.
          1    1    1    2  502    0 -0.17344542168E+02 -0.16208391912E+02  0.24243578464E+03  0.24359526839E+03  0.00000000000E+00 0. -1.
         22    1    3    3    0    0 -0.32414191807E+02  0.22608726483E+02 -0.38509853913E+02  0.55180097789E+02  0.00000000000E+00 0. -1.
         22    1    3    3    0    0  0.17745986674E+02 -0.55865912176E+01  0.74554596755E+02  0.76840861147E+02  0.00000000000E+00 0. -1.
</event>
<event>
 7    1  0.6152634E-006  0.1385495E+03  0.7818608E-02  0.1252858E+00
          2   -1    0    0  502    0  0.00000000000E+00  0.00000000000E+00  0.22094524708E+03  0.22094524708E+03  0.00000000000E+00 0. -1.
          1   -1    0    0  501    0 -0.00000000000E+00 -0.00000000000E+00 -0.70906734323E+03  0.70906734323E+03  0.00000000000E+00 0. -1.
         25    2    1    2    0    0 -0.64640218983E+02  0.20805437179E+03 -0.23691701742E+03  0.34528220117E+03  0.12500058309E+03 0.  0.
          2    1    1    2  501    0  0.46552482017E+02 -0.11555836963E+03 -0.39422886037E+03  0.41344560068E+03  0.00000000000E+00 0. -1.
          1    1    1    2  502    0  0.18087736966E+02 -0.92496002153E+02  0.14302378164E+03  0.17128478846E+03  0.00000000000E+00 0. -1.
         22    1    3    3    0    0  0.17506662751E+02  0.14884629088E+03 -0.14457221161E+03  0.20823742679E+03  0.00000000000E+00 0. -1.
         22    1    3    3    0    0 -0.82146881735E+02  0.59208080910E+02 -0.92344805817E+02  0.13704477438E+03  0.00000000000E+00 0. -1.
</event>
<event>
 7    1  0.6152634E-006  0.3619824E+03  0.7818608E-02  0.1159140E+00
          2   -1    0    0  502    0  0.00000000000E+00  0.00000000000E+00  0.21350793934E+04  0.21350793934E+04  0.00000000000E+00 0. -1.
          1   -1    0    0  501    0 -0.00000000000E+00 -0.00000000000E+00 -0.26854595967E+04  0.26854595967E+04  0.00000000000E+00 0. -1.
         25    2    1    2    0    0  0.30269674240E+03 -0.12972121266E+03 -0.43596261846E+02  0.35493115392E+03  0.12499031604E+03 0.  0.
          2    1    1    2  501    0 -0.28650242000E+03  0.22732895077E+03 -0.24714937910E+04  0.24984082227E+04  0.00000000000E+00 0. -1.
          1    1    1    2  502    0 -0.16194322399E+02 -0.97607738112E+02  0.19647098495E+04  0.19671996135E+04  0.00000000000E+00 0. -1.
         22    1    3    3    0    0  0.67887200597E+02  0.60295399941E+01 -0.48517804679E+02  0.83660054556E+02  0.00000000000E+00 0.  1.
         22    1    3    3    0    0  0.23480954180E+03 -0.13575075265E+03  0.49215428339E+01  0.27127109936E+03  0.00000000000E+00 0.  1.
</event>
<event>
 7    1  0.6152634E-006  0.1539825E+03  0.7818608E-02  0.1207496E+00
          2   -1    0    0  502    0  0.00000000000E+00  0.00000000000E+00  0.35271321993E+04  0.35271321993E+04  0.00000000000E+00 0. -1.
          1   -1    0    0  501    0 -0.00000000000E+00 -0.00000000000E+00 -0.10876318113E+03  0.10876318113E+03  0.00000000000E+00 0. -1.
         25    2    1    2    0    0 -0.65618470058E+02  0.32632077786E+02  0.17258812178E+03  0.22535805263E+03  0.12501582296E+03 0.  0.
          2    1    1    2  501    0  0.18064155429E+03 -0.10418053421E+03  0.53367258097E+02  0.21525106058E+03  0.00000000000E+00 0. -1.
          1    1    1    2  502    0 -0.11502308423E+03  0.71548456425E+02  0.31924136383E+04  0.31952862672E+04  0.00000000000E+00 0. -1.
         22    1    3    3    0    0 -0.35587729217E+00 -0.19656553557E+02 -0.11774290094E+02  0.22915947583E+02  0.00000000000E+00 0. -1.
         22    1    3    3    0    0 -0.65262592766E+02  0.52288631342E+02  0.18436241188E+03  0.20244210505E+03  0.00000000000E+00 0. -1.
</event>
<event>
 7    1  0.6152634E-006  0.1158174E+03  0.7818608E-02  0.1282668E+00
          2   -1    0    0  502    0  0.00000000000E+00  0.00000000000E+00  0.49852721492E+03  0.49852721492E+03  0.00000000000E+00 0. -1.
          1   -1    0    0  501    0 -0.00000000000E+00 -0.00000000000E+00 -0.42697698312E+03  0.42697698312E+03  0.00000000000E+00 0. -1.
         25    2    1    2    0    0 -0.45780907025E+02 -0.15286680285E+02 -0.93003059609E+02  0.16312347965E+03  0.12502050422E+03 0.  0.
          2    1    1    2  501    0 -0.28759289021E+02 -0.79370886037E+02 -0.28485544297E+03  0.29710176311E+03  0.00000000000E+00 0. -1.
          1    1    1    2  502    0  0.74540196046E+02  0.94657566322E+02  0.44940873438E+03  0.46527895528E+03  0.00000000000E+00 0. -1.
         22    1    3    3    0    0  0.21359981508E+02  0.38297813705E+02 -0.51744592164E+02  0.67826795316E+02  0.00000000000E+00 0. -1.
         22    1    3    3    0    0 -0.67140888533E+02 -0.53584493990E+02 -0.41258467445E+02  0.95296684334E+02  0.00000000000E+00 0. -1.
</event>
<event>
 7    1  0.6152634E-006  0.1167122E+03  0.7818608E-02  0.1361917E+00
          2   -1    0    0  502    0  0.00000000000E+00  0.00000000000E+00  0.13416650997E+04  0.13416650997E+04  0.00000000000E+00 0. -1.
          1   -1    0    0  501    0 -0.00000000000E+00 -0.00000000000E+00 -0.13808506259E+03  0.13808506259E+03  0.00000000000E+00 0. -1.
         25    2    1    2    0    0 -0.90322359893E+02 -0.73472464432E+02  0.22217038778E+03  0.28025197605E+03  0.12500062858E+03 0.  0.
          2    1    1    2  501    0  0.30677383800E+02 -0.27719665378E+02 -0.10183252376E+03  0.10990607181E+03  0.00000000000E+00 0. -1.
          1    1    1    2  502    0  0.59644976094E+02  0.10119212981E+03  0.10832421731E+04  0.10895921145E+04  0.00000000000E+00 0. -1.
         22    1    3    3    0    0 -0.26755233594E+02 -0.93061211100E+02  0.89579955767E+02  0.13191209198E+03  0.00000000000E+00 0. -1.
         22    1    3    3    0    0 -0.63567126299E+02  0.19588746668E+02  0.13259043202E+03  0.14833988406E+03  0.00000000000E+00 0. -1.
</event>
<event>
 7    1  0.6152634E-006  0.1196024E+03  0.7818608E-02  0.1334639E+00
          2   -1    0    0  502    0  0.00000000000E+00  0.00000000000E+00  0.62908620029E+03  0.62908620029E+03  0.00000000000E+00 0. -1.
          1   -1    0    0  501    0 -0.00000000000E+00 -0.00000000000E+00 -0.15696701540E+03  0.15696701540E+03  0.00000000000E+00 0. -1.
         25    2    1    2    0    0 -0.23808285925E+02 -0.10077036789E+03  0.12855427246E+03  0.20705672858E+03  0.12499914543E+03 0.  0.
          2    1    1    2  501    0  0.74737979357E+02  0.99285078879E+02 -0.82973817923E+02  0.14942538910E+03  0.00000000000E+00 0. -1.
          1    1    1    2  502    0 -0.50929693432E+02  0.14852890136E+01  0.42653873036E+03  0.42957109802E+03  0.00000000000E+00 0. -1.
         22    1    3    3    0    0  0.88699866645E+01  0.27971039553E+02  0.26737120885E+02  0.39697976653E+02  0.00000000000E+00 0.  1.
         22    1    3    3    0    0 -0.32678272589E+02 -0.12874140745E+03  0.10181715157E+03  0.16735875192E+03  0.00000000000E+00 0.  1.
</event>
<event>
 7    1  0.6152634E-006  0.5057777E+02  0.7818608E-02  0.1481519E+00
          2   -1    0    0  502    0  0.00000000000E+00  0.00000000000E+00  0.60576891458E+03  0.60576891458E+03  0.00000000000E+00 0. -1.
          1   -1    0    0  501    0 -0.00000000000E+00 -0.00000000000E+00 -0.17055126364E+04  0.17055126364E+04  0.00000000000E+00 0. -1.
         25    2    1    2    0    0 -0.42678531259E+02 -0.41778590063E+02 -0.64180720217E+01  0.13868398973E+03  0.12500059896E+03 0.  0.
          2    1    1    2  501    0  0.55907986773E+01  0.50293214967E+02 -0.16318981067E+04  0.16326824845E+04  0.00000000000E+00 0. -1.
          1    1    1    2  502    0  0.37087732582E+02 -0.85146249032E+01  0.53857245692E+03  0.53991507675E+03  0.00000000000E+00 0. -1.
         22    1    3    3    0    0 -0.57711670920E+02 -0.24640312616E+02  0.48442942639E+02  0.79274842528E+02  0.00000000000E+00 0.  1.
         22    1    3    3    0    0  0.15033139661E+02 -0.17138277447E+02 -0.54861014661E+02  0.59409147204E+02  0.00000000000E+00 0.  1.
</event>
<event>
 7    1  0.6152634E-006  0.1206439E+03  0.7818608E-02  0.1366515E+00
          2   -1    0    0  502    0  0.00000000000E+00  0.00000000000E+00  0.26207429682E+04  0.26207429682E+04  0.00000000000E+00 0. -1.
          1   -1    0    0  501    0 -0.00000000000E+00 -0.00000000000E+00 -0.76513429156E+02  0.76513429156E+02  0.00000000000E+00 0. -1.
         25    2    1    2    0    0  0.12607708431E+02  0.12826001864E+03  0.43253923764E+03  0.46831932386E+03  0.12499284101E+03 0.  0.
          2    1    1    2  501    0 -0.37060945610E+02 -0.10397745141E+02 -0.50445169256E+02  0.63453462434E+02  0.00000000000E+00 0. -1.
          1    1    1    2  502    0  0.24453237179E+02 -0.11786227350E+03  0.21621354706E+04  0.21654836110E+04  0.00000000000E+00 0. -1.
         22    1    3    3    0    0  0.61385080120E+02  0.42047218602E+02  0.24740681488E+03  0.25835291503E+03  0.00000000000E+00 0. -1.
         22    1    3    3    0    0 -0.48777371689E+02  0.86212800036E+02  0.18513242276E+03  0.20996640883E+03  0.00000000000E+00 0. -1.
</event>
<event>
 7    1  0.6152634E-006  0.5400710E+02  0.7818608E-02  0.1485653E+00
          2   -1    0    0  502    0  0.00000000000E+00  0.00000000000E+00  0.43515865272E+03  0.43515865272E+03  0.00000000000E+00 0. -1.
          1   -1    0    0  501    0 -0.00000000000E+00 -0.00000000000E+00 -0.26766536449E+03  0.26766536449E+03  0.00000000000E+00 0. -1.
         25    2    1    2    0    0 -0.71875190595E+02  0.32392005467E+02  0.31559575350E+03  0.34848312849E+03  0.12499810470E+03 0.  0.
          2    1    1    2  501    0  0.34196542413E+02 -0.53715035580E+01 -0.24472948003E+03  0.24716548092E+03  0.00000000000E+00 0. -1.
          1    1    1    2  502    0  0.37678648182E+02 -0.27020501909E+02  0.96627014764E+02  0.10717540779E+03  0.00000000000E+00 0. -1.
         22    1    3    3    0    0 -0.37840206317E+02 -0.44468217033E+02  0.85689058578E+02  0.10369145722E+03  0.00000000000E+00 0. -1.
         22    1    3    3    0    0 -0.34034984278E+02  0.76860222500E+02  0.22990669492E+03  0.24479167127E+03  0.00000000000E+00 0. -1.
</event>
<event>
 7    1  0.1103817E-005  0.7209333E+02  0.7818608E-02  0.1382446E+00
          2   -1    0    0  502    0  0.00000000000E+00  0.00000000000E+00  0.13079952905E+04  0.13079952905E+04  0.00000000000E+00 0. -1.
          1   -1    0    0  501    0 -0.00000000000E+00 -0.00000000000E+00 -0.26752156474E+04  0.26752156474E+04  0.00000000000E+00 0. -1.
         25    2    1    2    0    0  0.91381991554E+02  0.52771451741E+02 -0.32980095488E+03  0.36814164607E+03  0.12499642889E+03 0.  0.
          2    1    1    2  501    0 -0.35638011683E+02 -0.62016691208E+02 -0.23250747714E+04  0.23261747205E+04  0.00000000000E+00 0. -1.
          1    1    1    2  502    0 -0.55743979871E+02  0.92452394667E+01  0.12876553694E+04  0.12888945713E+04  0.00000000000E+00 0. -1.
         22    1    3    3    0    0  0.65322842630E+02  0.51830777943E+02 -0.75443300891E+02  0.11245085576E+03  0.00000000000E+00 0.  1.
         22    1    3    3    0    0  0.26059148925E+02  0.94067379796E+00 -0.25435765399E+03  0.25569079032E+03  0.00000000000E+00 0.  1.
</event>
<event>
 7    1  0.6152634E-006  0.9701425E+02  0.7818608E-02  0.1308776E+00
          2   -1    0    0  502    0  0.00000000000E+00  0.00000000000E+00  0.15356182127E+04  0.15356182127E+04  0.00000000000E+00 0. -1.
          1   -1    0    0  501    0 -0.00000000000E+00 -0.00000000000E+00 -0.22655567748E+03  0.22655567748E+03  0.00000000000E+00 0. -1.
         25    2    1    2    0    0  0.10674002539E+03  0.11811510130E+02  0.77697023332E+02  0.18219269016E+03  0.12499761647E+03 0.  0.
          2    1    1    2  501    0 -0.30566063845E+02 -0.72950474301E+02 -0.16353856854E+03  0.18166155168E+03  0.00000000000E+00 0. -1.
          1    1    1    2  502    0 -0.76173961544E+02  0.61138964171E+02  0.13949040804E+04  0.13983196484E+04  0.00000000000E+00 0. -1.
         22    1    3    3    0    0  0.11603863599E+03  0.11016097850E+02  0.13521373317E+02  0.11734200863E+03  0.00000000000E+00 0. -1.
         22    1    3    3    0    0 -0.92986105991E+01  0.79541228017E+00  0.64175650015E+02  0.64850681528E+02  0.00000000000E+00 0. -1.
</event>
<event>
 7    1  0.7156947E-006  0.4944002E+02  0.7818608E-02  0.1498100E+00
          2   -1    0    0  502    0  0.00000000000E+00  0.00000000000E+00  0.19793045916E+04  0.19793045916E+04  0.00000000000E+00 0. -1.
          1   -1    0    0  501    0 -0.00000000000E+00 -0.00000000000E+00 -0.59930933446E+03  0.59930933446E+03  0.00000000000E+00 0. -1.
         25    2    1    2    0    0 -0.18036295160E+02 -0.48041022413E+02 -0.12033618101E+03  0.18094058959E+03  0.12500181087E+03 0.  0.
          2    1    1    2  501    0 -0.16629456670E+02  0.47029457711E+02 -0.44712959734E+03  0.44990352914E+03  0.00000000000E+00 0. -1.
          1    1    1    2  502    0  0.34665751830E+02  0.10115647019E+01  0.19474610355E+04  0.19477698073E+04  0.00000000000E+00 0. -1.
         22    1    3    3    0    0 -0.25470769797E+02 -0.88358762828E+02 -0.67536352037E+02  0.11409290043E+03  0.00000000000E+00 0. -1.
         22    1    3    3    0    0  0.74344746364E+01  0.40317740415E+02 -0.52799828976E+02  0.66847689154E+02  0.00000000000E+00 0. -1.
</event>
<event>
 7    1  0.6152634E-006  0.2917235E+02  0.7818608E-02  0.1638652E+00
          2   -1    0    0  502    0  0.00000000000E+00  0.00000000000E+00  0.73108751472E+03  0.73108751472E+03  0.00000000000E+00 0. -1.
          1   -1    0    0  501    0 -0.00000000000E+00 -0.00000000000E+00 -0.63708183333E+02  0.63708183333E+02  0.00000000000E+00 0. -1.
         25    2    1    2    0    0  0.15369390545E+02  0.19272454423E+02  0.38934740103E+03  0.40966409022E+03  0.12500248984E+03 0.  0.
          2    1    1    2  501    0 -0.29308783681E+02  0.64051505532E+00 -0.49052573625E+02  0.57145166371E+02  0.00000000000E+00 0. -1.
          1    1    1    2  502    0  0.13939393136E+02 -0.19912969478E+02  0.32708450399E+03  0.32798644146E+03  0.00000000000E+00 0. -1.
         22    1    3    3    0    0 -0.11689803247E+02  0.43514143265E+02  0.36041696119E+03  0.36322240856E+03  0.00000000000E+00 0.  1.
         22    1    3    3    0    0  0.27059193792E+02 -0.24241688842E+02  0.28930439833E+02  0.46441681661E+02  0.00000000000E+00 0.  1.
</event>
<event>
 7    1  0.6152634E-006  0.1267256E+03  0.7818608E-02  0.1439835E+00
          2   -1    0    0  502    0  0.00000000000E+00  0.00000000000E+00  0.56169608555E+03  0.56169608555E+03  0.00000000000E+00 0. -1.
          1   -1    0    0  501    0 -0.00000000000E+00 -0.00000000000E+00 -0.90671532969E+03  0.90671532969E+03  0.00000000000E+00 0. -1.
         25    2    1    2    0    0  0.10647567496E+03 -0.76142551129E+02 -0.58762390119E+02  0.19029661160E+03  0.12500009777E+03 0.  0.
          2    1    1    2  501    0 -0.90208589852E+02  0.88705233987E+02 -0.77685338888E+03  0.78708792141E+03  0.00000000000E+00 0. -1.
          1    1    1    2  502    0 -0.16267085103E+02 -0.12562682857E+02  0.49059653486E+03  0.49102688223E+03  0.00000000000E+00 0. -1.
         22    1    3    3    0    0  0.74170832730E+02  0.57129386600E+01 -0.69300106291E+02  0.10166835706E+03  0.00000000000E+00 0. -1.
         22    1    3    3    0    0  0.32304842225E+02 -0.81855489789E+02  0.10537716171E+02  0.88628254535E+02  0.00000000000E+00 0. -1.
</event>
<event>
 7    1  0.6152634E-006  0.4617404E+02  0.7818608E-02  0.1534103E+00
          2   -1    0    0  502    0  0.00000000000E+00  0.00000000000E+00  0.28330892939E+04  0.28330892939E+04  0.00000000000E+00 0. -1.
          1   -1    0    0  501    0 -0.00000000000E+00 -0.00000000000E+00 -0.10602342336E+04  0.10602342336E+04  0.00000000000E+00 0. -1.
         25    2    1    2    0    0  0.26915987873E+02 -0.99868537751E+01  0.93729868844E+03  0.94603293326E+03  0.12500108720E+03 0.  0.
          2    1    1    2  501    0 -0.44165866474E+02 -0.13512040462E+02 -0.10552496281E+04  0.10562599001E+04  0.00000000000E+00 0. -1.
          1    1    1    2  502    0  0.17249878601E+02  0.23498894237E+02  0.18908060000E+04  0.18910306941E+04  0.00000000000E+00 0. -1.
         22    1    3    3    0    0  0.17952274630E+02  0.47204176741E+02  0.19339831565E+03  0.19988353349E+03  0.00000000000E+00 0. -1.
         22    1    3    3    0    0  0.89637132439E+01 -0.57191030516E+02  0.74390037279E+03  0.74614939977E+03  0.00000000000E+00 0. -1.
</event>
<event>
 7    1  0.6152634E-006  0.4173135E+03  0.7818608E-02  0.1080769E+00
          2   -1    0    0  502    0  0.00000000000E+00  0.00000000000E+00  0.98094557985E+03  0.98094557985E+03  0.00000000000E+00 0. -1.
          1   -1    0    0  501    0 -0.00000000000E+00 -0.00000000000E+00 -0.42004258075E+04  0.42004258075E+04  0.00000000000E+00 0. -1.
         25    2    1    2    0    0 -0.14434355792E+03 -0.40890336822E+03 -0.83139820024E+03  0.94598427917E+03  0.12500504721E+03 0.  0.
          2    1    1    2  501    0  0.32749541771E+03  0.27148017867E+03 -0.32836099356E+04  0.33110495232E+04  0.00000000000E+00 0. -1.
          1    1    1    2  502    0 -0.18315185980E+03  0.13742318955E+03  0.89552790815E+03  0.92433758500E+03  0.00000000000E+00 0. -1.
         22    1    3    3    0    0  0.73830099922E+01 -0.15355310703E+03 -0.26205298754E+03  0.30381710583E+03  0.00000000000E+00 0.  1.
         22    1    3    3    0    0 -0.15172656791E+03 -0.25535026119E+03 -0.56934521269E+03  0.64216717334E+03  0.00000000000E+00 0.  1.
</event>
<event>
 7    1  0.6152634E-006  0.5786044E+02  0.7818608E-02  0.1468486E+00
          2   -1    0    0  502    0  0.00000000000E+00  0.00000000000E+00  0.43375588465E+04  0.43375588465E+04  0.00000000000E+00 0. -1.
          1   -1    0    0  501    0 -0.00000000000E+00 -0.00000000000E+00 -0.14077632569E+03  0.14077632569E+03  0.00000000000E+00 0. -1.
         25    2    1    2    0    0  0.44526120442E+02  0.23265972158E+02  0.13809226049E+03  0.19292239523E+03  0.12500278921E+03 0.  0.
          2    1    1    2  501    0  0.12407374033E+02 -0.34320257552E+02 -0.11021720297E+03  0.11610191575E+03  0.00000000000E+00 0. -1.
          1    1    1    2  502    0 -0.56933494475E+02  0.11054285394E+02  0.41689074633E+04  0.41693108612E+04  0.00000000000E+00 0. -1.
         22    1    3    3    0    0  0.53381518046E+02 -0.37879523572E+02  0.10250939774E+03  0.12162492096E+03  0.00000000000E+00 0.  1.
         22    1    3    3    0    0 -0.88553976044E+01  0.61145495730E+02  0.35582862757E+02  0.71297474267E+02  0.00000000000E+00 0.  1.
</event>
<event>
 7    1  0.6152634E-006  0.6127040E+02  0.7818608E-02  0.1492296E+00
          2   -1    0    0  502    0  0.00000000000E+00  0.00000000000E+00  0.64030368574E+03  0.64030368574E+03  0.00000000000E+00 0. -1.
          1   -1    0    0  501    0 -0.00000000000E+00 -0.00000000000E+00 -0.28772883644E+03  0.28772883644E+03  0.00000000000E+00 0. -1.
         25    2    1    2    0    0  0.12509856932E+02 -0.85885746174E+02 -0.61256917475E+02  0.16403875122E+03  0.12499377604E+03 0.  0.
          2    1    1    2  501    0 -0.17057474928E+01  0.58832971814E+02 -0.16976081888E+03  0.17967460526E+03  0.00000000000E+00 0. -1.
          1    1    1    2  502    0 -0.10804109440E+02  0.27052774360E+02  0.58359258565E+03  0.58431916570E+03  0.00000000000E+00 0. -1.
         22    1    3    3    0    0  0.59741455383E+02 -0.54765513665E+02 -0.52491099089E+00  0.81046767424E+02  0.00000000000E+00 0.  1.
         22    1    3    3    0    0 -0.47231598451E+02 -0.31120232508E+02 -0.60732006484E+02  0.82991983801E+02  0.00000000000E+00 0.  1.
</event>
<event>
 7    1  0.6152634E-006  0.6714054E+02  0.7818608E-02  0.1425334E+00
          2   -1    0    0  502    0  0.00000000000E+00  0.00000000000E+00  0.21621369595E+03  0.21621369595E+03  0.00000000000E+00 0. -1.
          1   -1    0    0  501    0 -0.00000000000E+00 -0.00000000000E+00 -0.28506734048E+03  0.28506734048E+03  0.00000000000E+00 0. -1.
         25    2    1    2    0    0 -0.25981551014E+02  0.41130566029E+01 -0.12845892702E+03  0.18115752357E+03  0.12499757672E+03 0.  0.
          2    1    1    2  501    0 -0.42822461975E+02 -0.63018007995E+01 -0.12011221527E+03  0.12767309897E+03  0.00000000000E+00 0. -1.
          1    1    1    2  502    0  0.68804012989E+02  0.21887441966E+01  0.17971749777E+03  0.19245041389E+03  0.00000000000E+00 0. -1.
         22    1    3    3    0    0 -0.61115143658E+02 -0.15540769382E+02 -0.12591122297E+03  0.14081978685E+03  0.00000000000E+00 0.  1.
         22    1    3    3    0    0  0.35133592644E+02  0.19653825985E+02 -0.25477040501E+01  0.40337736722E+02  0.00000000000E+00 0.  1.
</event>
<event>
 7    1  0.6152634E-006  0.8267624E+02  0.7818608E-02  0.1457816E+00
          2   -1    0    0  502    0  0.00000000000E+00  0.00000000000E+00  0.12242350218E+04  0.12242350218E+04  0.00000000000E+00 0. -1.
          1   -1    0    0  501    0 -0.00000000000E+00 -0.00000000000E+00 -0.25323951260E+02  0.25323951260E+02  0.00000000000E+00 0. -1.
         25    2    1    2    0    0  0.37492480584E+02  0.99306662521E+02  0.35959772481E+03  0.39522292474E+03  0.12499254869E+03 0.  0.
          2    1    1    2  501    0 -0.16766110935E+02 -0.21910068035E+02  0.28837588328E+02  0.39909398113E+02  0.00000000000E+00 0. -1.
          1    1    1    2  502    0 -0.20726369649E+02 -0.77396594486E+02  0.81047575735E+03  0.81442665016E+03  0.00000000000E+00 0. -1.
         22    1    3    3    0    0  0.73826091775E+01 -0.29858497935E+02  0.81721104173E+02  0.87317648184E+02  0.00000000000E+00 0.  1.
         22    1    3    3    0    0  0.30109871406E+02  0.12916516046E+03  0.27787662064E+03  0.30790527655E+03  0.00000000000E+00 0.  1.
</event>
<event>
 7    1  0.6152634E-006  0.1146154E+03  0.7818608E-02  0.1310647E+00
          2   -1    0    0  502    0  0.00000000000E+00  0.00000000000E+00  0.15654452975E+03  0.15654452975E+03  0.00000000000E+00 0. -1.
          1   -1    0    0  501    0 -0.00000000000E+00 -0.00000000000E+00 -0.17143241568E+04  0.17143241568E+04  0.00000000000E+00 0. -1.
         25    2    1    2    0    0 -0.15489026763E+03  0.25612572901E+02 -0.30900165173E+03  0.36843175137E+03  0.12495173367E+03 0.  0.
          2    1    1    2  501    0  0.44973188370E+02 -0.48060990055E+02 -0.13498393728E+04  0.13514432207E+04  0.00000000000E+00 0. -1.
          1    1    1    2  502    0  0.10991707926E+03  0.22448417154E+02  0.10106139748E+03  0.15099371446E+03  0.00000000000E+00 0. -1.
         22    1    3    3    0    0 -0.98501908710E+02  0.73788836670E+02 -0.15873330609E+03  0.20085736457E+03  0.00000000000E+00 0.  1.
         22    1    3    3    0    0 -0.56388358919E+02 -0.48176263769E+02 -0.15026834563E+03  0.16757438680E+03  0.00000000000E+00 0.  1.
</event>
<event>
 7    1  0.6152634E-006  0.8873804E+02  0.7818608E-02  0.1393591E+00
          2   -1    0    0  502    0  0.00000000000E+00  0.00000000000E+00  0.67716420463E+03  0.67716420463E+03  0.00000000000E+00 0. -1.
          1   -1    0    0  501    0 -0.00000000000E+00 -0.00000000000E+00 -0.13756592190E+03  0.13756592190E+03  0.00000000000E+00 0. -1.
         25    2    1    2    0    0 -0.39010539042E+02 -0.11808888065E+03  0.19894715569E+03  0.26584242175E+03  0.12500166620E+03 0.  0.
          2    1    1    2  501    0  0.13070437860E+02  0.85103938981E+02 -0.85107994679E+02  0.12106563317E+03  0.00000000000E+00 0. -1.
          1    1    1    2  502    0  0.25940101182E+02  0.32984941673E+02  0.42575912172E+03  0.42782207161E+03  0.00000000000E+00 0. -1.
         22    1    3    3    0    0 -0.66443306296E+02 -0.28412566483E+02  0.43639764297E+02  0.84418101813E+02  0.00000000000E+00 0.  1.
         22    1    3    3    0    0  0.27432767255E+02 -0.89676314170E+02  0.15530739139E+03  0.18142431993E+03  0.00000000000E+00 0.  1.
</event>
<event>
 7    1  0.6152634E-006  0.3148474E+03  0.7818608E-02  0.1270739E+00
          2   -1    0    0  502    0  0.00000000000E+00  0.00000000000E+00  0.10646489533E+04  0.10646489533E+04  0.00000000000E+00 0. -1.
          1   -1    0    0  501    0 -0.00000000000E+00 -0.00000000000E+00 -0.13986754363E+04  0.13986754363E+04  0.00000000000E+00 0. -1.
         25    2    1    2    0    0 -0.29627579993E+03  0.15938176945E+03  0.12353558592E+03  0.37956415536E+03  0.12500403589E+03 0.  0.
          2    1    1    2  501    0  0.13621952221E+02 -0.32031770581E+02 -0.12408573291E+04  0.12413454407E+04  0.00000000000E+00 0. -1.
          1    1    1    2  502    0  0.28265384771E+03 -0.12734999887E+03  0.78329526020E+03  0.84241479361E+03  0.00000000000E+00 0. -1.
         22    1    3    3    0    0 -0.14632204195E+03  0.29197842704E+02  0.71210959272E+01  0.14937658446E+03  0.00000000000E+00 0.  1.
         22    1    3    3    0    0 -0.14995375798E+03  0.13018392674E+03  0.11641449000E+03  0.23018757090E+03  0.00000000000E+00 0.  1.
</event>
<event>
 7    1  0.6152634E-006  0.7941908E+02  0.7818608E-02  0.1402139E+00
          2   -1    0    0  502    0  0.00000000000E+00  0.00000000000E+00  0.16849367264E+04  0.16849367264E+04  0.00000000000E+00 0. -1.
          1   -1    0    0  501    0 -0.00000000000E+00 -0.00000000000E+00 -0.16870215662E+04  0.16870215662E+04  0.00000000000E+00 0. -1.
         25    2    1    2    0    0 -0.10888311343E+03  0.42002360364E+02 -0.78366176305E+02  0.18811083637E+03  0.12499879401E+03 0.  0.
          2    1    1    2  501    0  0.43709654029E+02  0.29508492833E+01 -0.15525125164E+04  0.15531305016E+04  0.00000000000E+00 0. -1.
          1    1    1    2  502    0  0.65173459397E+02 -0.44953209647E+02  0.16287938529E+04  0.16307169546E+04  0.00000000000E+00 0. -1.
         22    1    3    3    0    0 -0.12216580880E+03  0.56145784365E+02 -0.93278992102E+02  0.16363925052E+03  0.00000000000E+00 0.  1.
         22    1    3    3    0    0  0.13282695378E+02 -0.14143424001E+02  0.14912815797E+02  0.24471585849E+02  0.00000000000E+00 0.  1.
</event>
<event>
 7    1  0.6152634E-006  0.5687219E+02  0.7818608E-02  0.1509136E+00
          2   -1    0    0  502    0  0.00000000000E+00  0.00000000000E+00  0.35668779877E+03  0.35668779877E+03  0.00000000000E+00 0. -1.
          1   -1    0    0  501    0 -0.00000000000E+00 -0.00000000000E+00 -0.39815615245E+03  0.39815615245E+03  0.00000000000E+00 0. -1.
         25    2    1    2    0    0 -0.12952245827E+02 -0.63090314465E+02 -0.10740870339E+03  0.17694930335E+03  0.12500511166E+03 0.  0.
          2    1    1    2  501    0 -0.21500516715E+02  0.17870016223E+02 -0.25269033042E+03  0.25423220250E+03  0.00000000000E+00 0. -1.
          1    1    1    2  502    0  0.34452762542E+02  0.45220298243E+02  0.31863068013E+03  0.32366244537E+03  0.00000000000E+00 0. -1.
         22    1    3    3    0    0  0.79292939658E+01 -0.78023933862E+02 -0.13480430040E+02  0.79575938274E+02  0.00000000000E+00 0. -1.
         22    1    3    3    0    0 -0.20881539793E+02  0.14933619396E+02 -0.93928273351E+02  0.97373365081E+02  0.00000000000E+00 0. -1.
</event>
<event>
 7    1  0.6152634E-006  0.6110639E+02  0.7818608E-02  0.1414095E+00
          2   -1    0    0  502    0  0.00000000000E+00  0.00000000000E+00  0.78921048418E+03  0.78921048418E+03  0.00000000000E+00 0. -1.
          1   -1    0    0  501    0 -0.00000000000E+00 -0.00000000000E+00 -0.28874563336E+02  0.28874563336E+02  0.00000000000E+00 0. -1.
         25    2    1    2    0    0 -0.45143108723E+02 -0.34895699355E+02  0.36143865481E+03  0.38667597953E+03  0.12499920742E+03 0.  0.
          2    1    1    2  501    0 -0.19594137141E+02  0.48008546146E+02  0.37416871638E+02  0.63943514108E+02  0.00000000000E+00 0. -1.
          1    1    1    2  502    0  0.64737245864E+02 -0.13112846791E+02  0.36148039440E+03  0.36746555388E+03  0.00000000000E+00 0. -1.
         22    1    3    3    0    0 -0.63633066874E+01 -0.49953188534E+02  0.33179404505E+03  0.33559365466E+03  0.00000000000E+00 0. -1.
         22    1    3    3    0    0 -0.38779802036E+02  0.15057489179E+02  0.29644609755E+02  0.51082324867E+02  0.00000000000E+00 0. -1.
</event>
<event>
 7    1  0.6152634E-006  0.1187812E+03  0.7818608E-02  0.1362714E+00
          2   -1    0    0  502    0  0.00000000000E+00  0.00000000000E+00  0.20547761712E+04  0.20547761712E+04  0.00000000000E+00 0. -1.
          1   -1    0    0  501    0 -0.00000000000E+00 -0.00000000000E+00 -0.19642801284E+04  0.19642801284E+04  0.00000000000E+00 0. -1.
         25    2    1    2    0    0 -0.11418755811E+03 -0.64788293590E+02  0.16351564575E+04  0.16451740426E+04  0.12499867471E+03 0.  0.
          2    1    1    2  501    0  0.13135538470E+02  0.38157917343E+02 -0.19524746176E+04  0.19528916256E+04  0.00000000000E+00 0. -1.
          1    1    1    2  502    0  0.10105201964E+03  0.26630376248E+02  0.40781420293E+03  0.42099063140E+03  0.00000000000E+00 0. -1.
         22    1    3    3    0    0  0.45556868797E+01  0.28449806773E+02  0.19339508745E+03  0.19552955183E+03  0.00000000000E+00 0.  1.
         22    1    3    3    0    0 -0.11874324499E+03 -0.93238100363E+02  0.14417613700E+04  0.14496444908E+04  0.00000000000E+00 0.  1.
</event>
<event>
 7    1  0.6152634E-006  0.6423085E+02  0.7818608E-02  0.1472923E+00
          2   -1    0    0  502    0  0.00000000000E+00  0.00000000000E+00  0.52262742536E+03  0.52262742536E+03  0.00000000000E+00 0. -1.
          1   -1    0    0  501    0 -0.00000000000E+00 -0.00000000000E+00 -0.10260347220E+04  0.10260347220E+04  0.00000000000E+00 0. -1.
         25    2    1    2    0    0 -0.33001056994E+02 -0.84902689500E+02  0.57221300564E+02  0.16491371741E+03  0.12499888202E+03 0.  0.
          2    1    1    2  501    0  0.96305373048E+01  0.63267711566E+02 -0.97051698112E+03  0.97262467644E+03  0.00000000000E+00 0. -1.
          1    1    1    2  502    0  0.23370519689E+02  0.21634977934E+02  0.40988838389E+03  0.41112375352E+03  0.00000000000E+00 0. -1.
         22    1    3    3    0    0 -0.75859391049E+02 -0.69581057411E+02  0.60292944580E+02  0.11929547320E+03  0.00000000000E+00 0.  1.
         22    1    3    3    0    0  0.42858334055E+02 -0.15321632089E+02 -0.30716440156E+01  0.45618244210E+02  0.00000000000E+00 0.  1.
</event>
<event>
 7    1  0.6152634E-006  0.1380666E+03  0.7818608E-02  0.1350208E+00
          2   -1    0    0  502    0  0.00000000000E+00  0.00000000000E+00  0.44428783753E+03  0.44428783753E+03  0.00000000000E+00 0. -1.
          1   -1    0    0  501    0 -0.00000000000E+00 -0.00000000000E+00 -0.55990251283E+03  0.55990251283E+03  0.00000000000E+00 0. -1.
         25    2    1    2    0    0  0.15242717803E+03  0.25674325912E+02  0.40212121272E+02  0.20281721004E+03  0.12499836150E+03 0.  0.
          2    1    1    2  501    0 -0.16950479165E+02 -0.34665294902E+02 -0.46348421535E+03  0.46508775440E+03  0.00000000000E+00 0. -1.
          1    1    1    2  502    0 -0.13547669886E+03  0.89909689897E+01  0.30765741878E+03  0.33628538593E+03  0.00000000000E+00 0. -1.
         22    1    3    3    0    0  0.15537729353E+03  0.43276046232E+02  0.27430450692E+01  0.16131473528E+03  0.00000000000E+00 0. -1.
         22    1    3    3    0    0 -0.29501154972E+01 -0.17601720320E+02  0.37469076203E+02  0.41502474760E+02  0.00000000000E+00 0. -1.
</event>
<event>
 7    1  0.6152634E-006  0.7520469E+02  0.7818608E-02  0.1471371E+00
          2   -1    0    0  502    0  0.00000000000E+00  0.00000000000E+00  0.53337559295E+03  0.53337559295E+03  0.00000000000E+00 0. -1.
          1   -1    0    0  501    0 -0.00000000000E+00 -0.00000000000E+00 -0.28495063505E+04  0.28495063505E+04  0.00000000000E+00 0. -1.
         25    2    1    2    0    0  0.31658272505E+02 -0.92002298800E+02 -0.80776763842E+03  0.82315286946E+03  0.12500167847E+03 0.  0.
          2    1    1    2  501    0 -0.12426803406E+02  0.72340729700E+02 -0.20330236117E+04  0.20343482033E+04  0.00000000000E+00 0. -1.
          1    1    1    2  502    0 -0.19231469099E+02  0.19661569100E+02  0.52466049262E+03  0.52538087063E+03  0.00000000000E+00 0. -1.
         22    1    3    3    0    0  0.10288737280E+02 -0.11855404595E+03 -0.52381575563E+03  0.53716279262E+03  0.00000000000E+00 0.  1.
         22    1    3    3    0    0  0.21369535224E+02  0.26551747153E+02 -0.28395188279E+03  0.28599007684E+03  0.00000000000E+00 0.  1.
</event>
<event>
 7    1  0.6152634E-006  0.7576168E+02  0.7818608E-02  0.1351495E+00
          2   -1    0    0  502    0  0.00000000000E+00  0.00000000000E+00  0.44653824065E+03  0.44653824065E+03  0.00000000000E+00 0. -1.
          1   -1    0    0  501    0 -0.00000000000E+00 -0.00000000000E+00 -0.51097245940E+03  0.51097245940E+03  0.00000000000E+00 0. -1.
         25    2    1    2    0    0  0.14291766565E+03 -0.69149998727E+01  0.76562078510E+02  0.20484211807E+03  0.12500106036E+03 0.  0.
          2    1    1    2  501    0 -0.73478595827E+02  0.10922577317E+02 -0.43972176605E+03  0.44595250676E+03  0.00000000000E+00 0. -1.
          1    1    1    2  502    0 -0.69439069822E+02 -0.40075774445E+01  0.29872546880E+03  0.30671607523E+03  0.00000000000E+00 0. -1.
         22    1    3    3    0    0  0.14206949822E+03  0.35766735227E+02  0.66989436557E+02  0.16109185666E+03  0.00000000000E+00 0.  1.
         22    1    3    3    0    0  0.84816743351E+00 -0.42681735100E+02  0.95726419528E+01  0.43750261406E+02  0.00000000000E+00 0.  1.
</event>
<event>
 7    1  0.6152634E-006  0.6801622E+02  0.7818608E-02  0.1454588E+00
          2   -1    0    0  502    0  0.00000000000E+00  0.00000000000E+00  0.33781756337E+03  0.33781756337E+03  0.00000000000E+00 0. -1.
          1   -1    0    0  501    0 -0.00000000000E+00 -0.00000000000E+00 -0.97636297342E+03  0.97636297342E+03  0.00000000000E+00 0. -1.
         25    2    1    2    0    0  0.40990751232E+02  0.33902277115E+02  0.24793053348E+02  0.13807292891E+03  0.12497932678E+03 0.  0.
          2    1    1    2  501    0 -0.67317856720E+02 -0.11861484578E+02 -0.91729609963E+03  0.91983940068E+03  0.00000000000E+00 0. -1.
          1    1    1    2  502    0  0.26327105489E+02 -0.22040792538E+02  0.25395763623E+03  0.25626820720E+03  0.00000000000E+00 0. -1.
         22    1    3    3    0    0 -0.17135286182E+02  0.38904156608E+02 -0.34605623507E+02  0.54815149477E+02  0.00000000000E+00 0.  1.
         22    1    3    3    0    0  0.58126037414E+02 -0.50018794927E+01  0.59398676854E+02  0.83257779432E+02  0.00000000000E+00 0.  1.
</event>
<event>
 7    1  0.6152634E-006  0.4044134E+02  0.7818608E-02  0.1558652E+00
          2   -1    0    0  502    0  0.00000000000E+00  0.00000000000E+00  0.20755559754E+03  0.20755559754E+03  0.00000000000E+00 0. -1.
          1   -1    0    0  501    0 -0.00000000000E+00 -0.00000000000E+00 -0.64415688341E+03  0.64415688341E+03  0.00000000000E+00 0. -1.
         25    2    1    2    0    0  0.64270645676E+02 -0.16036364489E+02 -0.25408967274E+03  0.29081900462E+03  0.12500500300E+03 0.  0.
          2    1    1    2  501    0 -0.35871804269E+02  0.15407992004E+02 -0.36960237454E+03  0.37165859041E+03  0.00000000000E+00 0. -1.
          1    1    1    2  502    0 -0.28398841407E+02  0.62837248478E+00  0.18709076141E+03  0.18923488592E+03  0.00000000000E+00 0. -1.
         22    1    3    3    0    0 -0.25671323095E+02  0.12567492148E+02 -0.13934164604E+03  0.14224293659E+03  0.00000000000E+00 0. -1.
         22    1    3    3    0    0  0.89941968771E+02 -0.28603856636E+02 -0.11474802670E+03  0.14857606803E+03  0.00000000000E+00 0. -1.
</event>
<event>
 7    1  0.6152634E-006  0.8109368E+02  0.7818608E-02  0.1334961E+00
          2   -1    0    0  502    0  0.00000000000E+00  0.00000000000E+00  0.32006629856E+03  0.32006629856E+03  0.00000000000E+00 0. -1.
          1   -1    0    0  501    0 -0.00000000000E+00 -0.00000000000E+00 -0.18576338575E+04  0.18576338575E+04  0.00000000000E+00 0. -1.
         25    2    1    2    0    0  0.78751589545E+01 -0.49193238867E+01  0.14052924136E+03  0.18830680213E+03  0.12499906471E+03 0.  0.
          2    1    1    2  501    0 -0.80108174208E+02 -0.15023489372E+02 -0.18237626071E+04  0.18255829403E+04  0.00000000000E+00 0. -1.
          1    1    1    2  502    0  0.72233015253E+02  0.19942813259E+02  0.14566580689E+03  0.16381041356E+03  0.00000000000E+00 0. -1.
         22    1    3    3    0    0  0.44192101843E+02 -0.40591659262E+02  0.11852443434E+03  0.13284828264E+03  0.00000000000E+00 0. -1.
         22    1    3    3    0    0 -0.36316942888E+02  0.35672335375E+02  0.22004807023E+02  0.55458519490E+02  0.00000000000E+00 0. -1.
</event>
<event>
 7    1  0.6342020E-006  0.9232873E+02  0.7818608E-02  0.1364940E+00
          2   -1    0    0  502    0  0.00000000000E+00  0.00000000000E+00  0.12120717944E+04  0.12120717944E+04  0.00000000000E+00 0. -1.
          1   -1    0    0  501    0 -0.00000000000E+00 -0.00000000000E+00 -0.10179147359E+04  0.10179147359E+04  0.00000000000E+00 0. -1.
         25    2    1    2    0    0  0.50222587067E+02 -0.57595580757E+01 -0.22310481882E+02  0.13666939492E+03  0.12500114057E+03 0.  0.
          2    1    1    2  501    0  0.39304928826E+02  0.32436939782E+02 -0.93584130037E+03  0.93722781220E+03  0.00000000000E+00 0. -1.
          1    1    1    2  502    0 -0.89527515893E+02 -0.26677381706E+02  0.11523088407E+04  0.11560893232E+04  0.00000000000E+00 0. -1.
         22    1    3    3    0    0  0.49146492896E+02  0.19101521858E+02 -0.67155953399E+02  0.85382480511E+02  0.00000000000E+00 0. -1.
         22    1    3    3    0    0  0.10760941706E+01 -0.24861079933E+02  0.44845471516E+02  0.51286914409E+02  0.00000000000E+00 0. -1.
</event>
<event>
 7    1  0.6152634E-006  0.1632787E+03  0.7818608E-02  0.1356182E+00
          2   -1    0    0  502    0  0.00000000000E+00  0.00000000000E+00  0.26053899740E+04  0.26053899740E+04  0.00000000000E+00 0. -1.
          1   -1    0    0  501    0 -0.00000000000E+00 -0.00000000000E+00 -0.18340265017E+02  0.18340265017E+02  0.00000000000E+00 0. -1.
         25    2    1    2    0    0  0.73171788814E+02 -0.16633203478E+03  0.14217481281E+04  0.14387536915E+04  0.12499595452E+03 0.  0.
          2    1    1    2  501    0 -0.48556249981E+02  0.14746298553E+03  0.63257887536E+03  0.65135172915E+03  0.00000000000E+00 0. -1.
          1    1    1    2  502    0 -0.24615538833E+02  0.18869049256E+02  0.53272270556E+03  0.53362481838E+03  0.00000000000E+00 0. -1.
         22    1    3    3    0    0 -0.20308121565E+02 -0.69648246221E+01  0.47317881308E+02  0.51960662765E+02  0.00000000000E+00 0. -1.
         22    1    3    3    0    0  0.93479910378E+02 -0.15936721016E+03  0.13744302468E+04  0.13867930288E+04  0.00000000000E+00 0. -1.
</event>
<event>
 7    1  0.6152634E-006  0.3752241E+02  0.7818608E-02  0.1553221E+00
          2   -1    0    0  502    0  0.00000000000E+00  0.00000000000E+00  0.68737110473E+03  0.68737110473E+03  0.00000000000E+00 0. -1.
          1   -1    0    0  501    0 -0.00000000000E+00 -0.00000000000E+00 -0.11328976041E+04  0.11328976041E+04  0.00000000000E+00 0. -1.
         25    2    1    2    0    0  0.10881826055E+02 -0.22783255506E+02 -0.58972099839E+03  0.60335216103E+03  0.12500193360E+03 0.  0.
          2    1    1    2  501    0  0.26311177348E+02  0.17669328101E+02 -0.53537425611E+03  0.53631154874E+03  0.00000000000E+00 0. -1.
          1    1    1    2  502    0 -0.37193003403E+02  0.51139274053E+01  0.67956875514E+03  0.68060499904E+03  0.00000000000E+00 0. -1.
         22    1    3    3    0    0  0.52501831136E+02 -0.14056351095E+02 -0.12028926441E+03  0.13199822124E+03  0.00000000000E+00 0.  1.
         22    1    3    3    0    0 -0.41620005081E+02 -0.87269044110E+01 -0.46943173398E+03  0.47135393979E+03  0.00000000000E+00 0.  1.
</event>
<event>
 7    1  0.6152634E-006  0.8197369E+02  0.7818608E-02  0.1345799E+00
          2   -1    0    0  502    0  0.00000000000E+00  0.00000000000E+00  0.98515607103E+03  0.98515607103E+03  0.00000000000E+00 0. -1.
          1   -1    0    0  501    0 -0.00000000000E+00 -0.00000000000E+00 -0.59384594505E+03  0.59384594505E+03  0.00000000000E+00 0. -1.
         25    2    1    2    0    0  0.69580090166E+02 -0.97608055771E+02 -0.29963922531E+02  0.17576521830E+03  0.12500741503E+03 0.  0.
          2    1    1    2  501    0 -0.65548226273E+02  0.16079232977E+02 -0.48682260584E+03  0.49147874955E+03  0.00000000000E+00 0. -1.
          1    1    1    2  502    0 -0.40318638931E+01  0.81528822793E+02  0.90809665435E+03  0.91175804823E+03  0.00000000000E+00 0. -1.
         22    1    3    3    0    0 -0.29733415917E+02 -0.10332510399E+02  0.16607544573E+02  0.35589989182E+02  0.00000000000E+00 0. -1.
         22    1    3    3    0    0  0.99313506083E+02 -0.87275545371E+02 -0.46571467104E+02  0.14017522912E+03  0.00000000000E+00 0. -1.
</event>
<event>
 7    1  0.6152634E-006  0.3946151E+02  0.7818608E-02  0.1618744E+00
          2   -1    0    0  502    0  0.00000000000E+00  0.00000000000E+00  0.25470747561E+04  0.25470747561E+04  0.00000000000E+00 0. -1.
          1   -1    0    0  501    0 -0.00000000000E+00 -0.00000000000E+00 -0.15758297737E+03  0.15758297737E+03  0.00000000000E+00 0. -1.
         25    2    1    2    0    0  0.36887085629E+02  0.98957126570E+01  0.76564396479E+03  0.77671965111E+03  0.12499661348E+03 0.  0.
          2    1    1    2  501    0 -0.87815770615E+01  0.18156532895E+02 -0.15115325205E+03  0.15249288963E+03  0.00000000000E+00 0. -1.
          1    1    1    2  502    0 -0.28105508568E+02 -0.28052245552E+02  0.17750010660E+04  0.17754451927E+04  0.00000000000E+00 0. -1.
         22    1    3    3    0    0  0.12411176420E+02  0.29127254729E+01  0.23033258437E+01  0.12954789838E+02  0.00000000000E+00 0. -1.
         22    1    3    3    0    0  0.24475909209E+02  0.69829871841E+01  0.76334063895E+03  0.76376486127E+03  0.00000000000E+00 0. -1.
</event>
<event>
 7    1  0.6152634E-006  0.9329609E+02  0.7818608E-02  0.1329497E+00
          2   -1    0    0  502    0  0.00000000000E+00  0.00000000000E+00  0.58822117924E+03  0.58822117924E+03  0.00000000000E+00 0. -1.
          1   -1    0    0  501    0 -0.00000000000E+00 -0.00000000000E+00 -0.15505110601E+04  0.15505110601E+04  0.00000000000E+00 0. -1.
         25    2    1    2    0    0 -0.15958234626E+02 -0.56092874859E+02 -0.35414472187E+03  0.38005871445E+03  0.12500026615E+03 0.  0.
          2    1    1    2  501    0 -0.42081021757E+02  0.92155144824E+02 -0.11792006466E+04  0.11835444850E+04  0.00000000000E+00 0. -1.
          1    1    1    2  502    0  0.58039256383E+02 -0.36062269965E+02  0.57105548759E+03  0.57512903987E+03  0.00000000000E+00 0. -1.
         22    1    3    3    0    0  0.51049207361E+02 -0.37499448884E+02 -0.22032440240E+03  0.22924893137E+03  0.00000000000E+00 0. -1.
         22    1    3    3    0    0 -0.67007441987E+02 -0.18593425975E+02 -0.13382031947E+03  0.15080978309E+03  0.00000000000E+00 0. -1.
</event>
<event>
 7    1  0.6152634E-006  0.4109266E+02  0.7818608E-02  0.1524988E+00
          2   -1    0    0  502    0  0.00000000000E+00  0.00000000000E+00  0.40752852521E+03  0.40752852521E+03  0.00000000000E+00 0. -1.
          1   -1    0    0  501    0 -0.00000000000E+00 -0.00000000000E+00 -0.57638583617E+03  0.57638583617E+03  0.00000000000E+00 0. -1.
         25    2    1    2    0    0 -0.56359793845E+02 -0.23975050606E+02  0.16631613590E+03  0.21687896712E+03  0.12499679959E+03 0.  0.
          2    1    1    2  501    0  0.40456025048E+02 -0.69632965581E+01 -0.54893198067E+03  0.55046480075E+03  0.00000000000E+00 0. -1.
          1    1    1    2  502    0  0.15903768798E+02  0.30938347164E+02  0.21375853382E+03  0.21657059350E+03  0.00000000000E+00 0. -1.
         22    1    3    3    0    0  0.28617248859E+02  0.25472032404E+02  0.29264010485E+02  0.48209477042E+02  0.00000000000E+00 0.  1.
         22    1    3    3    0    0 -0.84977042704E+02 -0.49447083010E+02  0.13705212541E+03  0.16866949008E+03  0.00000000000E+00 0.  1.
</event>
<event>
 7    1  0.6152634E-006  0.1267145E+03  0.7818608E-02  0.1274042E+00
          2   -1    0    0  502    0  0.00000000000E+00  0.00000000000E+00  0.12957760702E+04  0.12957760702E+04  0.00000000000E+00 0. -1.
          1   -1    0    0  501    0 -0.00000000000E+00 -0.00000000000E+00 -0.25587730508E+03  0.25587730508E+03  0.00000000000E+00 0. -1.
         25    2    1    2    0    0  0.16621638224E+03 -0.13641052125E+02  0.44058497991E+03  0.48738405423E+03  0.12495650351E+03 0.  0.
          2    1    1    2  501    0 -0.64307399488E+02 -0.53697714525E+02 -0.22025381782E+03  0.23564938030E+03  0.00000000000E+00 0. -1.
          1    1    1    2  502    0 -0.10190898275E+03  0.67338766650E+02  0.81956760300E+03  0.82861994071E+03  0.00000000000E+00 0. -1.
         22    1    3    3    0    0  0.10281600243E+03 -0.14334217650E+02  0.39723893736E+03  0.41057931451E+03  0.00000000000E+00 0. -1.
         22    1    3    3    0    0  0.63400379814E+02  0.69316552538E+00  0.43346042555E+02  0.76804739725E+02  0.00000000000E+00 0. -1.
</event>
<event>
 7    1  0.6152634E-006  0.4740331E+02  0.7818608E-02  0.1522502E+00
          2   -1    0    0  502    0  0.00000000000E+00  0.00000000000E+00  0.43713203627E+03  0.43713203627E+03  0.00000000000E+00 0. -1.
          1   -1    0    0  501    0 -0.00000000000E+00 -0.00000000000E+00 -0.42475415250E+03  0.42475415250E+03  0.00000000000E+00 0. -1.
         25    2    1    2    0    0  0.41666326622E+02  0.37621802327E+01  0.12673229077E+03  0.18285207357E+03  0.12499428191E+03 0.  0.
          2    1    1    2  501    0 -0.13288492560E+01 -0.30629606377E+02 -0.39401446498E+03  0.39520543676E+03  0.00000000000E+00 0. -1.
          1    1    1    2  502    0 -0.40337477366E+02  0.26867426144E+02  0.27966005799E+03  0.28382867844E+03  0.00000000000E+00 0. -1.
         22    1    3    3    0    0  0.72579796623E+02  0.22726095119E+02  0.34054005733E+02  0.83330532121E+02  0.00000000000E+00 0. -1.
         22    1    3    3    0    0 -0.30913470001E+02 -0.18963914886E+02  0.92678285037E+02  0.99521541451E+02  0.00000000000E+00 0. -1.
</event>
<event>
 7    1  0.6152634E-006  0.5419869E+02  0.7818608E-02  0.1497361E+00
          2   -1    0    0  502    0  0.00000000000E+00  0.00000000000E+00  0.19971903392E+04  0.19971903392E+04  0.00000000000E+00 0. -1.
          1   -1    0    0  501    0 -0.00000000000E+00 -0.00000000000E+00 -0.57318803797E+02  0.57318803797E+02  0.00000000000E+00 0. -1.
         25    2    1    2    0    0 -0.17639951374E+02 -0.31897387883E+02  0.17924513036E+03  0.22154629807E+03  0.12500133677E+03 0.  0.
          2    1    1    2  501    0  0.49221763491E+02  0.28202644679E+02 -0.13693351373E+02  0.58358195996E+02  0.00000000000E+00 0. -1.
          1    1    1    2  502    0 -0.31581812117E+02  0.36947432043E+01  0.17743197564E+04  0.17746046489E+04  0.00000000000E+00 0. -1.
         22    1    3    3    0    0 -0.16292623214E+02  0.25864112674E+02  0.15649329921E+03  0.15945079050E+03  0.00000000000E+00 0. -1.
         22    1    3    3    0    0 -0.13473281595E+01 -0.57761500557E+02  0.22751831152E+02  0.62095507571E+02  0.00000000000E+00 0. -1.
</event>
<event>
 7    1  0.6152634E-006  0.1857323E+03  0.7818608E-02  0.1163197E+00
          2   -1    0    0  502    0  0.00000000000E+00  0.00000000000E+00  0.19132825062E+04  0.19132825062E+04  0.00000000000E+00 0. -1.
          1   -1    0    0  501    0 -0.00000000000E+00 -0.00000000000E+00 -0.26459973072E+03  0.26459973072E+03  0.00000000000E+00 0. -1.
         25    2    1    2    0    0 -0.18454928875E+03  0.98642509152E+02 -0.66239550524E+02  0.25258773318E+03  0.12499640119E+03 0.  0.
          2    1    1    2  501    0  0.18623717328E+03  0.85306636754E+02  0.43830091728E+01  0.20489196606E+03  0.00000000000E+00 0. -1.
          1    1    1    2  502    0 -0.16878845243E+01 -0.18394914591E+03  0.17105393168E+04  0.17204025377E+04  0.00000000000E+00 0. -1.
         22    1    3    3    0    0  0.15612019814E+02  0.25190440408E+02 -0.15395478262E+02  0.33396320180E+02  0.00000000000E+00 0. -1.
         22    1    3    3    0    0 -0.20016130857E+03  0.73452068744E+02 -0.50844072262E+02  0.21919141300E+03  0.00000000000E+00 0. -1.
</event>
<event>
 7    1  0.6152634E-006  0.3187345E+03  0.7818608E-02  0.1142069E+00
          2   -1    0    0  502    0  0.00000000000E+00  0.00000000000E+00  0.78923292183E+03  0.78923292183E+03  0.00000000000E+00 0. -1.
          1   -1    0    0  501    0 -0.00000000000E+00 -0.00000000000E+00 -0.22356691699E+04  0.22356691699E+04  0.00000000000E+00 0. -1.
         25    2    1    2    0    0 -0.77438942182E+02  0.27993341496E+03  0.53631511517E+01  0.31624815512E+03  0.12499850257E+03 0.  0.
          2    1    1    2  501    0  0.12857835672E+03  0.48795053200E+02 -0.20337114109E+04  0.20383560665E+04  0.00000000000E+00 0. -1.
          1    1    1    2  502    0 -0.51139414540E+02 -0.32872846816E+03  0.58191201161E+03  0.67029787017E+03  0.00000000000E+00 0. -1.
         22    1    3    3    0    0 -0.57025537457E+02  0.25589733006E+03 -0.35570258271E+02  0.26457626259E+03  0.00000000000E+00 0.  1.
         22    1    3    3    0    0 -0.20413404725E+02  0.24036084899E+02  0.40933409422E+02  0.51671892521E+02  0.00000000000E+00 0.  1.
</event>
<event>
 7    1  0.6152634E-006  0.3564933E+02  0.7818608E-02  0.1612975E+00
          2   -1    0    0  502    0  0.00000000000E+00  0.00000000000E+00  0.16550295949E+03  0.16550295949E+03  0.00000000000E+00 0. -1.
          1   -1    0    0  501    0 -0.00000000000E+00 -0.00000000000E+00 -0.36445882836E+03  0.36445882836E+03  0.00000000000E+00 0. -1.
         25    2    1    2    0    0  0.20844261230E+02 -0.19881400064E+01 -0.18840856405E+02  0.12813309902E+03  0.12499870906E+03 0.  0.
          2    1    1    2  501    0  0.63712149302E+01 -0.22201654770E+02 -0.28750618804E+03  0.28843251206E+03  0.00000000000E+00 0. -1.
          1    1    1    2  502    0 -0.27215476160E+02  0.24189794776E+02  0.10739117557E+03  0.11339617677E+03  0.00000000000E+00 0. -1.
         22    1    3    3    0    0 -0.21543885886E+02 -0.48634551757E+02 -0.34227463603E+02  0.63253283775E+02  0.00000000000E+00 0.  1.
         22    1    3    3    0    0  0.42388147116E+02  0.46646411750E+02  0.15386607198E+02  0.64879815245E+02  0.00000000000E+00 0.  1.
</event>
<event>
 7    1  0.6152634E-006  0.9970837E+02  0.7818608E-02  0.1403871E+00
          2   -1    0    0  502    0  0.00000000000E+00  0.00000000000E+00  0.99062274992E+03  0.99062274992E+03  0.00000000000E+00 0. -1.
          1   -1    0    0  501    0 -0.00000000000E+00 -0.00000000000E+00 -0.77473521572E+03  0.77473521572E+03  0.00000000000E+00 0. -1.
         25    2    1    2    0    0 -0.35705062372E+02 -0.56108834743E+02 -0.45272168172E+03  0.47434721145E+03  0.12500121235E+03 0.  0.
          2    1    1    2  501    0 -0.26290009390E+02 -0.22218619565E+02 -0.30769254165E+03  0.30961190519E+03  0.00000000000E+00 0. -1.
          1    1    1    2  502    0  0.61995071761E+02  0.78327454308E+02  0.97630175757E+03  0.98139884901E+03  0.00000000000E+00 0. -1.
         22    1    3    3    0    0  0.37936805300E+02 -0.41217145139E+01 -0.57745113601E+02  0.69214795179E+02  0.00000000000E+00 0. -1.
         22    1    3    3    0    0 -0.73641867672E+02 -0.51987120229E+02 -0.39497656812E+03  0.40513241627E+03  0.00000000000E+00 0. -1.
</event>
<event>
 7    1  0.6152634E-006  0.2141897E+03  0.7818608E-02  0.1260947E+00
          2   -1    0    0  502    0  0.00000000000E+00  0.00000000000E+00  0.11457530867E+04  0.11457530867E+04  0.00000000000E+00 0. -1.
          1   -1    0    0  501    0 -0.00000000000E+00 -0.00000000000E+00 -0.69549047849E+03  0.69549047849E+03  0.00000000000E+00 0. -1.
         25    2    1    2    0    0  0.13527482389E+03  0.15086298555E+03 -0.40393418829E+03  0.46887809937E+03  0.12499970086E+03 0.  0.
          2    1    1    2  501    0 -0.38739354076E+02  0.40830037109E+02 -0.24552591171E+03  0.25189442789E+03  0.00000000000E+00 0. -1.
          1    1    1    2  502    0 -0.96535469814E+02 -0.19169302266E+03  0.10997227082E+04  0.11204710380E+04  0.00000000000E+00 0. -1.
         22    1    3    3    0    0  0.42324022529E+02 -0.10507515189E+02 -0.13415999507E+03  0.14106961060E+03  0.00000000000E+00 0. -1.
         22    1    3    3    0    0  0.92950801361E+02  0.16137050074E+03 -0.26977419322E+03  0.32780848877E+03  0.00000000000E+00 0. -1.
</event>
<event>
 7    1  0.6152634E-006  0.1772680E+03  0.7818608E-02  0.1276017E+00
          2   -1    0    0  502    0  0.00000000000E+00  0.00000000000E+00  0.53335163899E+03  0.53335163899E+03  0.00000000000E+00 0. -1.
          1   -1    0    0  501    0 -0.00000000000E+00 -0.00000000000E+00 -0.28963746064E+03  0.28963746064E+03  0.00000000000E+00 0. -1.
         25    2    1    2    0    0 -0.63066472715E+02 -0.14832095516E+03  0.15346653291E+03  0.25525097794E+03  0.12499839718E+03 0.  0.
          2    1    1    2  501    0  0.12041066250E+03  0.13548641156E+03 -0.20097824667E+03  0.27064284767E+03  0.00000000000E+00 0. -1.
          1    1    1    2  502    0 -0.57344189783E+02  0.12834543601E+02  0.29122589210E+03  0.29709527402E+03  0.00000000000E+00 0. -1.
         22    1    3    3    0    0  0.36107160959E+02 -0.28384984984E+02  0.52430961408E+02  0.69702511857E+02  0.00000000000E+00 0. -1.
         22    1    3    3    0    0 -0.99173633673E+02 -0.11993597017E+03  0.10103557150E+03  0.18554846609E+03  0.00000000000E+00 0. -1.
</event>
<event>
 7    1  0.6152634E-006  0.4464446E+02  0.7818608E-02  0.1596633E+00
          2   -1    0    0  502    0  0.00000000000E+00  0.00000000000E+00  0.45001574013E+03  0.45001574013E+03  0.00000000000E+00 0. -1.
          1   -1    0    0  501    0 -0.00000000000E+00 -0.00000000000E+00 -0.31109064834E+02  0.31109064834E+02  0.00000000000E+00 0. -1.
         25    2    1    2    0    0  0.12135962060E+02 -0.27901361054E+02  0.34672477611E+03  0.36981683954E+03  0.12498262645E+03 0.  0.
          2    1    1    2  501    0 -0.26405605510E+01  0.45885848659E+02  0.11599169501E+02  0.47402788950E+02  0.00000000000E+00 0. -1.
          1    1    1    2  502    0 -0.94954015092E+01 -0.17984487605E+02  0.60582729680E+02  0.63905176471E+02  0.00000000000E+00 0. -1.
         22    1    3    3    0    0  0.17778599774E+02  0.16985212224E+02  0.31153087632E+03  0.31249970071E+03  0.00000000000E+00 0. -1.
         22    1    3    3    0    0 -0.56426377139E+01 -0.44886573278E+02  0.35193899795E+02  0.57317138831E+02  0.00000000000E+00 0. -1.
</event>
<event>
 7    1  0.6152634E-006  0.1183203E+03  0.7818608E-02  0.1269874E+00
          2   -1    0    0  502    0  0.00000000000E+00  0.00000000000E+00  0.24427259113E+04  0.24427259113E+04  0.00000000000E+00 0. -1.
          1   -1    0    0  501    0 -0.00000000000E+00 -0.00000000000E+00 -0.30457300400E+03  0.30457300400E+03  0.00000000000E+00 0. -1.
         25    2    1    2    0    0  0.38547625197E+02  0.25336458135E+02  0.14740489766E+03  0.19869740551E+03  0.12499839831E+03 0.  0.
          2    1    1    2  501    0 -0.33373908257E+01  0.93341589406E+02 -0.26936610439E+03  0.28509978724E+03  0.00000000000E+00 0. -1.
          1    1    1    2  502    0 -0.35210234371E+02 -0.11867804754E+03  0.22601141140E+04  0.22635017226E+04  0.00000000000E+00 0. -1.
         22    1    3    3    0    0  0.74508747338E+02  0.24234914036E+02  0.45446490547E+02  0.90577414355E+02  0.00000000000E+00 0. -1.
         22    1    3    3    0    0 -0.35961122141E+02  0.11015440985E+01  0.10195840712E+03  0.10811999115E+03  0.00000000000E+00 0. -1.
</event>
<event>
 7    1  0.6152634E-006  0.1646862E+03  0.7818608E-02  0.1327078E+00
          2   -1    0    0  502    0  0.00000000000E+00  0.00000000000E+00  0.11141622681E+04  0.11141622681E+04  0.00000000000E+00 0. -1.
          1   -1    0    0  501    0 -0.00000000000E+00 -0.00000000000E+00 -0.40881652722E+03  0.40881652722E+03  0.00000000000E+00 0. -1.
         25    2    1    2    0    0  0.70864523330E+02 -0.18637669594E+03 -0.12924637916E+02  0.23569267994E+03  0.12500375857E+03 0.  0.
          2    1    1    2  501    0 -0.38640030953E+00  0.39542620120E+02 -0.27647825008E+03  0.27929194560E+03  0.00000000000E+00 0. -1.
          1    1    1    2  502    0 -0.70478123021E+02  0.14683407582E+03  0.99474862885E+03  0.10079941697E+04  0.00000000000E+00 0. -1.
         22    1    3    3    0    0 -0.20115819160E+02  0.55034253193E+01  0.79354687297E+01  0.22313796958E+02  0.00000000000E+00 0. -1.
         22    1    3    3    0    0  0.90980342490E+02 -0.19188012126E+03 -0.20860106646E+02  0.21337888298E+03  0.00000000000E+00 0. -1.
</event>
<event>
 7    1  0.6152634E-006  0.1151877E+03  0.7818608E-02  0.1302510E+00
          2   -1    0    0  502    0  0.00000000000E+00  0.00000000000E+00  0.75375593494E+03  0.75375593494E+03  0.00000000000E+00 0. -1.
          1   -1    0    0  501    0 -0.00000000000E+00 -0.00000000000E+00 -0.10042895589E+03  0.10042895589E+03  0.00000000000E+00 0. -1.
         25    2    1    2    0    0 -0.13199483287E+01  0.12039279063E+03  0.26669593861E+03  0.31819763405E+03  0.12500737714E+03 0.  0.
          2    1    1    2  501    0 -0.65381063708E+02 -0.97436044629E+02 -0.23639399553E+02  0.11969664780E+03  0.00000000000E+00 0. -1.
          1    1    1    2  502    0  0.66701012036E+02 -0.22956746004E+02  0.41027043999E+03  0.41629060897E+03  0.00000000000E+00 0. -1.
         22    1    3    3    0    0 -0.26828978463E+02  0.44251578443E+02  0.21849837491E+03  0.22454294938E+03  0.00000000000E+00 0.  1.
         22    1    3    3    0    0  0.25509030134E+02  0.76141212190E+02  0.48197563705E+02  0.93654684663E+02  0.00000000000E+00 0.  1.
</event>
<event>
 7    1  0.6152634E-006  0.6866072E+02  0.7818608E-02  0.1376314E+00
          2   -1    0    0  502    0  0.00000000000E+00  0.00000000000E+00  0.20691898398E+04  0.20691898398E+04  0.00000000000E+00 0. -1.
          1   -1    0    0  501    0 -0.00000000000E+00 -0.00000000000E+00 -0.29877616520E+04  0.29877616520E+04  0.00000000000E+00 0. -1.
         25    2    1    2    0    0 -0.95835274797E+02  0.45453787942E+02  0.39348828015E+03  0.42627225597E+03  0.12499825143E+03 0.  0.
          2    1    1    2  501    0  0.61060457719E+02  0.12740464440E+02 -0.29703496667E+04  0.29710045173E+04  0.00000000000E+00 0. -1.
          1    1    1    2  502    0  0.34774817078E+02 -0.58194252383E+02  0.16582895744E+04  0.16596747185E+04  0.00000000000E+00 0. -1.
         22    1    3    3    0    0  0.14152213249E+02  0.17512096863E+01  0.19249496080E+03  0.19302243862E+03  0.00000000000E+00 0.  1.
         22    1    3    3    0    0 -0.10998748805E+03  0.43702578256E+02  0.20099331935E+03  0.23324981735E+03  0.00000000000E+00 0.  1.
</event>
<event>
 7    1  0.6152634E-006  0.1035674E+03  0.7818608E-02  0.1390107E+00
          2   -1    0    0  502    0  0.00000000000E+00  0.00000000000E+00  0.52285061186E+02  0.52285061186E+02  0.00000000000E+00 0. -1.
          1   -1    0    0  501    0 -0.00000000000E+00 -0.00000000000E+00 -0.12729242449E+04  0.12729242449E+04  0.00000000000E+00 0. -1.
         25    2    1    2    0    0 -0.23808178010E+02  0.74959825613E+02 -0.86355136931E+02  0.17107925899E+03  0.12500039354E+03 0.  0.
          2    1    1    2  501    0  0.25343118551E+01 -0.10519879926E+03 -0.10955160144E+04  0.11005582892E+04  0.00000000000E+00 0. -1.
          1    1    1    2  502    0  0.21273866155E+02  0.30238973647E+02 -0.38768032319E+02  0.53571757842E+02  0.00000000000E+00 0. -1.
         22    1    3    3    0    0  0.33616726380E+02 -0.55928607892E+01 -0.59507564202E+02  0.68574883023E+02  0.00000000000E+00 0. -1.
         22    1    3    3    0    0 -0.57424904390E+02  0.80552686402E+02 -0.26847572730E+02  0.10250437597E+03  0.00000000000E+00 0. -1.
</event>
<event>
 7    1  0.6152634E-006  0.1353163E+03  0.7818608E-02  0.1275876E+00
          2   -1    0    0  502    0  0.00000000000E+00  0.00000000000E+00  0.25915684051E+03  0.25915684051E+03  0.00000000000E+00 0. -1.
          1   -1    0    0  501    0 -0.00000000000E+00 -0.00000000000E+00 -0.22783715864E+04  0.22783715864E+04  0.00000000000E+00 0. -1.
         25    2    1    2    0    0  0.13063705825E+03 -0.11514075489E+03 -0.25340425210E+03  0.33190580379E+03  0.12499725271E+03 0.  0.
          2    1    1    2  501    0 -0.12841553451E+03  0.38087482187E+02 -0.19766243143E+04  0.19811574611E+04  0.00000000000E+00 0. -1.
          1    1    1    2  502    0 -0.22215237332E+01  0.77053272703E+02  0.21081382055E+03  0.22446516197E+03  0.00000000000E+00 0. -1.
         22    1    3    3    0    0  0.11542488582E+03 -0.72425618244E+02 -0.25206856093E+03  0.28654307504E+03  0.00000000000E+00 0.  1.
         22    1    3    3    0    0  0.15212172428E+02 -0.42715136646E+02 -0.13356911670E+01  0.45362728749E+02  0.00000000000E+00 0.  1.
</event>
<event>
 7    1  0.6152634E-006  0.8519707E+02  0.7818608E-02  0.1411170E+00
          2   -1    0    0  502    0  0.00000000000E+00  0.00000000000E+00  0.57479738632E+03  0.57479738632E+03  0.00000000000E+00 0. -1.
          1   -1    0    0  501    0 -0.00000000000E+00 -0.00000000000E+00 -0.81155130837E+03  0.81155130837E+03  0.00000000000E+00 0. -1.
         25    2    1    2    0    0  0.54548623501E+02  0.62109988749E+02  0.71852438590E+02  0.16619102913E+03  0.12499392866E+03 0.  0.
          2    1    1    2  501    0 -0.78850068784E+02 -0.32836288626E+02 -0.76119525857E+03  0.76597243872E+03  0.00000000000E+00 0. -1.
          1    1    1    2  502    0  0.24301445283E+02 -0.29273700123E+02  0.45258889792E+03  0.45418522685E+03  0.00000000000E+00 0. -1.
         22    1    3    3    0    0 -0.20998152835E+02  0.62493264904E+02  0.64053888385E+01  0.66237146579E+02  0.00000000000E+00 0.  1.
         22    1    3    3    0    0  0.75546776336E+02 -0.38327615517E+00  0.65447049751E+02  0.99953882548E+02  0.00000000000E+00 0.  1.
</event>
<event>
 7    1  0.6152634E-006  0.1998264E+03  0.7818608E-02  0.1177068E+00
          2   -1    0    0  502    0  0.00000000000E+00  0.00000000000E+00  0.15647359562E+03  0.15647359562E+03  0.00000000000E+00 0. -1.
          1   -1    0    0  501    0 -0.00000000000E+00 -0.00000000000E+00 -0.16933451118E+04  0.16933451118E+04  0.00000000000E+00 0. -1.
         25    2    1    2    0    0  0.19663691002E+02  0.18156072980E+03 -0.24391925462E+03  0.32935166972E+03  0.12499984089E+03 0.  0.
          2    1    1    2  501    0 -0.14589677142E+03 -0.14411523363E+01 -0.12923060926E+04  0.13005164289E+04  0.00000000000E+00 0. -1.
          1    1    1    2  502    0  0.12623308042E+03 -0.18011957747E+03 -0.64616895435E+00  0.21995060880E+03  0.00000000000E+00 0. -1.
         22    1    3    3    0    0 -0.39240909469E+02  0.33482913620E+02 -0.21858706535E+02  0.56024615410E+02  0.00000000000E+00 0. -1.
         22    1    3    3    0    0  0.58904600472E+02  0.14807781618E+03 -0.22206054808E+03  0.27332705431E+03  0.00000000000E+00 0. -1.
</event>
<event>
 7    1  0.6152634E-006  0.1294254E+03  0.7818608E-02  0.1263529E+00
          2   -1    0    0  502    0  0.00000000000E+00  0.00000000000E+00  0.31748331016E+04  0.31748331016E+04  0.00000000000E+00 0. -1.
          1   -1    0    0  501    0 -0.00000000000E+00 -0.00000000000E+00 -0.23152499214E+03  0.23152499214E+03  0.00000000000E+00 0. -1.
         25    2    1    2    0    0 -0.26792133947E+02 -0.55992465988E+01 -0.42540478866E+02  0.13484907070E+03  0.12500163808E+03 0.  0.
          2    1    1    2  501    0  0.13388790576E+03 -0.67074187490E+02 -0.10184742364E+03  0.18110167210E+03  0.00000000000E+00 0. -1.
          1    1    1    2  502    0 -0.10709577181E+03  0.72673434088E+02  0.30876960119E+04  0.30904073509E+04  0.00000000000E+00 0. -1.
         22    1    3    3    0    0 -0.10953440778E+02  0.32891129745E+02  0.33470894386E+02  0.48188225241E+02  0.00000000000E+00 0.  1.
         22    1    3    3    0    0 -0.15838693169E+02 -0.38490376344E+02 -0.76011373252E+02  0.86660845462E+02  0.00000000000E+00 0.  1.
</event>
<event>
 7    1  0.6152634E-006  0.1167508E+03  0.7818608E-02  0.1312527E+00
          2   -1    0    0  502    0  0.00000000000E+00  0.00000000000E+00  0.25296097046E+03  0.25296097046E+03  0.00000000000E+00 0. -1.
          1   -1    0    0  501    0 -0.00000000000E+00 -0.00000000000E+00 -0.14015047874E+04  0.14015047874E+04  0.00000000000E+00 0. -1.
         25    2    1    2    0    0  0.11768684589E+02  0.11533429890E+03 -0.23467810604E+02  0.17209380438E+03  0.12500014773E+03 0.  0.
          2    1    1    2  501    0  0.60404837208E+02 -0.19670662517E+02 -0.12827529677E+04  0.12843250583E+04  0.00000000000E+00 0. -1.
          1    1    1    2  502    0 -0.72173521797E+02 -0.95663636381E+02  0.15767696130E+03  0.19804689520E+03  0.00000000000E+00 0. -1.
         22    1    3    3    0    0 -0.16929951256E+01  0.22629030220E+02 -0.65573209574E+02  0.69388652206E+02  0.00000000000E+00 0.  1.
         22    1    3    3    0    0  0.13461679715E+02  0.92705268678E+02  0.42105398970E+02  0.10270515218E+03  0.00000000000E+00 0.  1.
</event>
<event>
 7    1  0.6152634E-006  0.4624158E+02  0.7818608E-02  0.1498509E+00
          2   -1    0    0  502    0  0.00000000000E+00  0.00000000000E+00  0.89175128359E+02  0.89175128359E+02  0.00000000000E+00 0. -1.
          1   -1    0    0  501    0 -0.00000000000E+00 -0.00000000000E+00 -0.33771397071E+03  0.33771397071E+03  0.00000000000E+00 0. -1.
         25    2    1    2    0    0 -0.70367344704E+00  0.39255405464E+02 -0.13892223833E+03  0.19095930226E+03  0.12499833920E+03 0.  0.
          2    1    1    2  501    0  0.36138015897E+02 -0.78222743924E+01 -0.16149880094E+03  0.16567741812E+03  0.00000000000E+00 0. -1.
          1    1    1    2  502    0 -0.35434342450E+02 -0.31433131072E+02  0.51882196922E+02  0.70252378688E+02  0.00000000000E+00 0. -1.
         22    1    3    3    0    0 -0.30494986276E+02  0.51328014647E+02 -0.13137006852E+02  0.61131744819E+02  0.00000000000E+00 0. -1.
         22    1    3    3    0    0  0.29791312829E+02 -0.12072609183E+02 -0.12578523148E+03  0.12982755744E+03  0.00000000000E+00 0. -1.
</event>
<event>
 7    1  0.6152634E-006  0.1367396E+03  0.7818608E-02  0.1344851E+00
          2   -1    0    0  502    0  0.00000000000E+00  0.00000000000E+00  0.15674234708E+04  0.15674234708E+04  0.00000000000E+00 0. -1.
          1   -1    0    0  501    0 -0.00000000000E+00 -0.00000000000E+00 -0.94057466062E+03  0.94057466062E+03  0.00000000000E+00 0. -1.
         25    2    1    2    0    0 -0.11076803581E+03  0.65008912649E+02  0.53390955381E+03  0.56318884098E+03  0.12500616975E+03 0.  0.
          2    1    1    2  501    0 -0.26039358649E+02 -0.31398387481E+02 -0.92061165794E+03  0.92151491125E+03  0.00000000000E+00 0. -1.
          1    1    1    2  502    0  0.13680739446E+03 -0.33610525167E+02  0.10135509143E+04  0.10232943792E+04  0.00000000000E+00 0. -1.
         22    1    3    3    0    0  0.52280660336E+00  0.89015486394E+01  0.28192776327E+03  0.28206874091E+03  0.00000000000E+00 0. -1.
         22    1    3    3    0    0 -0.11129084241E+03  0.56107364009E+02  0.25198179054E+03  0.28112010007E+03  0.00000000000E+00 0. -1.
</event>
<event>
 7    1  0.6152634E-006  0.3600320E+02  0.7818608E-02  0.1544841E+00
          2   -1    0    0  502    0  0.00000000000E+00  0.00000000000E+00  0.14283587501E+04  0.14283587501E+04  0.00000000000E+00 0. -1.
          1   -1    0    0  501    0 -0.00000000000E+00 -0.00000000000E+00 -0.84331877090E+03  0.84331877090E+03  0.00000000000E+00 0. -1.
         25    2    1    2    0    0  0.23268309140E+01  0.56466913648E+01 -0.36310367558E+03  0.38407138379E+03  0.12501699628E+03 0.  0.
          2    1    1    2  501    0  0.33459191007E+02 -0.97827286695E+01 -0.46885523946E+03  0.47014939627E+03  0.00000000000E+00 0. -1.
          1    1    1    2  502    0 -0.35786021921E+02  0.41360373047E+01  0.14169988942E+04  0.14174567409E+04  0.00000000000E+00 0. -1.
         22    1    3    3    0    0  0.45865807437E+02 -0.26505229273E+02 -0.80737006857E+02  0.96564298511E+02  0.00000000000E+00 0.  1.
         22    1    3    3    0    0 -0.43538976523E+02  0.32151920638E+02 -0.28236666872E+03  0.28750708528E+03  0.00000000000E+00 0.  1.
</event>
<event>
 7    1  0.6152634E-006  0.9838041E+02  0.7818608E-02  0.1463173E+00
          2   -1    0    0  502    0  0.00000000000E+00  0.00000000000E+00  0.14036095518E+04  0.14036095518E+04  0.00000000000E+00 0. -1.
          1   -1    0    0  501    0 -0.00000000000E+00 -0.00000000000E+00 -0.28105752899E+04  0.28105752899E+04  0.00000000000E+00 0. -1.
         25    2    1    2    0    0 -0.10624962727E+03 -0.57921250639E+01 -0.15641591163E+02  0.16490158677E+03  0.12500136774E+03 0.  0.
          2    1    1    2  501    0  0.97220659059E+02 -0.14599108118E+02 -0.27193218268E+04  0.27210983422E+04  0.00000000000E+00 0. -1.
          1    1    1    2  502    0  0.90289682094E+01  0.20391233182E+02  0.13279976798E+04  0.13281849127E+04  0.00000000000E+00 0. -1.
         22    1    3    3    0    0 -0.11353947299E+03  0.35014121248E+02  0.43179303471E+01  0.11889426031E+03  0.00000000000E+00 0. -1.
         22    1    3    3    0    0  0.72898457197E+01 -0.40806246312E+02 -0.19959521510E+02  0.46007326456E+02  0.00000000000E+00 0. -1.
</event>
<event>
 7    1  0.6152634E-006  0.6820671E+02  0.7818608E-02  0.1385197E+00
          2   -1    0    0  502    0  0.00000000000E+00  0.00000000000E+00  0.28361433874E+03  0.28361433874E+03  0.00000000000E+00 0. -1.
          1   -1    0    0  501    0 -0.00000000000E+00 -0.00000000000E+00 -0.12008805176E+03  0.12008805176E+03  0.00000000000E+00 0. -1.
         25    2    1    2    0    0 -0.22720381694E+02  0.38384526036E+02  0.13744471399E+02  0.13342861525E+03  0.12499878915E+03 0.  0.
          2    1    1    2  501    0 -0.49711637376E+02 -0.30662835154E+02 -0.37442305291E+02  0.69378545501E+02  0.00000000000E+00 0. -1.
          1    1    1    2  502    0  0.72432019070E+02 -0.77216908816E+01  0.18722412088E+03  0.20089522975E+03  0.00000000000E+00 0. -1.
         22    1    3    3    0    0 -0.29069516950E+02  0.79398871162E+02  0.28733618044E+02  0.89301950502E+02  0.00000000000E+00 0. -1.
         22    1    3    3    0    0  0.63491352560E+01 -0.41014345126E+02 -0.14989146645E+02  0.44126664748E+02  0.00000000000E+00 0. -1.
</event>
<event>
 7    1  0.6152634E-006  0.9121836E+02  0.7818608E-02  0.1315864E+00
          2   -1    0    0  502    0  0.00000000000E+00  0.00000000000E+00  0.17091489922E+04  0.17091489922E+04  0.00000000000E+00 0. -1.
          1   -1    0    0  501    0 -0.00000000000E+00 -0.00000000000E+00 -0.94935340592E+03  0.94935340592E+03  0.00000000000E+00 0. -1.
         25    2    1    2    0    0 -0.38614037724E+02  0.65928042128E+02  0.21931569611E+03  0.26374467336E+03  0.12499731005E+03 0.  0.
          2    1    1    2  501    0 -0.55178105836E+02 -0.56395331784E+02 -0.92394187616E+03  0.92730450627E+03  0.00000000000E+00 0. -1.
          1    1    1    2  502    0  0.93792143559E+02 -0.95327103437E+01  0.14644217664E+04  0.14674532185E+04  0.00000000000E+00 0. -1.
         22    1    3    3    0    0  0.15234148219E+02  0.42480849419E+01  0.16439262910E+03  0.16515163336E+03  0.00000000000E+00 0. -1.
         22    1    3    3    0    0 -0.53848185943E+02  0.61679957186E+02  0.54923067008E+02  0.98593040005E+02  0.00000000000E+00 0. -1.
</event>
<event>
 7    1  0.6152634E-006  0.5136545E+02  0.7818608E-02  0.1446424E+00
          2   -1    0    0  502    0  0.00000000000E+00  0.00000000000E+00  0.77128383916E+03  0.77128383916E+03  0.00000000000E+00 0. -1.
          1   -1    0    0  501    0 -0.00000000000E+00 -0.00000000000E+00 -0.26211536237E+03  0.26211536237E+03  0.00000000000E+00 0. -1.
         25    2    1    2    0    0 -0.37237228906E+02  0.25418372121E+02 -0.14153389557E+03  0.19413782463E+03  0.12499978600E+03 0.  0.
          2    1    1    2  501    0  0.40694500551E+02  0.25983059776E+02 -0.87140358439E+02  0.99622305932E+02  0.00000000000E+00 0. -1.
          1    1    1    2  502    0 -0.34572716440E+01 -0.51401431896E+02  0.73784273079E+03  0.73963907097E+03  0.00000000000E+00 0. -1.
         22    1    3    3    0    0 -0.43143408646E+02 -0.25079940455E+02 -0.13368170376E+03  0.14269251923E+03  0.00000000000E+00 0.  1.
         22    1    3    3    0    0  0.59061797393E+01  0.50498312576E+02 -0.78521918062E+01  0.51445305405E+02  0.00000000000E+00 0.  1.
</event>
<event>
 7    1  0.6152634E-006  0.9604155E+02  0.7818608E-02  0.1341975E+00
          2   -1    0    0  502    0  0.00000000000E+00  0.00000000000E+00  0.10202259085E+04  0.10202259085E+04  0.00000000000E+00 0. -1.
          1   -1    0    0  501    0 -0.00000000000E+00 -0.00000000000E+00 -0.86418389219E+03  0.86418389219E+03  0.00000000000E+00 0. -1.
         25    2    1    2    0    0 -0.67610104835E+02 -0.26333829466E+02  0.95357827640E+02  0.17315485216E+03  0.12499956273E+03 0.  0.
          2    1    1    2  501    0  0.49727040194E+02  0.83118404891E+02 -0.82143670178E+03  0.82712738003E+03  0.00000000000E+00 0. -1.
          1    1    1    2  502    0  0.17883064641E+02 -0.56784575425E+02  0.88212089043E+03  0.88412756847E+03  0.00000000000E+00 0. -1.
         22    1    3    3    0    0 -0.36439174845E+02  0.38742577570E+02  0.84985894836E+02  0.10025668607E+03  0.00000000000E+00 0.  1.
         22    1    3    3    0    0 -0.31170929990E+02 -0.65076407035E+02  0.10371932804E+02  0.72898166089E+02  0.00000000000E+00 0.  1.
</event>
<event>
 7    1  0.6152634E-006  0.8002137E+02  0.7818608E-02  0.1400289E+00
          2   -1    0    0  502    0  0.00000000000E+00  0.00000000000E+00  0.15805675059E+03  0.15805675059E+03  0.00000000000E+00 0. -1.
          1   -1    0    0  501    0 -0.00000000000E+00 -0.00000000000E+00 -0.22083695921E+04  0.22083695921E+04  0.00000000000E+00 0. -1.
         25    2    1    2    0    0 -0.50888867554E-01  0.11369673577E+03 -0.46236159029E+02  0.17518533121E+03  0.12500067021E+03 0.  0.
          2    1    1    2  501    0  0.18229454957E+02 -0.40177830822E+02 -0.20820647131E+04  0.20825321223E+04  0.00000000000E+00 0. -1.
          1    1    1    2  502    0 -0.18178566089E+02 -0.73518904949E+02  0.77988030635E+02  0.10870888911E+03  0.00000000000E+00 0. -1.
         22    1    3    3    0    0 -0.51233419882E+02  0.91275883208E+01 -0.80463653249E+01  0.52658524251E+02  0.00000000000E+00 0.  1.
         22    1    3    3    0    0  0.51182531014E+02  0.10456914745E+03 -0.38189793704E+02  0.12252680696E+03  0.00000000000E+00 0.  1.
</event>
<event>
 7    1  0.6152634E-006  0.5190237E+02  0.7818608E-02  0.1495833E+00
          2   -1    0    0  502    0  0.00000000000E+00  0.00000000000E+00  0.18835676643E+04  0.18835676643E+04  0.00000000000E+00 0. -1.
          1   -1    0    0  501    0 -0.00000000000E+00 -0.00000000000E+00 -0.95860205009E+03  0.95860205009E+03  0.00000000000E+00 0. -1.
         25    2    1    2    0    0 -0.84786539846E+02 -0.97830977319E+01  0.19498108632E+03  0.24683408573E+03  0.12499990206E+03 0.  0.
          2    1    1    2  501    0  0.51465243206E+02  0.58218568274E+01 -0.93178698844E+03  0.93322535172E+03  0.00000000000E+00 0. -1.
          1    1    1    2  502    0  0.33321296640E+02  0.39612409045E+01  0.16617715163E+04  0.16621102770E+04  0.00000000000E+00 0. -1.
         22    1    3    3    0    0  0.20378865256E+02  0.29266274475E+02  0.26534087403E+02  0.44450767880E+02  0.00000000000E+00 0. -1.
         22    1    3    3    0    0 -0.10516540510E+03 -0.39049372207E+02  0.16844699892E+03  0.20238331785E+03  0.00000000000E+00 0. -1.
</event>
<event>
 7    1  0.6152634E-006  0.6363573E+02  0.7818608E-02  0.1435664E+00
          2   -1    0    0  502    0  0.00000000000E+00  0.00000000000E+00  0.24463541174E+04  0.24463541174E+04  0.00000000000E+00 0. -1.
          1   -1    0    0  501    0 -0.00000000000E+00 -0.00000000000E+00 -0.10809608443E+02  0.10809608443E+02  0.00000000000E+00 0. -1.
         25    2    1    2    0    0  0.71755955061E+02  0.34081012738E+02  0.12364199033E+04  0.12452586432E+04  0.12499791461E+03 0.  0.
          2    1    1    2  501    0 -0.62504015615E+02  0.71234835002E+01  0.16000343794E+03  0.17192613571E+03  0.00000000000E+00 0. -1.
          1    1    1    2  502    0 -0.92519394462E+01 -0.41204496239E+02  0.10391211677E+04  0.10399789469E+04  0.00000000000E+00 0. -1.
         22    1    3    3    0    0 -0.15755762897E+02 -0.29655898721E+02  0.16498134736E+03  0.16836437084E+03  0.00000000000E+00 0. -1.
         22    1    3    3    0    0  0.87511717958E+02  0.63736911459E+02  0.10714385560E+04  0.10768942724E+04  0.00000000000E+00 0. -1.
</event>
<event>
 7    1  0.6152634E-006  0.1229354E+03  0.7818608E-02  0.1287067E+00
          2   -1    0    0  502    0  0.00000000000E+00  0.00000000000E+00  0.24480846208E+04  0.24480846208E+04  0.00000000000E+00 0. -1.
          1   -1    0    0  501    0 -0.00000000000E+00 -0.00000000000E+00 -0.17946832913E+03  0.17946832913E+03  0.00000000000E+00 0. -1.
         25    2    1    2    0    0  0.15669224679E+03  0.62736793364E+02  0.79630788365E+03  0.82354123125E+03  0.12500219425E+03 0.  0.
          2    1    1    2  501    0 -0.39186535234E+02 -0.65464143804E+02 -0.15484361823E+03  0.17262005901E+03  0.00000000000E+00 0. -1.
          1    1    1    2  502    0 -0.11750571156E+03  0.27273504395E+01  0.16271520263E+04  0.16313916597E+04  0.00000000000E+00 0. -1.
         22    1    3    3    0    0 -0.16993863207E+02  0.26524109652E+02  0.92578792408E+02  0.97791372745E+02  0.00000000000E+00 0.  1.
         22    1    3    3    0    0  0.17368611000E+03  0.36212683713E+02  0.70372909124E+03  0.72574985851E+03  0.00000000000E+00 0.  1.
</event>
<event>
 7    1  0.6152634E-006  0.1984901E+03  0.7818608E-02  0.1191923E+00
          2   -1    0    0  502    0  0.00000000000E+00  0.00000000000E+00  0.21908676748E+04  0.21908676748E+04  0.00000000000E+00 0. -1.
          1   -1    0    0  501    0 -0.00000000000E+00 -0.00000000000E+00 -0.50134322363E+03  0.50134322363E+03  0.00000000000E+00 0. -1.
         25    2    1    2    0    0  0.10574984249E+03  0.27027170187E+02  0.17190975341E+01  0.16595855547E+03  0.12500315886E+03 0.  0.
          2    1    1    2  501    0 -0.22241601882E+03 -0.70379664444E+02 -0.38475733860E+03  0.44995598918E+03  0.00000000000E+00 0. -1.
          1    1    1    2  502    0  0.11666617634E+03  0.43352494257E+02  0.20725626922E+04  0.20762963538E+04  0.00000000000E+00 0. -1.
         22    1    3    3    0    0  0.12539942370E+03  0.35547592116E+02  0.26706541876E+02  0.13304843535E+03  0.00000000000E+00 0. -1.
         22    1    3    3    0    0 -0.19649581216E+02 -0.85204219289E+01 -0.24987444342E+02  0.32910120123E+02  0.00000000000E+00 0. -1.
</event>
<event>
 7    1  0.6152634E-006  0.4896123E+02  0.7818608E-02  0.1578716E+00
          2   -1    0    0  502    0  0.00000000000E+00  0.00000000000E+00  0.17120578114E+04  0.17120578114E+04  0.00000000000E+00 0. -1.
          1   -1    0    0  501    0 -0.00000000000E+00 -0.00000000000E+00 -0.28837836309E+03  0.28837836309E+03  0.00000000000E+00 0. -1.
         25    2    1    2    0    0  0.21533715395E+02  0.30388158164E+02  0.17071301613E+03  0.21483936936E+03  0.12500351872E+03 0.  0.
          2    1    1    2  501    0  0.20231329947E+02 -0.43354793305E+01 -0.26551388352E+03  0.26631884168E+03  0.00000000000E+00 0. -1.
          1    1    1    2  502    0 -0.41765045342E+02 -0.26052678834E+02  0.15184803157E+04  0.15192779635E+04  0.00000000000E+00 0. -1.
         22    1    3    3    0    0 -0.12421081844E+02  0.73939284526E+02  0.10463243428E+03  0.12872158861E+03  0.00000000000E+00 0. -1.
         22    1    3    3    0    0  0.33954797240E+02 -0.43551126362E+02  0.66080581854E+02  0.86117780749E+02  0.00000000000E+00 0. -1.
</event>
<event>
 7    1  0.6152634E-006  0.6004078E+02  0.7818608E-02  0.1468386E+00
          2   -1    0    0  502    0  0.00000000000E+00  0.00000000000E+00  0.25685562403E+04  0.25685562403E+04  0.00000000000E+00 0. -1.
          1   -1    0    0  501    0 -0.00000000000E+00 -0.00000000000E+00 -0.69425760704E+01  0.69425760704E+01  0.00000000000E+00 0. -1.
         25    2    1    2    0    0 -0.38999996651E+02  0.25464749871E+02  0.13310551556E+04  0.13377233036E+04  0.12500542687E+03 0.  0.
          2    1    1    2  501    0  0.64708496573E+02 -0.14293628222E+01  0.31704180332E+03  0.32358111450E+03  0.00000000000E+00 0. -1.
          1    1    1    2  502    0 -0.25708499922E+02 -0.24035387048E+02  0.91351670537E+03  0.91419439825E+03  0.00000000000E+00 0. -1.
         22    1    3    3    0    0  0.26315349418E+02 -0.24349634758E+02  0.75388799223E+03  0.75474002620E+03  0.00000000000E+00 0. -1.
         22    1    3    3    0    0 -0.65315346069E+02  0.49814384629E+02  0.57716716332E+03  0.58298327743E+03  0.00000000000E+00 0. -1.
</event>
<event>
 7    1  0.6152634E-006  0.1100521E+03  0.7818608E-02  0.1368357E+00
          2   -1    0    0  502    0  0.00000000000E+00  0.00000000000E+00  0.27676341482E+04  0.27676341482E+04  0.00000000000E+00 0. -1.
          1   -1    0    0  501    0 -0.00000000000E+00 -0.00000000000E+00 -0.83633940322E+02  0.83633940322E+02  0.00000000000E+00 0. -1.
         25    2    1    2    0    0 -0.69414120241E+02  0.57025974143E+02  0.12147918440E+03  0.19609170986E+03  0.12499793845E+03 0.  0.
          2    1    1    2  501    0  0.70733480009E+02 -0.98560547844E+02  0.33556892192E+02  0.12587085365E+03  0.00000000000E+00 0. -1.
          1    1    1    2  502    0 -0.13193597676E+01  0.41534573700E+02  0.25289641312E+04  0.25293055250E+04  0.00000000000E+00 0. -1.
         22    1    3    3    0    0 -0.79086810124E+02  0.70920679526E+02  0.13683917529E+03  0.17323228976E+03  0.00000000000E+00 0. -1.
         22    1    3    3    0    0  0.96726898830E+01 -0.13894705383E+02 -0.15359990891E+02  0.22859420103E+02  0.00000000000E+00 0. -1.
</event>
<event>
 7    1  0.6152634E-006  0.6832453E+02  0.7818608E-02  0.1384396E+00
          2   -1    0    0  502    0  0.00000000000E+00  0.00000000000E+00  0.39127220087E+04  0.39127220087E+04  0.00000000000E+00 0. -1.
          1   -1    0    0  501    0 -0.00000000000E+00 -0.00000000000E+00 -0.11178412896E+04  0.11178412896E+04  0.00000000000E+00 0. -1.
         25    2    1    2    0    0 -0.15092599319E+02 -0.15955010574E+02  0.11228422330E+03  0.16944993846E+03  0.12499274348E+03 0.  0.
          2    1    1    2  501    0  0.27473114817E+02 -0.51858290340E+02 -0.10881527197E+04  0.10897340940E+04  0.00000000000E+00 0. -1.
          1    1    1    2  502    0 -0.12380515498E+02  0.67813300914E+02  0.37707492155E+04  0.37713792659E+04  0.00000000000E+00 0. -1.
         22    1    3    3    0    0  0.32097648124E+02 -0.44501469932E+02  0.98260451183E+02  0.11254224144E+03  0.00000000000E+00 0.  1.
         22    1    3    3    0    0 -0.47190247442E+02  0.28546459358E+02  0.14023772122E+02  0.56907697020E+02  0.00000000000E+00 0.  1.
</event>
<event>
 7    1  0.6152634E-006  0.1457569E+03  0.7818608E-02  0.1285387E+00
          2   -1    0    0  502    0  0.00000000000E+00  0.00000000000E+00  0.47108648466E+03  0.47108648466E+03  0.00000000000E+00 0. -1.
          1   -1    0    0  501    0 -0.00000000000E+00 -0.00000000000E+00 -0.20261734202E+03  0.20261734202E+03  0.00000000000E+00 0. -1.
         25    2    1    2    0    0  0.69978912131E+02 -0.10096363486E+03  0.16618482535E+03  0.24152155232E+03  0.12499824138E+03 0.  0.
          2    1    1    2  501    0  0.65115869527E+02  0.58424867433E+01 -0.13094571086E+03  0.14635911420E+03  0.00000000000E+00 0. -1.
          1    1    1    2  502    0 -0.13509478166E+03  0.95121148117E+02  0.23323002816E+03  0.28582316016E+03  0.00000000000E+00 0. -1.
         22    1    3    3    0    0  0.30192646887E+02 -0.12275106807E+02  0.13583397990E+03  0.13968945654E+03  0.00000000000E+00 0.  1.
         22    1    3    3    0    0  0.39786265244E+02 -0.88688528053E+02  0.30350845450E+02  0.10183209577E+03  0.00000000000E+00 0.  1.
</event>
<event>
 7    1  0.6152634E-006  0.2115234E+02  0.7818608E-02  0.1723470E+00
          2   -1    0    0  502    0  0.00000000000E+00  0.00000000000E+00  0.14355834480E+03  0.14355834480E+03  0.00000000000E+00 0. -1.
          1   -1    0    0  501    0 -0.00000000000E+00 -0.00000000000E+00 -0.20482860869E+03  0.20482860869E+03  0.00000000000E+00 0. -1.
         25    2    1    2    0    0 -0.11141237597E+02 -0.11759313664E+02 -0.29027854564E+01  0.12607856332E+03  0.12499987733E+03 0.  0.
          2    1    1    2  501    0  0.19569019169E+02 -0.79915541805E+01 -0.13811353407E+03  0.13972172252E+03  0.00000000000E+00 0. -1.
          1    1    1    2  502    0 -0.84277815720E+01  0.19750867844E+02  0.79746055641E+02  0.82586667647E+02  0.00000000000E+00 0. -1.
         22    1    3    3    0    0 -0.40661956619E+02  0.27221654980E+01 -0.52568203503E+02  0.66514817302E+02  0.00000000000E+00 0. -1.
         22    1    3    3    0    0  0.29520719022E+02 -0.14481479162E+02  0.49665418047E+02  0.59563746021E+02  0.00000000000E+00 0. -1.
</event>
<event>
 7    1  0.6152634E-006  0.1595462E+03  0.7818608E-02  0.1322549E+00
          2   -1    0    0  502    0  0.00000000000E+00  0.00000000000E+00  0.30332943455E+04  0.30332943455E+04  0.00000000000E+00 0. -1.
          1   -1    0    0  501    0 -0.00000000000E+00 -0.00000000000E+00 -0.24320123140E+03  0.24320123140E+03  0.00000000000E+00 0. -1.
         25    2    1    2    0    0  0.14757046510E+03 -0.73368018967E+02 -0.16015223880E+03  0.26159781421E+03  0.12499907371E+03 0.  0.
          2    1    1    2  501    0 -0.27847341438E+02 -0.32093757489E+02 -0.15226638594E+02  0.45136838811E+02  0.00000000000E+00 0. -1.
          1    1    1    2  502    0 -0.11972312366E+03  0.10546177646E+03  0.29654719915E+04  0.29697609238E+04  0.00000000000E+00 0. -1.
         22    1    3    3    0    0  0.16887986350E+03 -0.75660982527E+02 -0.14801632993E+03  0.23696798623E+03  0.00000000000E+00 0. -1.
         22    1    3    3    0    0 -0.21309398400E+02  0.22929635595E+01 -0.12135908878E+02  0.24629827981E+02  0.00000000000E+00 0. -1.
</event>
<event>
 7    1  0.6152634E-006  0.6408795E+02  0.7818608E-02  0.1428084E+00
          2   -1    0    0  502    0  0.00000000000E+00  0.00000000000E+00  0.14064726424E+04  0.14064726424E+04  0.00000000000E+00 0. -1.
          1   -1    0    0  501    0 -0.00000000000E+00 -0.00000000000E+00 -0.81409352956E+02  0.81409352956E+02  0.00000000000E+00 0. -1.
         25    2    1    2    0    0 -0.90695126052E+02 -0.21329223598E+02  0.36391236550E+03  0.39589931870E+03  0.12499407630E+03 0.  0.
          2    1    1    2  501    0  0.49892986466E+02  0.38851162935E+02 -0.49531691383E+02  0.80325036017E+02  0.00000000000E+00 0. -1.
          1    1    1    2  502    0  0.40802139586E+02 -0.17521939336E+02  0.10106826153E+04  0.10116576406E+04  0.00000000000E+00 0. -1.
         22    1    3    3    0    0 -0.27198593305E+02  0.79650686229E+01  0.32572320488E+01  0.28527449178E+02  0.00000000000E+00 0.  1.
         22    1    3    3    0    0 -0.63496532746E+02 -0.29294292221E+02  0.36065513345E+03  0.36737186952E+03  0.00000000000E+00 0.  1.
</event>
<event>
 7    1  0.6152634E-006  0.1209516E+03  0.7818608E-02  0.1349404E+00
          2   -1    0    0  502    0  0.00000000000E+00  0.00000000000E+00  0.51106148529E+02  0.51106148529E+02  0.00000000000E+00 0. -1.
          1   -1    0    0  501    0 -0.00000000000E+00 -0.00000000000E+00 -0.89506174149E+03  0.89506174149E+03  0.00000000000E+00 0. -1.
         25    2    1    2    0    0  0.33762152812E+02  0.89519221894E+02 -0.32104289420E+03  0.35755791072E+03  0.12500218218E+03 0.  0.
          2    1    1    2  501    0  0.39443442628E+02  0.20279078372E+02 -0.41712875282E+03  0.41947994304E+03  0.00000000000E+00 0. -1.
          1    1    1    2  502    0 -0.73205595440E+02 -0.10979830027E+03 -0.10578394594E+03  0.16913003625E+03  0.00000000000E+00 0. -1.
         22    1    3    3    0    0  0.70443192789E+02  0.16293529546E+02 -0.18679697902E+03  0.20030185692E+03  0.00000000000E+00 0.  1.
         22    1    3    3    0    0 -0.36681039976E+02  0.73225692348E+02 -0.13424591519E+03  0.15725605380E+03  0.00000000000E+00 0.  1.
</event>
<event>
 7    1  0.6152634E-006  0.2402469E+03  0.7818608E-02  0.1290164E+00
          2   -1    0    0  502    0  0.00000000000E+00  0.00000000000E+00  0.18305809025E+03  0.18305809025E+03  0.00000000000E+00 0. -1.
          1   -1    0    0  501    0 -0.00000000000E+00 -0.00000000000E+00 -0.15211874851E+04  0.15211874851E+04  0.00000000000E+00 0. -1.
         25    2    1    2    0    0 -0.24536159886E+03  0.67493608501E+02  0.14004924929E+02  0.28386496470E+03  0.12500191549E+03 0.  0.
          2    1    1    2  501    0  0.21961336213E+03 -0.95335712998E+02 -0.13606173815E+04  0.13815203892E+04  0.00000000000E+00 0. -1.
          1    1    1    2  502    0  0.25748236733E+02  0.27842104497E+02  0.84830616757E+01  0.38860221475E+02  0.00000000000E+00 0. -1.
         22    1    3    3    0    0 -0.59042123158E+02  0.58660383678E+02  0.45254955340E+02  0.94736602763E+02  0.00000000000E+00 0.  1.
         22    1    3    3    0    0 -0.18631947570E+03  0.88332248234E+01 -0.31250030410E+02  0.18912836193E+03  0.00000000000E+00 0.  1.
</event>
<event>
 7    1  0.6152634E-006  0.6121989E+02  0.7818608E-02  0.1509124E+00
          2   -1    0    0  502    0  0.00000000000E+00  0.00000000000E+00  0.32409868569E+04  0.32409868569E+04  0.00000000000E+00 0. -1.
          1   -1    0    0  501    0 -0.00000000000E+00 -0.00000000000E+00 -0.58251606838E+03  0.58251606838E+03  0.00000000000E+00 0. -1.
         25    2    1    2    0    0 -0.42751963418E+02 -0.55145964800E+02  0.13805671366E+03  0.19887952806E+03  0.12499841073E+03 0.  0.
          2    1    1    2  501    0 -0.99141370666E+01  0.24007252891E+02 -0.55149439530E+03  0.55210570215E+03  0.00000000000E+00 0. -1.
          1    1    1    2  502    0  0.52666100485E+02  0.31138711909E+02  0.30719084702E+04  0.30725176951E+04  0.00000000000E+00 0. -1.
         22    1    3    3    0    0 -0.86601418066E+02 -0.31915506402E+02  0.76975030999E+02  0.12018136527E+03  0.00000000000E+00 0.  1.
         22    1    3    3    0    0  0.43849454648E+02 -0.23230458398E+02  0.61081682665E+02  0.78698162796E+02  0.00000000000E+00 0.  1.
</event>
<event>
 7    1  0.6152634E-006  0.6812503E+02  0.7818608E-02  0.1448888E+00
          2   -1    0    0  502    0  0.00000000000E+00  0.00000000000E+00  0.64801050882E+03  0.64801050882E+03  0.00000000000E+00 0. -1.
          1   -1    0    0  501    0 -0.00000000000E+00 -0.00000000000E+00 -0.15617780035E+04  0.15617780035E+04  0.00000000000E+00 0. -1.
         25    2    1    2    0    0  0.18132628546E+02 -0.30398307791E+02 -0.17361617095E+03  0.21684224970E+03  0.12500054841E+03 0.  0.
          2    1    1    2  501    0 -0.21943366625E+02  0.65941492654E+02 -0.13651541719E+04  0.13669219820E+04  0.00000000000E+00 0. -1.
          1    1    1    2  502    0  0.38107380786E+01 -0.35543184863E+02  0.62500284817E+03  0.62602428063E+03  0.00000000000E+00 0. -1.
         22    1    3    3    0    0 -0.13751977725E+01  0.30496048035E+02 -0.14249493094E+03  0.14572819033E+03  0.00000000000E+00 0.  1.
         22    1    3    3    0    0  0.19507826319E+02 -0.60894355826E+02 -0.31121240014E+02  0.71114059363E+02  0.00000000000E+00 0.  1.
</event>
<event>
 7    1  0.6152634E-006  0.2567845E+02  0.7818608E-02  0.1663528E+00
          2   -1    0    0  502    0  0.00000000000E+00  0.00000000000E+00  0.60821463741E+03  0.60821463741E+03  0.00000000000E+00 0. -1.
          1   -1    0    0  501    0 -0.00000000000E+00 -0.00000000000E+00 -0.15519347835E+03  0.15519347835E+03  0.00000000000E+00 0. -1.
         25    2    1    2    0    0  0.34324309039E+01 -0.38895180814E+02 -0.35059598775E+02  0.13556436012E+03  0.12499561431E+03 0.  0.
          2    1    1    2  501    0  0.13644258499E+02  0.19744238862E+02 -0.67516009308E+02  0.71654813314E+02  0.00000000000E+00 0. -1.
          1    1    1    2  502    0 -0.17076689403E+02  0.19150941952E+02  0.55559676715E+03  0.55618894233E+03  0.00000000000E+00 0. -1.
         22    1    3    3    0    0 -0.58128885477E+02 -0.32019164158E+02 -0.45649973208E+01  0.66520924533E+02  0.00000000000E+00 0.  1.
         22    1    3    3    0    0  0.61561316381E+02 -0.68760166561E+01 -0.30494601455E+02  0.69043435586E+02  0.00000000000E+00 0.  1.
</event>
<event>
 7    1  0.6152634E-006  0.8682951E+02  0.7818608E-02  0.1411594E+00
          2   -1    0    0  502    0  0.00000000000E+00  0.00000000000E+00  0.16718763540E+04  0.16718763540E+04  0.00000000000E+00 0. -1.
          1   -1    0    0  501    0 -0.00000000000E+00 -0.00000000000E+00 -0.68452700684E+03  0.68452700684E+03  0.00000000000E+00 0. -1.
         25    2    1    2    0    0 -0.62643608984E+02  0.74662503035E+02  0.53344832426E+03  0.55649839079E+03  0.12499853276E+03 0.  0.
          2    1    1    2  501    0  0.36449814194E+02  0.74724455072E+01 -0.67083685722E+03  0.67186793003E+03  0.00000000000E+00 0. -1.
          1    1    1    2  502    0  0.26193794789E+02 -0.82134948542E+02  0.11247378801E+04  0.11280370400E+04  0.00000000000E+00 0. -1.
         22    1    3    3    0    0  0.42766042965E+01 -0.45162786906E+01  0.31117605962E+03  0.31123821455E+03  0.00000000000E+00 0.  1.
         22    1    3    3    0    0 -0.66920213280E+02  0.79178781725E+02  0.22227226464E+03  0.24526017624E+03  0.00000000000E+00 0.  1.
</event>
<event>
 7    1  0.6152634E-006  0.2441875E+03  0.7818608E-02  0.1239697E+00
          2   -1    0    0  502    0  0.00000000000E+00  0.00000000000E+00  0.16945028544E+04  0.16945028544E+04  0.00000000000E+00 0. -1.
          1   -1    0    0  501    0 -0.00000000000E+00 -0.00000000000E+00 -0.74739170165E+03  0.74739170165E+03  0.00000000000E+00 0. -1.
         25    2    1    2    0    0 -0.57430803221E+02 -0.21146064681E+03  0.69200409753E+02  0.26158683319E+03  0.12500028913E+03 0.  0.
          2    1    1    2  501    0  0.11803828341E+03  0.21869739965E+03 -0.62684647949E+03  0.67431305624E+03  0.00000000000E+00 0. -1.
          1    1    1    2  502    0 -0.60607480188E+02 -0.72367528463E+01  0.15047572225E+04  0.15059946666E+04  0.00000000000E+00 0. -1.
         22    1    3    3    0    0 -0.48905706247E+02 -0.91216901210E+01  0.13558572125E+02  0.51563632652E+02  0.00000000000E+00 0. -1.
         22    1    3    3    0    0 -0.85250969733E+01 -0.20233895668E+03  0.55641837629E+02  0.21002320054E+03  0.00000000000E+00 0. -1.
</event>
<event>
 7    1  0.6152634E-006  0.8642848E+02  0.7818608E-02  0.1425601E+00
          2   -1    0    0  502    0  0.00000000000E+00  0.00000000000E+00  0.51523144814E+03  0.51523144814E+03  0.00000000000E+00 0. -1.
          1   -1    0    0  501    0 -0.00000000000E+00 -0.00000000000E+00 -0.19523366419E+03  0.19523366419E+03  0.00000000000E+00 0. -1.
         25    2    1    2    0    0  0.53021216834E+02  0.55139994336E+02  0.25516265838E+03  0.29425528013E+03  0.12500607683E+03 0.  0.
          2    1    1    2  501    0 -0.31712532243E+02 -0.81061476480E+02 -0.16360449417E+03  0.18531885545E+03  0.00000000000E+00 0. -1.
          1    1    1    2  502    0 -0.21308684591E+02  0.25921482144E+02  0.22843961975E+03  0.23089097675E+03  0.00000000000E+00 0. -1.
         22    1    3    3    0    0  0.69458691556E+01  0.50853185748E+02  0.20819762801E+02  0.55387310119E+02  0.00000000000E+00 0. -1.
         22    1    3    3    0    0  0.46075347678E+02  0.42868085880E+01  0.23434289557E+03  0.23886797001E+03  0.00000000000E+00 0. -1.
</event>
<event>
 7    1  0.6152634E-006  0.1065390E+03  0.7818608E-02  0.1416502E+00
          2   -1    0    0  502    0  0.00000000000E+00  0.00000000000E+00  0.30118595394E+04  0.30118595394E+04  0.00000000000E+00 0. -1.
          1   -1    0    0  501    0 -0.00000000000E+00 -0.00000000000E+00 -0.63584737943E+02  0.63584737943E+02  0.00000000000E+00 0. -1.
         25    2    1    2    0    0  0.77242273942E+01 -0.77854874028E+02  0.15697468030E+04  0.15766581293E+04  0.12499914403E+03 0.  0.
          2    1    1    2  501    0 -0.92035951498E+01  0.10700916460E+03 -0.11891253535E+02  0.10806048946E+03  0.00000000000E+00 0. -1.
          1    1    1    2  502    0  0.14793677556E+01 -0.29154290568E+02  0.13904192521E+04  0.13907256587E+04  0.00000000000E+00 0. -1.
         22    1    3    3    0    0  0.11762647042E+02 -0.88540191504E+02  0.57927934970E+03  0.58612480784E+03  0.00000000000E+00 0.  1.
         22    1    3    3    0    0 -0.40384196476E+01  0.10685317476E+02  0.99046745327E+03  0.99053332141E+03  0.00000000000E+00 0.  1.
</event>
<event>
 7    1  0.6152634E-006  0.2111429E+03  0.7818608E-02  0.1251539E+00
          2   -1    0    0  502    0  0.00000000000E+00  0.00000000000E+00  0.10633335557E+04  0.10633335557E+04  0.00000000000E+00 0. -1.
          1   -1    0    0  501    0 -0.00000000000E+00 -0.00000000000E+00 -0.24345311466E+03  0.24345311466E+03  0.00000000000E+00 0. -1.
         25    2    1    2    0    0 -0.20378719719E+03 -0.99877255617E+02 -0.39388724856E+02  0.26206592277E+03  0.12498955278E+03 0.  0.
          2    1    1    2  501    0  0.19581843776E+03  0.37724532667E+02  0.17020319752E+02  0.20014417857E+03  0.00000000000E+00 0. -1.
          1    1    1    2  502    0  0.79687594334E+01  0.62152722950E+02  0.84224884613E+03  0.84457656900E+03  0.00000000000E+00 0. -1.
         22    1    3    3    0    0 -0.19778805282E+03 -0.92590358383E+02 -0.70554926238E+02  0.22950182117E+03  0.00000000000E+00 0. -1.
         22    1    3    3    0    0 -0.59991443660E+01 -0.72868972343E+01  0.31166201382E+02  0.32564101600E+02  0.00000000000E+00 0. -1.
</event>
<event>
 7    1  0.6152634E-006  0.1503285E+03  0.7818608E-02  0.1253020E+00
          2   -1    0    0  502    0  0.00000000000E+00  0.00000000000E+00  0.12982158699E+04  0.12982158699E+04  0.00000000000E+00 0. -1.
          1   -1    0    0  501    0 -0.00000000000E+00 -0.00000000000E+00 -0.21201023454E+03  0.21201023454E+03  0.00000000000E+00 0. -1.
         25    2    1    2    0    0 -0.57226119880E+02  0.84896580837E+02  0.26405491673E+03  0.30956784013E+03  0.12499996143E+03 0.  0.
          2    1    1    2  501    0  0.92228600069E+01 -0.15712259171E+03 -0.15427219982E+03  0.22039165504E+03  0.00000000000E+00 0. -1.
          1    1    1    2  502    0  0.48003259874E+02  0.72226010875E+02  0.97642291845E+03  0.98026660928E+03  0.00000000000E+00 0. -1.
         22    1    3    3    0    0  0.31154781677E+01  0.76748356202E+02  0.22369942338E+03  0.23651944615E+03  0.00000000000E+00 0. -1.
         22    1    3    3    0    0 -0.60341598048E+02  0.81482246348E+01  0.40355493344E+02  0.73048393978E+02  0.00000000000E+00 0. -1.
</event>
<event>
 7    1  0.6152634E-006  0.3098814E+02  0.7818608E-02  0.1614659E+00
          2   -1    0    0  502    0  0.00000000000E+00  0.00000000000E+00  0.16815945413E+02  0.16815945413E+02  0.00000000000E+00 0. -1.
          1   -1    0    0  501    0 -0.00000000000E+00 -0.00000000000E+00 -0.12087850768E+04  0.12087850768E+04  0.00000000000E+00 0. -1.
         25    2    1    2    0    0  0.15483852736E+02  0.45540164682E+02 -0.52403156709E+03  0.54087651982E+03  0.12499868037E+03 0.  0.
          2    1    1    2  501    0 -0.22808713538E+02 -0.20271497237E+02 -0.65444767661E+03  0.65515870782E+03  0.00000000000E+00 0. -1.
          1    1    1    2  502    0  0.73248608024E+01 -0.25268667445E+02 -0.13489887733E+02  0.29565794616E+02  0.00000000000E+00 0. -1.
         22    1    3    3    0    0 -0.54498712191E+02  0.28324869284E+02 -0.26321493613E+03  0.27028597902E+03  0.00000000000E+00 0.  1.
         22    1    3    3    0    0  0.69982564927E+02  0.17215295398E+02 -0.26081663096E+03  0.27059054081E+03  0.00000000000E+00 0.  1.
</event>
<event>
 7    1  0.6152634E-006  0.7989163E+02  0.7818608E-02  0.1439741E+00
          2   -1    0    0  502    0  0.00000000000E+00  0.00000000000E+00  0.38600942982E+03  0.38600942982E+03  0.00000000000E+00 0. -1.
          1   -1    0    0  501    0 -0.00000000000E+00 -0.00000000000E+00 -0.13290766486E+04  0.13290766486E+04  0.00000000000E+00 0. -1.
         25    2    1    2    0    0  0.59191142236E+02 -0.30961001518E+02  0.15990007008E+03  0.21366823723E+03  0.12499563294E+03 0.  0.
          2    1    1    2  501    0 -0.50186386327E+02  0.62318660099E+02 -0.12996181993E+04  0.13020790117E+04  0.00000000000E+00 0. -1.
          1    1    1    2  502    0 -0.90047559082E+01 -0.31357658582E+02  0.19665091042E+03  0.19933882951E+03  0.00000000000E+00 0. -1.
         22    1    3    3    0    0  0.22948188988E+02  0.40956757591E+01  0.16154478802E+03  0.16321799066E+03  0.00000000000E+00 0.  1.
         22    1    3    3    0    0  0.36242953248E+02 -0.35056677277E+02 -0.16447179404E+01  0.50450246569E+02  0.00000000000E+00 0.  1.
</event>
<event>
 7    1  0.6152634E-006  0.1556262E+03  0.7818608E-02  0.1315147E+00
          2   -1    0    0  502    0  0.00000000000E+00  0.00000000000E+00  0.71731125824E+03  0.71731125824E+03  0.00000000000E+00 0. -1.
          1   -1    0    0  501    0 -0.00000000000E+00 -0.00000000000E+00 -0.15872032523E+04  0.15872032523E+04  0.00000000000E+00 0. -1.
         25    2    1    2    0    0  0.40468481532E+01  0.12064062896E+03 -0.31872932630E+03  0.36301902365E+03  0.12499555895E+03 0.  0.
          2    1    1    2  501    0 -0.24343995227E+02 -0.16252650722E+03 -0.12401230360E+04  0.12509646838E+04  0.00000000000E+00 0. -1.
          1    1    1    2  502    0  0.20297147074E+02  0.41885878266E+02  0.68896036826E+03  0.69053080308E+03  0.00000000000E+00 0. -1.
         22    1    3    3    0    0 -0.59283216380E+02  0.56074230207E+02 -0.12587283981E+03  0.15000930251E+03  0.00000000000E+00 0.  1.
         22    1    3    3    0    0  0.63330064533E+02  0.64566398750E+02 -0.19285648648E+03  0.21300972114E+03  0.00000000000E+00 0.  1.
</event>
<event>
 7    1  0.6152634E-006  0.6932375E+02  0.7818608E-02  0.1438702E+00
          2   -1    0    0  502    0  0.00000000000E+00  0.00000000000E+00  0.93956860878E+02  0.93956860878E+02  0.00000000000E+00 0. -1.
          1   -1    0    0  501    0 -0.00000000000E+00 -0.00000000000E+00 -0.76393838557E+03  0.76393838557E+03  0.00000000000E+00 0. -1.
         25    2    1    2    0    0 -0.38171211041E+02 -0.11456041293E+02 -0.19313777081E+03  0.23348493557E+03  0.12499893755E+03 0.  0.
          2    1    1    2  501    0 -0.33562083385E+02  0.17588776538E+02 -0.53222916057E+03  0.53357629058E+03  0.00000000000E+00 0. -1.
          1    1    1    2  502    0  0.71733294426E+02 -0.61327352453E+01  0.55385406692E+02  0.90834020307E+02  0.00000000000E+00 0. -1.
         22    1    3    3    0    0 -0.37426821829E+02 -0.23806547798E+02 -0.20883721080E+03  0.21349590002E+03  0.00000000000E+00 0.  1.
         22    1    3    3    0    0 -0.74438921178E+00  0.12350506505E+02  0.15699439987E+02  0.19989035548E+02  0.00000000000E+00 0.  1.
</event>
<event>
 7    1  0.6152634E-006  0.5424693E+02  0.7818608E-02  0.1541366E+00
          2   -1    0    0  502    0  0.00000000000E+00  0.00000000000E+00  0.46869673710E+03  0.46869673710E+03  0.00000000000E+00 0. -1.
          1   -1    0    0  501    0 -0.00000000000E+00 -0.00000000000E+00 -0.44397020090E+03  0.44397020090E+03  0.00000000000E+00 0. -1.
         25    2    1    2    0    0  0.60156319444E+01  0.33049067113E+02  0.91941233093E+02  0.15876589194E+03  0.12499995774E+03 0.  0.
          2    1    1    2  501    0 -0.23085698285E+02 -0.49437167773E+02 -0.40833340258E+03  0.41196255981E+03  0.00000000000E+00 0. -1.
          1    1    1    2  502    0  0.17070066341E+02  0.16388100660E+02  0.34111870569E+03  0.34193848625E+03  0.00000000000E+00 0. -1.
         22    1    3    3    0    0 -0.32010395536E+01  0.66099239345E+02  0.62625693804E+01  0.66472369233E+02  0.00000000000E+00 0.  1.
         22    1    3    3    0    0  0.92166714980E+01 -0.33050172232E+02  0.85678663713E+02  0.92293522707E+02  0.00000000000E+00 0.  1.
</event>
<event>
 7    1  0.6152634E-006  0.7959151E+02  0.7818608E-02  0.1370836E+00
          2   -1    0    0  502    0  0.00000000000E+00  0.00000000000E+00  0.78103249120E+03  0.78103249120E+03  0.00000000000E+00 0. -1.
          1   -1    0    0  501    0 -0.00000000000E+00 -0.00000000000E+00 -0.70872352480E+03  0.70872352480E+03  0.00000000000E+00 0. -1.
         25    2    1    2    0    0 -0.85862969437E+02  0.42966626348E+02  0.23133734739E+03  0.27992975879E+03  0.12500048423E+03 0.  0.
          2    1    1    2  501    0  0.49083580934E+02  0.27560015705E+02 -0.68024763017E+03  0.68257277322E+03  0.00000000000E+00 0. -1.
          1    1    1    2  502    0  0.36779388503E+02 -0.70526642053E+02  0.52121924918E+03  0.52725348398E+03  0.00000000000E+00 0. -1.
         22    1    3    3    0    0 -0.45408204219E+02 -0.20902086617E+02  0.18413908303E+03  0.19080357474E+03  0.00000000000E+00 0.  1.
         22    1    3    3    0    0 -0.40454765218E+02  0.63868712965E+02  0.47198264368E+02  0.89126184054E+02  0.00000000000E+00 0.  1.
</event>
<event>
 7    1  0.6152634E-006  0.5379056E+02  0.7818608E-02  0.1517753E+00
          2   -1    0    0  502    0  0.00000000000E+00  0.00000000000E+00  0.64679439752E+03  0.64679439752E+03  0.00000000000E+00 0. -1.
          1   -1    0    0  501    0 -0.00000000000E+00 -0.00000000000E+00 -0.56542154340E+03  0.56542154340E+03  0.00000000000E+00 0. -1.
         25    2    1    2    0    0  0.49439718509E+02  0.61119871618E+02 -0.20840513836E+03  0.25541666239E+03  0.12500018103E+03 0.  0.
          2    1    1    2  501    0 -0.36937468356E+02 -0.36189701434E+02 -0.33119128343E+03  0.33520402336E+03  0.00000000000E+00 0. -1.
          1    1    1    2  502    0 -0.12502250153E+02 -0.24930170184E+02  0.62096927590E+03  0.62159525518E+03  0.00000000000E+00 0. -1.
         22    1    3    3    0    0 -0.41399166387E+02  0.71841029773E+01 -0.58615939578E+02  0.72120251564E+02  0.00000000000E+00 0. -1.
         22    1    3    3    0    0  0.90838884896E+02  0.53935768640E+02 -0.14978919878E+03  0.18329641082E+03  0.00000000000E+00 0. -1.
</event>
<event>
 7    1  0.6152634E-006  0.8237065E+02  0.7818608E-02  0.1459606E+00
          2   -1    0    0  502    0  0.00000000000E+00  0.00000000000E+00  0.11799908933E+04  0.11799908933E+04  0.00000000000E+00 0. -1.
          1   -1    0    0  501    0 -0.00000000000E+00 -0.00000000000E+00 -0.48565657007E+03  0.48565657007E+03  0.00000000000E+00 0. -1.
         25    2    1    2    0    0  0.29081857495E+02  0.10485626049E+03 -0.28581400293E+03  0.33038660018E+03  0.12500028604E+03 0.  0.
          2    1    1    2  501    0 -0.17751398486E+01 -0.27275309410E+02 -0.17503353558E+03  0.17715482551E+03  0.00000000000E+00 0. -1.
          1    1    1    2  502    0 -0.27306717647E+02 -0.77580951079E+02  0.11551818617E+04  0.11581060376E+04  0.00000000000E+00 0. -1.
         22    1    3    3    0    0 -0.34079917197E+02 -0.85074688087E+01 -0.75257231546E+02  0.83051000486E+02  0.00000000000E+00 0.  1.
         22    1    3    3    0    0  0.63161774692E+02  0.11336372930E+03 -0.21055677138E+03  0.24733559970E+03  0.00000000000E+00 0.  1.
</event>
<event>
 7    1  0.6152634E-006  0.7041119E+02  0.7818608E-02  0.1377904E+00
          2   -1    0    0  502    0  0.00000000000E+00  0.00000000000E+00  0.22214942677E+02  0.22214942677E+02  0.00000000000E+00 0. -1.
          1   -1    0    0  501    0 -0.00000000000E+00 -0.00000000000E+00 -0.11719663851E+04  0.11719663851E+04  0.00000000000E+00 0. -1.
         25    2    1    2    0    0  0.75619178907E+01 -0.87798211561E+02 -0.44670816418E+03  0.47216427077E+03  0.12500082437E+03 0.  0.
          2    1    1    2  501    0 -0.50548750015E+02  0.32393944588E+02 -0.55463817801E+03  0.55787816975E+03  0.00000000000E+00 0. -1.
          1    1    1    2  502    0  0.42986832125E+02  0.55404266973E+02 -0.14840510024E+03  0.16413888726E+03  0.00000000000E+00 0. -1.
         22    1    3    3    0    0  0.34623923465E+02 -0.86571637373E+02 -0.16797115501E+03  0.19211395938E+03  0.00000000000E+00 0. -1.
         22    1    3    3    0    0 -0.27062005574E+02 -0.12265741880E+01 -0.27873700917E+03  0.28005031139E+03  0.00000000000E+00 0. -1.
</event>
<event>
 7    1  0.6152634E-006  0.8753475E+02  0.7818608E-02  0.1400911E+00
          2   -1    0    0  502    0  0.00000000000E+00  0.00000000000E+00  0.79363490633E+03  0.79363490633E+03  0.00000000000E+00 0. -1.
          1   -1    0    0  501    0 -0.00000000000E+00 -0.00000000000E+00 -0.10154754579E+03  0.10154754579E+03  0.00000000000E+00 0. -1.
         25    2    1    2    0    0 -0.55144991680E+02 -0.16385171651E+02  0.26764368186E+03  0.30094445683E+03  0.12499992681E+03 0.  0.
          2    1    1    2  501    0 -0.31378992693E+02 -0.25023774061E+02 -0.75323303176E+02  0.85348874931E+02  0.00000000000E+00 0. -1.
          1    1    1    2  502    0  0.86523984373E+02  0.41408945713E+02  0.49976698186E+03  0.50888912035E+03  0.00000000000E+00 0. -1.
         22    1    3    3    0    0 -0.58450476653E+01  0.18425522179E+02  0.22781906990E+03  0.22863768950E+03  0.00000000000E+00 0.  1.
         22    1    3    3    0    0 -0.49299944015E+02 -0.34810693830E+02  0.39824611959E+02  0.72306767336E+02  0.00000000000E+00 0.  1.
</event>
<event>
 7    1  0.1121239E-005  0.1100386E+03  0.7818608E-02  0.1385460E+00
          2   -1    0    0  502    0  0.00000000000E+00  0.00000000000E+00  0.29738965534E+04  0.29738965534E+04  0.00000000000E+00 0. -1.
          1   -1    0    0  501    0 -0.00000000000E+00 -0.00000000000E+00 -0.11719204562E+04  0.11719204562E+04  0.00000000000E+00 0. -1.
         25    2    1    2    0    0  0.34900559309E+02 -0.11700854741E+03 -0.24566149798E+03  0.30146884912E+03  0.12499938477E+03 0.  0.
          2    1    1    2  501    0 -0.35442509568E+02  0.69968392122E+01 -0.89696447904E+03  0.89769170872E+03  0.00000000000E+00 0. -1.
          1    1    1    2  502    0  0.54195025901E+00  0.11001170820E+03  0.29446020742E+04  0.29466564518E+04  0.00000000000E+00 0. -1.
         22    1    3    3    0    0  0.63548819995E+02 -0.46418885717E+02 -0.19418658404E+03  0.20952707437E+03  0.00000000000E+00 0. -1.
         22    1    3    3    0    0 -0.28648260686E+02 -0.70589661693E+02 -0.51474913941E+02  0.91941774746E+02  0.00000000000E+00 0. -1.
</event>
<event>
 7    1  0.6152634E-006  0.1495548E+03  0.7818608E-02  0.1294492E+00
          2   -1    0    0  502    0  0.00000000000E+00  0.00000000000E+00  0.24910630023E+04  0.24910630023E+04  0.00000000000E+00 0. -1.
          1   -1    0    0  501    0 -0.00000000000E+00 -0.00000000000E+00 -0.16642118328E+03  0.16642118328E+03  0.00000000000E+00 0. -1.
         25    2    1    2    0    0  0.95621656893E+02 -0.40147674215E+02  0.17529255534E+03  0.23897070375E+03  0.12499672109E+03 0.  0.
          2    1    1    2  501    0 -0.13964430628E+03  0.78687166589E+02 -0.86337373063E+02  0.18206137550E+03  0.00000000000E+00 0. -1.
          1    1    1    2  502    0  0.44022649391E+02 -0.38539492373E+02  0.22356866368E+04  0.22364521063E+04  0.00000000000E+00 0. -1.
         22    1    3    3    0    0  0.25692636797E+02 -0.31152405955E+02 -0.92430350127E+01  0.41424843736E+02  0.00000000000E+00 0.  1.
         22    1    3    3    0    0  0.69929020097E+02 -0.89952682608E+01  0.18453559035E+03  0.19754586002E+03  0.00000000000E+00 0.  1.
</event>
<event>
 7    1  0.6152634E-006  0.7152846E+02  0.7818608E-02  0.1483930E+00
          2   -1    0    0  502    0  0.00000000000E+00  0.00000000000E+00  0.98016121837E+03  0.98016121837E+03  0.00000000000E+00 0. -1.
          1   -1    0    0  501    0 -0.00000000000E+00 -0.00000000000E+00 -0.13348767311E+04  0.13348767311E+04  0.00000000000E+00 0. -1.
         25    2    1    2    0    0 -0.55006698597E+02 -0.28225374907E+02  0.49305134742E+03  0.51239176234E+03  0.12499311275E+03 0.  0.
          2    1    1    2  501    0  0.47435010097E+02  0.53573026829E+02 -0.13238731459E+04  0.13258055121E+04  0.00000000000E+00 0. -1.
          1    1    1    2  502    0  0.75716885006E+01 -0.25347651922E+02  0.47610628583E+03  0.47684067499E+03  0.00000000000E+00 0. -1.
         22    1    3    3    0    0  0.13325311910E+02 -0.60521390549E+02  0.26470888578E+03  0.27186613777E+03  0.00000000000E+00 0.  1.
         22    1    3    3    0    0 -0.68332010508E+02  0.32296015641E+02  0.22834246164E+03  0.24052562457E+03  0.00000000000E+00 0.  1.
</event>
<event>
 7    1  0.6152634E-006  0.1188179E+03  0.7818608E-02  0.1346864E+00
          2   -1    0    0  502    0  0.00000000000E+00  0.00000000000E+00  0.40018668378E+04  0.40018668378E+04  0.00000000000E+00 0. -1.
          1   -1    0    0  501    0 -0.00000000000E+00 -0.00000000000E+00 -0.11756293792E+04  0.11756293792E+04  0.00000000000E+00 0. -1.
         25    2    1    2    0    0 -0.12335768308E+03  0.10472714343E+03  0.62214458437E+03  0.65488382435E+03  0.12499618789E+03 0.  0.
          2    1    1    2  501    0  0.31123313786E+02 -0.34061529441E+02 -0.11577966047E+04  0.11587155933E+04  0.00000000000E+00 0. -1.
          1    1    1    2  502    0  0.92234369294E+02 -0.70665613993E+02  0.33618894789E+04  0.33638967993E+04  0.00000000000E+00 0. -1.
         22    1    3    3    0    0 -0.10345235830E+03  0.10229439901E+03  0.31377738680E+03  0.34586526708E+03  0.00000000000E+00 0. -1.
         22    1    3    3    0    0 -0.19905324784E+02  0.24327444290E+01  0.30836719756E+03  0.30901855726E+03  0.00000000000E+00 0. -1.
</event>
<event>
 7    1  0.6152634E-006  0.1246757E+03  0.7818608E-02  0.1344051E+00
          2   -1    0    0  502    0  0.00000000000E+00  0.00000000000E+00  0.23336384265E+04  0.23336384265E+04  0.00000000000E+00 0. -1.
          1   -1    0    0  501    0 -0.00000000000E+00 -0.00000000000E+00 -0.29722017518E+03  0.29722017518E+03  0.00000000000E+00 0. -1.
         25    2    1    2    0    0 -0.62952064757E+01  0.15299979276E+03  0.16829657353E+03  0.25960862255E+03  0.12499733608E+03 0.  0.
          2    1    1    2  501    0  0.31780141298E+02 -0.31925786843E+02 -0.24772570757E+03  0.25178812410E+03  0.00000000000E+00 0. -1.
          1    1    1    2  502    0 -0.25484934822E+02 -0.12107400592E+03  0.21158473854E+04  0.21194618551E+04  0.00000000000E+00 0. -1.
         22    1    3    3    0    0 -0.36798618286E+02  0.15166994492E+03  0.16767563618E+03  0.22906992266E+03  0.00000000000E+00 0. -1.
         22    1    3    3    0    0  0.30503411810E+02  0.13298478446E+01  0.62093734859E+00  0.30538699883E+02  0.00000000000E+00 0. -1.
</event>
<event>
 7    1  0.6152634E-006  0.1152162E+03  0.7818608E-02  0.1293592E+00
          2   -1    0    0  502    0  0.00000000000E+00  0.00000000000E+00  0.95072201305E+03  0.95072201305E+03  0.00000000000E+00 0. -1.
          1   -1    0    0  501    0 -0.00000000000E+00 -0.00000000000E+00 -0.97832321373E+03  0.97832321373E+03  0.00000000000E+00 0. -1.
         25    2    1    2    0    0  0.17651280917E+03 -0.17435750257E+02 -0.13371362349E+03  0.25488331918E+03  0.12500158439E+03 0.  0.
          2    1    1    2  501    0 -0.10972916934E+03 -0.20050724975E+02 -0.77839414494E+03  0.78634595889E+03  0.00000000000E+00 0. -1.
          1    1    1    2  502    0 -0.66783639830E+02  0.37486475233E+02  0.88450656776E+03  0.88781594871E+03  0.00000000000E+00 0. -1.
         22    1    3    3    0    0  0.15862127515E+03  0.30839367796E+01 -0.15386815606E+03  0.22101047270E+03  0.00000000000E+00 0. -1.
         22    1    3    3    0    0  0.17891534026E+02 -0.20519687037E+02  0.20154532564E+02  0.33872846481E+02  0.00000000000E+00 0. -1.
</event>
<event>
 7    1  0.6152634E-006  0.6187215E+02  0.7818608E-02  0.1404749E+00
          2   -1    0    0  502    0  0.00000000000E+00  0.00000000000E+00  0.23604391117E+04  0.23604391117E+04  0.00000000000E+00 0. -1.
          1   -1    0    0  501    0 -0.00000000000E+00 -0.00000000000E+00 -0.19874523498E+03  0.19874523498E+03  0.00000000000E+00 0. -1.
         25    2    1    2    0    0 -0.81589748053E+02 -0.78839090692E+02  0.55690388060E+03  0.58193796488E+03  0.12504948432E+03 0.  0.
          2    1    1    2  501    0  0.33924779272E+02  0.51219501871E+02 -0.18072498577E+03  0.19088176576E+03  0.00000000000E+00 0. -1.
          1    1    1    2  502    0  0.47664968781E+02  0.27619588821E+02  0.17855149819E+04  0.17863646161E+04  0.00000000000E+00 0. -1.
         22    1    3    3    0    0 -0.10200945837E+03 -0.97553970511E+02  0.46443089752E+03  0.48540577390E+03  0.00000000000E+00 0. -1.
         22    1    3    3    0    0  0.20419710315E+02  0.18714879818E+02  0.92472983078E+02  0.96532190979E+02  0.00000000000E+00 0. -1.
</event>
<event>
 7    1  0.6152634E-006  0.4875892E+02  0.7818608E-02  0.1514902E+00
          2   -1    0    0  502    0  0.00000000000E+00  0.00000000000E+00  0.73129111763E+03  0.73129111763E+03  0.00000000000E+00 0. -1.
          1   -1    0    0  501    0 -0.00000000000E+00 -0.00000000000E+00 -0.79431686834E+03  0.79431686834E+03  0.00000000000E+00 0. -1.
         25    2    1    2    0    0 -0.33952085131E+02  0.26726428204E+02 -0.21615326228E+03  0.25340495377E+03  0.12499916701E+03 0.  0.
          2    1    1    2  501    0  0.11223862518E+02 -0.48337542045E+02 -0.55809126399E+03  0.56029309473E+03  0.00000000000E+00 0. -1.
          1    1    1    2  502    0  0.22728222613E+02  0.21611113840E+02  0.71121877556E+03  0.71190993746E+03  0.00000000000E+00 0. -1.
         22    1    3    3    0    0  0.19902762762E+02  0.63702962579E+02 -0.10243938407E+03  0.12226207432E+03  0.00000000000E+00 0. -1.
         22    1    3    3    0    0 -0.53854847893E+02 -0.36976534375E+02 -0.11371387820E+03  0.13114287945E+03  0.00000000000E+00 0. -1.
</event>
<event>
 7    1  0.6152634E-006  0.1004041E+03  0.7818608E-02  0.1322789E+00
          2   -1    0    0  502    0  0.00000000000E+00  0.00000000000E+00  0.18632055401E+04  0.18632055401E+04  0.00000000000E+00 0. -1.
          1   -1    0    0  501    0 -0.00000000000E+00 -0.00000000000E+00 -0.69655333142E+03  0.69655333142E+03  0.00000000000E+00 0. -1.
         25    2    1    2    0    0 -0.13560596590E+03  0.20759609800E+02  0.11020607936E+04  0.11175788644E+04  0.12499834355E+03 0.  0.
          2    1    1    2  501    0  0.80631868306E+02 -0.59712461225E+02 -0.68361865617E+03  0.69094250360E+03  0.00000000000E+00 0. -1.
          1    1    1    2  502    0  0.54974097595E+02  0.38952851425E+02  0.74821007126E+03  0.75123750358E+03  0.00000000000E+00 0. -1.
         22    1    3    3    0    0 -0.14993339077E+03 -0.36953761070E+01  0.10149966326E+04  0.10260174666E+04  0.00000000000E+00 0.  1.
         22    1    3    3    0    0  0.14327424869E+02  0.24454985907E+02  0.87064161007E+02  0.91561397820E+02  0.00000000000E+00 0.  1.
</event>
<event>
 7    1  0.6152634E-006  0.5851971E+02  0.7818608E-02  0.1473474E+00
          2   -1    0    0  502    0  0.00000000000E+00  0.00000000000E+00  0.13535971357E+04  0.13535971357E+04  0.00000000000E+00 0. -1.
          1   -1    0    0  501    0 -0.00000000000E+00 -0.00000000000E+00 -0.64467884473E+03  0.64467884473E+03  0.00000000000E+00 0. -1.
         25    2    1    2    0    0 -0.35271109248E+02 -0.55857560140E+01  0.10136191968E+03  0.16485242156E+03  0.12500732105E+03 0.  0.
          2    1    1    2  501    0  0.53732570289E+02 -0.23935099195E+02 -0.61127313210E+03  0.61409683285E+03  0.00000000000E+00 0. -1.
          1    1    1    2  502    0 -0.18461461041E+02  0.29520855209E+02  0.12188295034E+04  0.12193267260E+04  0.00000000000E+00 0. -1.
         22    1    3    3    0    0 -0.32772228709E+02  0.53084493055E+02  0.81969901375E+02  0.10300993694E+03  0.00000000000E+00 0. -1.
         22    1    3    3    0    0 -0.24988805397E+01 -0.58670249069E+02  0.19392018307E+02  0.61842484618E+02  0.00000000000E+00 0. -1.
</event>
<event>
 7    1  0.6152634E-006  0.6022487E+02  0.7818608E-02  0.1458515E+00
          2   -1    0    0  502    0  0.00000000000E+00  0.00000000000E+00  0.16268750195E+04  0.16268750195E+04  0.00000000000E+00 0. -1.
          1   -1    0    0  501    0 -0.00000000000E+00 -0.00000000000E+00 -0.15814502453E+03  0.15814502453E+03  0.00000000000E+00 0. -1.
         25    2    1    2    0    0  0.56403751044E+02  0.16017203366E+02  0.17962362157E+03  0.22655546942E+03  0.12499920545E+03 0.  0.
          2    1    1    2  501    0  0.17300146850E+00 -0.37681240065E+02 -0.13138502825E+03  0.13668186211E+03  0.00000000000E+00 0. -1.
          1    1    1    2  502    0 -0.56576752513E+02  0.21664036699E+02  0.14204914016E+04  0.14217827125E+04  0.00000000000E+00 0. -1.
         22    1    3    3    0    0  0.45690755922E+02  0.59804707992E+02  0.16111153000E+03  0.17782343314E+03  0.00000000000E+00 0. -1.
         22    1    3    3    0    0  0.10712995122E+02 -0.43787504625E+02  0.18512091568E+02  0.48732036280E+02  0.00000000000E+00 0. -1.
</event>
<event>
 7    1  0.6152634E-006  0.6157572E+02  0.7818608E-02  0.1410613E+00
          2   -1    0    0  502    0  0.00000000000E+00  0.00000000000E+00  0.70726389805E+03  0.70726389805E+03  0.00000000000E+00 0. -1.
          1   -1    0    0  501    0 -0.00000000000E+00 -0.00000000000E+00 -0.25688722815E+03  0.25688722815E+03  0.00000000000E+00 0. -1.
         25    2    1    2    0    0 -0.25727991593E+02  0.41946054849E+02 -0.10074168465E+03  0.16791393856E+03  0.12499921067E+03 0.  0.
          2    1    1    2  501    0  0.50788336205E+02  0.14690981859E+02 -0.11535420002E+03  0.12689314996E+03  0.00000000000E+00 0. -1.
          1    1    1    2  502    0 -0.25060344613E+02 -0.56637036708E+02  0.66647255457E+03  0.66934403769E+03  0.00000000000E+00 0. -1.
         22    1    3    3    0    0  0.48460593568E+02  0.22226633459E+01 -0.24445979610E+02  0.54322879898E+02  0.00000000000E+00 0.  1.
         22    1    3    3    0    0 -0.74188585161E+02  0.39723391503E+02 -0.76295705037E+02  0.11359105866E+03  0.00000000000E+00 0.  1.
</event>
<event>
 7    1  0.6152634E-006  0.7940612E+02  0.7818608E-02  0.1462089E+00
          2   -1    0    0  502    0  0.00000000000E+00  0.00000000000E+00  0.14893887925E+04  0.14893887925E+04  0.00000000000E+00 0. -1.
          1   -1    0    0  501    0 -0.00000000000E+00 -0.00000000000E+00 -0.15904308042E+04  0.15904308042E+04  0.00000000000E+00 0. -1.
         25    2    1    2    0    0 -0.11346642992E+02 -0.59204537811E+02  0.28431247847E+02  0.14165720636E+03  0.12499801860E+03 0.  0.
          2    1    1    2  501    0  0.36706281453E+02  0.70709274127E+02 -0.15326450466E+04  0.15347143029E+04  0.00000000000E+00 0. -1.
          1    1    1    2  502    0 -0.25359638461E+02 -0.11504736316E+02  0.14031717871E+04  0.14034480875E+04  0.00000000000E+00 0. -1.
         22    1    3    3    0    0 -0.55777672191E+01  0.17584339283E+02 -0.36521716267E+02  0.40916454322E+02  0.00000000000E+00 0. -1.
         22    1    3    3    0    0 -0.57688757731E+01 -0.76788877094E+02  0.64952964115E+02  0.10074075203E+03  0.00000000000E+00 0. -1.
</event>
<event>
 7    1  0.6152634E-006  0.7038424E+02  0.7818608E-02  0.1365876E+00
          2   -1    0    0  502    0  0.00000000000E+00  0.00000000000E+00  0.45276480525E+03  0.45276480525E+03  0.00000000000E+00 0. -1.
          1   -1    0    0  501    0 -0.00000000000E+00 -0.00000000000E+00 -0.20482528877E+04  0.20482528877E+04  0.00000000000E+00 0. -1.
         25    2    1    2    0    0  0.93541573743E+02  0.35547207030E+02  0.13087940407E+03  0.20680713132E+03  0.12500456475E+03 0.  0.
          2    1    1    2  501    0 -0.32821065306E+02 -0.62243464260E+02 -0.20057896105E+04  0.20070235257E+04  0.00000000000E+00 0. -1.
          1    1    1    2  502    0 -0.60720508437E+02  0.26696257231E+02  0.27942212392E+03  0.28718703597E+03  0.00000000000E+00 0. -1.
         22    1    3    3    0    0  0.70857656611E+02  0.60509395651E+02  0.26146999135E+02  0.96777373524E+02  0.00000000000E+00 0.  1.
         22    1    3    3    0    0  0.22683917132E+02 -0.24962188621E+02  0.10473240494E+03  0.11002975780E+03  0.00000000000E+00 0.  1.
</event>
<event>
 7    1  0.6152634E-006  0.1085287E+03  0.7818608E-02  0.1269425E+00
          2   -1    0    0  502    0  0.00000000000E+00  0.00000000000E+00  0.24227232973E+03  0.24227232973E+03  0.00000000000E+00 0. -1.
          1   -1    0    0  501    0 -0.00000000000E+00 -0.00000000000E+00 -0.19043847539E+04  0.19043847539E+04  0.00000000000E+00 0. -1.
         25    2    1    2    0    0 -0.18086309595E+03 -0.64269100189E+02 -0.28838801797E+03  0.36828520791E+03  0.12499747495E+03 0.  0.
          2    1    1    2  501    0  0.75412432787E+02  0.69082493996E+02 -0.15604906221E+04  0.15638383572E+04  0.00000000000E+00 0. -1.
          1    1    1    2  502    0  0.10545066316E+03 -0.48133938071E+01  0.18676621592E+03  0.21453351843E+03  0.00000000000E+00 0. -1.
         22    1    3    3    0    0 -0.17124553902E+03 -0.58245885361E+02 -0.30109482725E+03  0.35124879045E+03  0.00000000000E+00 0. -1.
         22    1    3    3    0    0 -0.96175569260E+01 -0.60232148276E+01  0.12706809276E+02  0.17036417466E+02  0.00000000000E+00 0. -1.
</event>
<event>
 7    1  0.6152634E-006  0.4784433E+02  0.7818608E-02  0.1507866E+00
          2   -1    0    0  502    0  0.00000000000E+00  0.00000000000E+00  0.20571528279E+03  0.20571528279E+03  0.00000000000E+00 0. -1.
          1   -1    0    0  501    0 -0.00000000000E+00 -0.00000000000E+00 -0.24232577776E+03  0.24232577776E+03  0.00000000000E+00 0. -1.
         25    2    1    2    0    0 -0.38848479552E+02  0.24145716723E+02  0.12215271739E+03  0.18065810100E+03  0.12499537227E+03 0.  0.
          2    1    1    2  501    0  0.13556003539E+02 -0.46143595033E+02 -0.20483614502E+03  0.21040637562E+03  0.00000000000E+00 0. -1.
          1    1    1    2  502    0  0.25292476014E+02  0.21997878310E+02  0.46072932659E+02  0.56976583935E+02  0.00000000000E+00 0. -1.
         22    1    3    3    0    0 -0.28823510528E+02 -0.42764130639E+02  0.94324222836E+02  0.10750174251E+03  0.00000000000E+00 0.  1.
         22    1    3    3    0    0 -0.10024969025E+02  0.66909847362E+02  0.27828494559E+02  0.73156358489E+02  0.00000000000E+00 0.  1.
</event>
<event>
 7    1  0.6152634E-006  0.3844113E+02  0.7818608E-02  0.1524760E+00
          2   -1    0    0  502    0  0.00000000000E+00  0.00000000000E+00  0.44676565358E+02  0.44676565358E+02  0.00000000000E+00 0. -1.
          1   -1    0    0  501    0 -0.00000000000E+00 -0.00000000000E+00 -0.37513724273E+03  0.37513724273E+03  0.00000000000E+00 0. -1.
         25    2    1    2    0    0 -0.30548473807E+02  0.24013899237E+02 -0.20895057424E+03  0.24656656212E+03  0.12499940187E+03 0.  0.
          2    1    1    2  501    0 -0.70498333112E+01 -0.36569132961E+02 -0.12779660737E+03  0.13311263836E+03  0.00000000000E+00 0. -1.
          1    1    1    2  502    0  0.37598307119E+02  0.12555233724E+02  0.62865042491E+01  0.40134607606E+02  0.00000000000E+00 0. -1.
         22    1    3    3    0    0 -0.32032921297E+02  0.69235815159E+02 -0.17196669628E+03  0.18812828277E+03  0.00000000000E+00 0.  1.
         22    1    3    3    0    0  0.14844474901E+01 -0.45221915922E+02 -0.36983877962E+02  0.58438279348E+02  0.00000000000E+00 0.  1.
</event>
<event>
 7    1  0.6152634E-006  0.1075855E+03  0.7818608E-02  0.1373080E+00
          2   -1    0    0  502    0  0.00000000000E+00  0.00000000000E+00  0.75620075041E+03  0.75620075041E+03  0.00000000000E+00 0. -1.
          1   -1    0    0  501    0 -0.00000000000E+00 -0.00000000000E+00 -0.12869506516E+04  0.12869506516E+04  0.00000000000E+00 0. -1.
         25    2    1    2    0    0 -0.85488880441E+02  0.71919775217E+02  0.24324273648E+03  0.29539928861E+03  0.12495162310E+03 0.  0.
          2    1    1    2  501    0  0.10193711271E+03 -0.34494412833E+02 -0.12577123812E+04  0.12623079946E+04  0.00000000000E+00 0. -1.
          1    1    1    2  502    0 -0.16448232266E+02 -0.37425362385E+02  0.48371974357E+03  0.48544411874E+03  0.00000000000E+00 0. -1.
         22    1    3    3    0    0 -0.88344212424E+02 -0.40590472932E+01  0.15883970487E+03  0.18179996583E+03  0.00000000000E+00 0.  1.
         22    1    3    3    0    0  0.28553319837E+01  0.75978822510E+02  0.84403031605E+02  0.11359932277E+03  0.00000000000E+00 0.  1.
</event>
<event>
 7    1  0.6152634E-006  0.1837907E+03  0.7818608E-02  0.1304181E+00
          2   -1    0    0  502    0  0.00000000000E+00  0.00000000000E+00  0.16017637963E+03  0.16017637963E+03  0.00000000000E+00 0. -1.
          1   -1    0    0  501    0 -0.00000000000E+00 -0.00000000000E+00 -0.32733547911E+04  0.32733547911E+04  0.00000000000E+00 0. -1.
         25    2    1    2    0    0  0.13774920252E+03 -0.11772460742E+03  0.21589813435E+02  0.22119967573E+03  0.12501700090E+03 0.  0.
          2    1    1    2  501    0 -0.16412633852E+03  0.83086069641E+02 -0.31577473645E+04  0.31631011947E+04  0.00000000000E+00 0. -1.
          1    1    1    2  502    0  0.26377136003E+02  0.34638537778E+02  0.22979139638E+02  0.49230300239E+02  0.00000000000E+00 0. -1.
         22    1    3    3    0    0  0.85182503790E+02 -0.13918433078E+03  0.19958486932E+02  0.16439792604E+03  0.00000000000E+00 0. -1.
         22    1    3    3    0    0  0.52566698729E+02  0.21459723359E+02  0.16313265026E+01  0.56801749692E+02  0.00000000000E+00 0. -1.
</event>
<event>
 7    1  0.6152634E-006  0.6416844E+02  0.7818608E-02  0.1389364E+00
          2   -1    0    0  502    0  0.00000000000E+00  0.00000000000E+00  0.44857214320E+03  0.44857214320E+03  0.00000000000E+00 0. -1.
          1   -1    0    0  501    0 -0.00000000000E+00 -0.00000000000E+00 -0.79512473867E+03  0.79512473867E+03  0.00000000000E+00 0. -1.
         25    2    1    2    0    0 -0.78549970571E+01  0.11449661411E+02 -0.23229183997E+03  0.26415319821E+03  0.12499846990E+03 0.  0.
          2    1    1    2  501    0  0.64725316247E+02  0.18271626830E+02 -0.54243468005E+03  0.54658814571E+03  0.00000000000E+00 0. -1.
          1    1    1    2  502    0 -0.56870319190E+02 -0.29721288241E+02  0.42817392455E+03  0.43295553795E+03  0.00000000000E+00 0. -1.
         22    1    3    3    0    0  0.16522038949E+02 -0.51355926610E+02 -0.69570523359E+02  0.88036734886E+02  0.00000000000E+00 0.  1.
         22    1    3    3    0    0 -0.24377036006E+02  0.62805588021E+02 -0.16272131661E+03  0.17611646332E+03  0.00000000000E+00 0.  1.
</event>
<event>
 7    1  0.6152634E-006  0.1641373E+03  0.7818608E-02  0.1200278E+00
          2   -1    0    0  502    0  0.00000000000E+00  0.00000000000E+00  0.63535500462E+03  0.63535500462E+03  0.00000000000E+00 0. -1.
          1   -1    0    0  501    0 -0.00000000000E+00 -0.00000000000E+00 -0.93614883815E+03  0.93614883815E+03  0.00000000000E+00 0. -1.
         25    2    1    2    0    0 -0.13717045981E+03 -0.11522595333E+03 -0.11001588127E+03  0.24458406336E+03  0.12500045821E+03 0.  0.
          2    1    1    2  501    0  0.10607091867E+02  0.16863433397E+03 -0.74089112315E+03  0.75991427501E+03  0.00000000000E+00 0. -1.
          1    1    1    2  502    0  0.12656336794E+03 -0.53408380638E+02  0.55011317089E+03  0.56700550440E+03  0.00000000000E+00 0. -1.
         22    1    3    3    0    0 -0.12116405342E+02  0.21824719827E+02 -0.38213843789E+02  0.45644534515E+02  0.00000000000E+00 0. -1.
         22    1    3    3    0    0 -0.12505405447E+03 -0.13705067316E+03 -0.71802037480E+02  0.19893952885E+03  0.00000000000E+00 0. -1.
</event>
<event>
 7    1  0.6152634E-006  0.9772495E+02  0.7818608E-02  0.1429435E+00
          2   -1    0    0  502    0  0.00000000000E+00  0.00000000000E+00  0.46095256019E+03  0.46095256019E+03  0.00000000000E+00 0. -1.
          1   -1    0    0  501    0 -0.00000000000E+00 -0.00000000000E+00 -0.10954868059E+04  0.10954868059E+04  0.00000000000E+00 0. -1.
         25    2    1    2    0    0  0.21971704134E+02  0.75551173254E+02  0.61044844369E+02  0.15981915373E+03  0.12499981325E+03 0.  0.
          2    1    1    2  501    0 -0.14495513725E+02  0.24913723732E+02 -0.10386570023E+04  0.10390568714E+04  0.00000000000E+00 0. -1.
          1    1    1    2  502    0 -0.74761904088E+01 -0.10046489699E+03  0.34307791222E+03  0.35756334097E+03  0.00000000000E+00 0. -1.
         22    1    3    3    0    0 -0.26800738569E+02  0.61856265594E+02  0.80990584287E+02  0.10537529086E+03  0.00000000000E+00 0. -1.
         22    1    3    3    0    0  0.48772442703E+02  0.13694907661E+02 -0.19945739917E+02  0.54443862867E+02  0.00000000000E+00 0. -1.
</event>
<event>
 7    1  0.6152634E-006  0.1286923E+03  0.7818608E-02  0.1380453E+00
          2   -1    0    0  502    0  0.00000000000E+00  0.00000000000E+00  0.17269731643E+04  0.17269731643E+04  0.00000000000E+00 0. -1.
          1   -1    0    0  501    0 -0.00000000000E+00 -0.00000000000E+00 -0.96564965216E+02  0.96564965216E+02  0.00000000000E+00 0. -1.
         25    2    1    2    0    0  0.97748943456E+02 -0.64550127300E+01  0.99839595757E+03  0.10109483858E+04  0.12500250990E+03 0.  0.
          2    1    1    2  501    0 -0.12986841626E+03  0.82892371067E+01 -0.42815774155E+02  0.13699528280E+03  0.00000000000E+00 0. -1.
          1    1    1    2  502    0  0.32119472805E+02 -0.18342243767E+01  0.67482801569E+03  0.67559446096E+03  0.00000000000E+00 0. -1.
         22    1    3    3    0    0 -0.17062153652E+01 -0.22133982082E+02  0.58669621295E+03  0.58711606231E+03  0.00000000000E+00 0.  1.
         22    1    3    3    0    0  0.99455158821E+02  0.15678969352E+02  0.41169974462E+03  0.42383232347E+03  0.00000000000E+00 0.  1.
</event>
<event>
 7    1  0.6152634E-006  0.7302235E+02  0.7818608E-02  0.1375458E+00
          2   -1    0    0  502    0  0.00000000000E+00  0.00000000000E+00  0.18550630894E+04  0.18550630894E+04  0.00000000000E+00 0. -1.
          1   -1    0    0  501    0 -0.00000000000E+00 -0.00000000000E+00 -0.21715381908E+03  0.21715381908E+03  0.00000000000E+00 0. -1.
         25    2    1    2    0    0  0.35041947905E+02  0.10980496196E+02  0.11239224255E+03  0.17206210877E+03  0.12499937472E+03 0.  0.
          2    1    1    2  501    0 -0.29295833970E+02 -0.69763493217E+02 -0.17914554555E+03  0.19446932242E+03  0.00000000000E+00 0. -1.
          1    1    1    2  502    0 -0.57461139344E+01  0.58782997021E+02  0.17046625733E+04  0.17056854773E+04  0.00000000000E+00 0. -1.
         22    1    3    3    0    0  0.30930042933E+02  0.59646239225E+02  0.10198226144E+03  0.12212584926E+03  0.00000000000E+00 0.  1.
         22    1    3    3    0    0  0.41119049721E+01 -0.48665743029E+02  0.10409981111E+02  0.49936259509E+02  0.00000000000E+00 0.  1.
</event>
<event>
 7    1  0.6152634E-006  0.4305986E+02  0.7818608E-02  0.1487614E+00
          2   -1    0    0  502    0  0.00000000000E+00  0.00000000000E+00  0.18550443293E+04  0.18550443293E+04  0.00000000000E+00 0. -1.
          1   -1    0    0  501    0 -0.00000000000E+00 -0.00000000000E+00 -0.11656790209E+03  0.11656790209E+03  0.00000000000E+00 0. -1.
         25    2    1    2    0    0  0.88357662241E+01  0.22097604872E+02  0.62630771379E+02  0.14182084904E+03  0.12499665913E+03 0.  0.
          2    1    1    2  501    0  0.33465908630E+02 -0.30142468385E+02 -0.70096133058E+02  0.83318685242E+02  0.00000000000E+00 0. -1.
          1    1    1    2  502    0 -0.42301674854E+02  0.80448635124E+01  0.17459417889E+04  0.17464726971E+04  0.00000000000E+00 0. -1.
         22    1    3    3    0    0 -0.34990741758E+02  0.46703924031E+02 -0.38432496136E+01  0.58484007184E+02  0.00000000000E+00 0. -1.
         22    1    3    3    0    0  0.43826507983E+02 -0.24606319158E+02  0.66474020992E+02  0.83336841861E+02  0.00000000000E+00 0. -1.
</event>
<event>
 7    1  0.6152634E-006  0.1299526E+03  0.7818608E-02  0.1263824E+00
          2   -1    0    0  502    0  0.00000000000E+00  0.00000000000E+00  0.43537120720E+04  0.43537120720E+04  0.00000000000E+00 0. -1.
          1   -1    0    0  501    0 -0.00000000000E+00 -0.00000000000E+00 -0.26498712237E+03  0.26498712237E+03  0.00000000000E+00 0. -1.
         25    2    1    2    0    0 -0.19849906722E+03  0.58110522411E+02  0.41378019532E+03  0.47918495556E+03  0.12500183635E+03 0.  0.
          2    1    1    2  501    0  0.89754000115E+02  0.88681191559E+01 -0.22244430383E+03  0.24003310685E+03  0.00000000000E+00 0. -1.
          1    1    1    2  502    0  0.10874506710E+03 -0.66978641567E+02  0.38973890581E+04  0.38994811319E+04  0.00000000000E+00 0. -1.
         22    1    3    3    0    0 -0.56203502211E+02 -0.38281260771E+02  0.14496468714E+03  0.16012198195E+03  0.00000000000E+00 0.  1.
         22    1    3    3    0    0 -0.14229556501E+03  0.96391783182E+02  0.26881550818E+03  0.31906297361E+03  0.00000000000E+00 0.  1.
</event>
<event>
 7    1  0.6152634E-006  0.7047777E+02  0.7818608E-02  0.1358533E+00
          2   -1    0    0  502    0  0.00000000000E+00  0.00000000000E+00  0.54414647947E+03  0.54414647947E+03  0.00000000000E+00 0. -1.
          1   -1    0    0  501    0 -0.00000000000E+00 -0.00000000000E+00 -0.10328306657E+04  0.10328306657E+04  0.00000000000E+00 0. -1.
         25    2    1    2    0    0 -0.11650672459E+02  0.62635112319E+02 -0.12509347782E+03  0.18797018415E+03  0.12500206587E+03 0.  0.
          2    1    1    2  501    0  0.69014914827E+02 -0.21749019855E+02 -0.87237412563E+03  0.87537003227E+03  0.00000000000E+00 0. -1.
          1    1    1    2  502    0 -0.57364242368E+02 -0.40886092464E+02  0.50878341726E+03  0.51363692871E+03  0.00000000000E+00 0. -1.
         22    1    3    3    0    0  0.91307888926E+01 -0.14232547749E+02 -0.10431477738E+03  0.10567643778E+03  0.00000000000E+00 0. -1.
         22    1    3    3    0    0 -0.20781461351E+02  0.76867660067E+02 -0.20778700436E+02  0.82293746372E+02  0.00000000000E+00 0. -1.
</event>
<event>
 7    1  0.6152634E-006  0.6377035E+02  0.7818608E-02  0.1448972E+00
          2   -1    0    0  502    0  0.00000000000E+00  0.00000000000E+00  0.55605378579E+03  0.55605378579E+03  0.00000000000E+00 0. -1.
          1   -1    0    0  501    0 -0.00000000000E+00 -0.00000000000E+00 -0.30882777353E+03  0.30882777353E+03  0.00000000000E+00 0. -1.
         25    2    1    2    0    0  0.53465165418E+02 -0.51573360110E+02  0.57858999406E+02  0.15649344858E+03  0.12499680096E+03 0.  0.
          2    1    1    2  501    0  0.86363249854E+01  0.37174263009E+02 -0.25582448640E+03  0.25865552339E+03  0.00000000000E+00 0. -1.
          1    1    1    2  502    0 -0.62101490403E+02  0.14399097101E+02  0.44519149926E+03  0.44973258735E+03  0.00000000000E+00 0. -1.
         22    1    3    3    0    0 -0.99728261070E+01 -0.30748356489E+02  0.79891607855E+02  0.86183453708E+02  0.00000000000E+00 0. -1.
         22    1    3    3    0    0  0.63437991525E+02 -0.20825003620E+02 -0.22032608449E+02  0.70309994876E+02  0.00000000000E+00 0. -1.
</event>
<event>
 7    1  0.6152634E-006  0.5140938E+02  0.7818608E-02  0.1459370E+00
          2   -1    0    0  502    0  0.00000000000E+00  0.00000000000E+00  0.23378972470E+03  0.23378972470E+03  0.00000000000E+00 0. -1.
          1   -1    0    0  501    0 -0.00000000000E+00 -0.00000000000E+00 -0.12774506718E+03  0.12774506718E+03  0.00000000000E+00 0. -1.
         25    2    1    2    0    0  0.80039381300E+02 -0.23667532105E+02  0.98703187398E+01  0.15062926057E+03  0.12500118524E+03 0.  0.
          2    1    1    2  501    0 -0.42816251792E+02 -0.95550162410E+01 -0.43989967603E+02  0.62126057356E+02  0.00000000000E+00 0. -1.
          1    1    1    2  502    0 -0.37223129508E+02  0.33222548346E+02  0.14016430638E+03  0.14877947396E+03  0.00000000000E+00 0. -1.
         22    1    3    3    0    0  0.88776748484E+02  0.80407348851E+00  0.50696347004E+02  0.10223540094E+03  0.00000000000E+00 0.  1.
         22    1    3    3    0    0 -0.87373671845E+01 -0.24471605594E+02 -0.40826028264E+02  0.48393859626E+02  0.00000000000E+00 0.  1.
</event>
<event>
 7    1  0.6152634E-006  0.3308222E+02  0.7818608E-02  0.1613289E+00
          2   -1    0    0  502    0  0.00000000000E+00  0.00000000000E+00  0.17636795864E+04  0.17636795864E+04  0.00000000000E+00 0. -1.
          1   -1    0    0  501    0 -0.00000000000E+00 -0.00000000000E+00 -0.10643993472E+03  0.10643993472E+03  0.00000000000E+00 0. -1.
         25    2    1    2    0    0 -0.35218325084E+02 -0.34520197028E+02  0.70185885282E+03  0.71460495291E+03  0.12498965967E+03 0.  0.
          2    1    1    2  501    0  0.24571015690E+02  0.36724620099E+01 -0.98268338554E+02  0.10136019017E+03  0.00000000000E+00 0. -1.
          1    1    1    2  502    0  0.10647309393E+02  0.30847735018E+02  0.10536491374E+04  0.10541543780E+04  0.00000000000E+00 0. -1.
         22    1    3    3    0    0 -0.35601776717E+02 -0.30692036576E+02  0.70678954667E+03  0.70835086709E+03  0.00000000000E+00 0. -1.
         22    1    3    3    0    0  0.38345163378E+00 -0.38281604522E+01 -0.49306938569E+01  0.62540858256E+01  0.00000000000E+00 0. -1.
</event>
<event>
 7    1  0.1073458E-005  0.5128481E+02  0.7818608E-02  0.1445506E+00
          2   -1    0    0  502    0  0.00000000000E+00  0.00000000000E+00  0.13797072832E+04  0.13797072832E+04  0.00000000000E+00 0. -1.
          1   -1    0    0  501    0 -0.00000000000E+00 -0.00000000000E+00 -0.79509014250E+03  0.79509014250E+03  0.00000000000E+00 0. -1.
         25    2    1    2    0    0  0.23602662276E+02  0.93332744915E+02 -0.20022188096E+03  0.25491360208E+03  0.12499622381E+03 0.  0.
          2    1    1    2  501    0 -0.24382613066E+02 -0.42142709289E+02 -0.56599236460E+03  0.56808263180E+03  0.00000000000E+00 0. -1.
          1    1    1    2  502    0  0.77995079072E+00 -0.51190035626E+02  0.13508313863E+04  0.13518011918E+04  0.00000000000E+00 0. -1.
         22    1    3    3    0    0 -0.15210819796E+02  0.98267139473E+02 -0.19004233881E+03  0.21448517497E+03  0.00000000000E+00 0.  1.
         22    1    3    3    0    0  0.38813482072E+02 -0.49343945578E+01 -0.10179542149E+02  0.40428427109E+02  0.00000000000E+00 0.  1.
</event>
<event>
 7    1  0.6152634E-006  0.9145576E+02  0.7818608E-02  0.1419559E+00
          2   -1    0    0  502    0  0.00000000000E+00  0.00000000000E+00  0.66201877814E+03  0.66201877814E+03  0.00000000000E+00 0. -1.
          1   -1    0    0  501    0 -0.00000000000E+00 -0.00000000000E+00 -0.16677547390E+04  0.16677547390E+04  0.00000000000E+00 0. -1.
         25    2    1    2    0    0 -0.31869271098E+02 -0.83064695126E+02  0.20051657894E+02  0.15474606565E+03  0.12501552637E+03 0.  0.
          2    1    1    2  501    0  0.32016984977E+02 -0.88358898024E+01 -0.15965592192E+04  0.15969046624E+04  0.00000000000E+00 0. -1.
          1    1    1    2  502    0 -0.14771387886E+00  0.91900584929E+02  0.57077160049E+03  0.57812278908E+03  0.00000000000E+00 0. -1.
         22    1    3    3    0    0 -0.24541468100E+01 -0.33793136342E+02 -0.52352056296E+02  0.62359736199E+02  0.00000000000E+00 0.  1.
         22    1    3    3    0    0 -0.29415124288E+02 -0.49271558785E+02  0.72403714190E+02  0.92386329456E+02  0.00000000000E+00 0.  1.
</event>
<event>
 7    1  0.6152634E-006  0.1212487E+03  0.7818608E-02  0.1262248E+00
          2   -1    0    0  502    0  0.00000000000E+00  0.00000000000E+00  0.12775927984E+04  0.12775927984E+04  0.00000000000E+00 0. -1.
          1   -1    0    0  501    0 -0.00000000000E+00 -0.00000000000E+00 -0.78485297437E+03  0.78485297437E+03  0.00000000000E+00 0. -1.
         25    2    1    2    0    0 -0.86016180533E+02  0.23983624061E+02  0.20283011362E+03  0.25444760754E+03  0.12501812852E+03 0.  0.
          2    1    1    2  501    0  0.29204151952E+02  0.93721790971E+02 -0.75176945196E+03  0.75815167710E+03  0.00000000000E+00 0. -1.
          1    1    1    2  502    0  0.56812028581E+02 -0.11770541503E+03  0.10416791624E+04  0.10498464882E+04  0.00000000000E+00 0. -1.
         22    1    3    3    0    0 -0.10229138167E+03  0.55306706068E+02  0.17176285629E+03  0.20742429294E+03  0.00000000000E+00 0.  1.
         22    1    3    3    0    0  0.16275201139E+02 -0.31323082008E+02  0.31067257331E+02  0.47023314607E+02  0.00000000000E+00 0.  1.
</event>
<event>
 7    1  0.9202198E-006  0.1007363E+03  0.7818608E-02  0.1432388E+00
          2   -1    0    0  502    0  0.00000000000E+00  0.00000000000E+00  0.23455376374E+04  0.23455376374E+04  0.00000000000E+00 0. -1.
          1   -1    0    0  501    0 -0.00000000000E+00 -0.00000000000E+00 -0.12694561314E+04  0.12694561314E+04  0.00000000000E+00 0. -1.
         25    2    1    2    0    0 -0.19099052504E+02 -0.12581130531E+03 -0.10482725090E+03  0.20689512577E+03  0.12499432861E+03 0.  0.
          2    1    1    2  501    0 -0.11445268714E+01  0.27320123067E+02 -0.11123252593E+04  0.11126613059E+04  0.00000000000E+00 0. -1.
          1    1    1    2  502    0  0.20243579375E+02  0.98491182242E+02  0.22932340163E+04  0.22954373372E+04  0.00000000000E+00 0. -1.
         22    1    3    3    0    0  0.17477657056E+02 -0.12467637961E+03 -0.11325714843E+03  0.16934240402E+03  0.00000000000E+00 0. -1.
         22    1    3    3    0    0 -0.36576709559E+02 -0.11349256971E+01  0.84298975266E+01  0.37552721750E+02  0.00000000000E+00 0. -1.
</event>
<event>
 7    1  0.6152634E-006  0.3998452E+02  0.7818608E-02  0.1569807E+00
          2   -1    0    0  502    0  0.00000000000E+00  0.00000000000E+00  0.56013862456E+02  0.56013862456E+02  0.00000000000E+00 0. -1.
          1   -1    0    0  501    0 -0.00000000000E+00 -0.00000000000E+00 -0.34279706123E+03  0.34279706123E+03  0.00000000000E+00 0. -1.
         25    2    1    2    0    0  0.51368868556E+01  0.26673724452E+02 -0.25982697457E+03  0.28960887321E+03  0.12500147018E+03 0.  0.
          2    1    1    2  501    0 -0.25317959908E+02  0.87263876713E+01 -0.54014019036E+02  0.60288167895E+02  0.00000000000E+00 0. -1.
          1    1    1    2  502    0  0.20181073053E+02 -0.35400112123E+02  0.27057794832E+02  0.48913882580E+02  0.00000000000E+00 0. -1.
         22    1    3    3    0    0  0.12319633207E+02 -0.13810819274E+02  0.68849379570E+01  0.19746251848E+02  0.00000000000E+00 0. -1.
         22    1    3    3    0    0 -0.71827463513E+01  0.40484543725E+02 -0.26671191252E+03  0.26986262136E+03  0.00000000000E+00 0. -1.
</event>
<event>
 7    1  0.6152634E-006  0.4961400E+02  0.7818608E-02  0.1491441E+00
          2   -1    0    0  502    0  0.00000000000E+00  0.00000000000E+00  0.13834187052E+04  0.13834187052E+04  0.00000000000E+00 0. -1.
          1   -1    0    0  501    0 -0.00000000000E+00 -0.00000000000E+00 -0.15695768288E+03  0.15695768288E+03  0.00000000000E+00 0. -1.
         25    2    1    2    0    0  0.50441624670E+02  0.52905708924E+02  0.29366998729E+03  0.32743010465E+03  0.12500016183E+03 0.  0.
          2    1    1    2  501    0 -0.14714163543E+02 -0.47145523373E+02 -0.13540835104E+03  0.14413406438E+03  0.00000000000E+00 0. -1.
          1    1    1    2  502    0 -0.35727461127E+02 -0.57601855512E+01  0.10681993861E+04  0.10688122191E+04  0.00000000000E+00 0. -1.
         22    1    3    3    0    0  0.92379024688E+02  0.35139628798E+02  0.18909205090E+03  0.21336466772E+03  0.00000000000E+00 0.  1.
         22    1    3    3    0    0 -0.41937400019E+02  0.17766080126E+02  0.10457793639E+03  0.11406543693E+03  0.00000000000E+00 0.  1.
</event>
<event>
 7    1  0.6152634E-006  0.9123124E+02  0.7818608E-02  0.1468838E+00
          2   -1    0    0  502    0  0.00000000000E+00  0.00000000000E+00  0.38242624634E+03  0.38242624634E+03  0.00000000000E+00 0. -1.
          1   -1    0    0  501    0 -0.00000000000E+00 -0.00000000000E+00 -0.55547829165E+02  0.55547829165E+02  0.00000000000E+00 0. -1.
         25    2    1    2    0    0 -0.89159094921E+02 -0.17418872933E+02  0.19894332420E+03  0.25190341736E+03  0.12499649631E+03 0.  0.
          2    1    1    2  501    0  0.56946216411E+01 -0.22373533333E+02 -0.54966328007E+01  0.23732186616E+02  0.00000000000E+00 0. -1.
          1    1    1    2  502    0  0.83464473280E+02  0.39792406266E+02  0.13343172577E+03  0.16233847153E+03  0.00000000000E+00 0. -1.
         22    1    3    3    0    0 -0.57553137086E+02 -0.71051708416E+02  0.13097305073E+03  0.15973305505E+03  0.00000000000E+00 0.  1.
         22    1    3    3    0    0 -0.31605957835E+02  0.53632835482E+02  0.67970273470E+02  0.92170362309E+02  0.00000000000E+00 0.  1.
</event>
<event>
 7    1  0.6152634E-006  0.9862245E+02  0.7818608E-02  0.1372110E+00
          2   -1    0    0  502    0  0.00000000000E+00  0.00000000000E+00  0.10055572154E+04  0.10055572154E+04  0.00000000000E+00 0. -1.
          1   -1    0    0  501    0 -0.00000000000E+00 -0.00000000000E+00 -0.41617657319E+03  0.41617657319E+03  0.00000000000E+00 0. -1.
         25    2    1    2    0    0  0.64742565572E+02  0.25356986122E+02 -0.16924173706E+03  0.22159006769E+03  0.12499926397E+03 0.  0.
          2    1    1    2  501    0  0.34256515730E+02 -0.29108730913E+02 -0.21593454412E+03  0.22056417304E+03  0.00000000000E+00 0. -1.
          1    1    1    2  502    0 -0.98999081301E+02  0.37517447907E+01  0.97455692334E+03  0.97957954783E+03  0.00000000000E+00 0. -1.
         22    1    3    3    0    0 -0.80300233477E+01  0.30628635603E+02  0.55814930939E+01  0.32151946427E+02  0.00000000000E+00 0. -1.
         22    1    3    3    0    0  0.72772588919E+02 -0.52716494806E+01 -0.17482323015E+03  0.18943812126E+03  0.00000000000E+00 0. -1.
</event>
<event>
 7    1  0.6152634E-006  0.3904676E+02  0.7818608E-02  0.1547621E+00
          2   -1    0    0  502    0  0.00000000000E+00  0.00000000000E+00  0.40578194601E+02  0.40578194601E+02  0.00000000000E+00 0. -1.
          1   -1    0    0  501    0 -0.00000000000E+00 -0.00000000000E+00 -0.70004681122E+03  0.70004681122E+03  0.00000000000E+00 0. -1.
         25    2    1    2    0    0  0.62226985081E+02  0.28398103034E+02 -0.21825660477E+03  0.26065205102E+03  0.12499958500E+03 0.  0.
          2    1    1    2  501    0 -0.28930848902E+02 -0.12639136458E+02 -0.44200122484E+03  0.44312732318E+03  0.00000000000E+00 0. -1.
          1    1    1    2  502    0 -0.33296136178E+02 -0.15758966576E+02  0.78921298794E+00  0.36845631615E+02  0.00000000000E+00 0. -1.
         22    1    3    3    0    0  0.52396449577E+02  0.65363897582E+02 -0.20275510008E+03  0.21937971111E+03  0.00000000000E+00 0. -1.
         22    1    3    3    0    0  0.98305355034E+01 -0.36965794548E+02 -0.15501504682E+02  0.41272339917E+02  0.00000000000E+00 0. -1.
</event>
<event>
 7    1  0.6152634E-006  0.7534126E+02  0.7818608E-02  0.1394559E+00
          2   -1    0    0  502    0  0.00000000000E+00  0.00000000000E+00  0.18201255210E+04  0.18201255210E+04  0.00000000000E+00 0. -1.
          1   -1    0    0  501    0 -0.00000000000E+00 -0.00000000000E+00 -0.13503271558E+03  0.13503271558E+03  0.00000000000E+00 0. -1.
         25    2    1    2    0    0 -0.10904835005E+03 -0.50135583958E+02  0.31389257412E+03  0.35854228665E+03  0.12497561282E+03 0.  0.
          2    1    1    2  501    0  0.71374370644E+02  0.18734842602E+02 -0.10017700147E+03  0.12442156861E+03  0.00000000000E+00 0. -1.
          1    1    1    2  502    0  0.37673979407E+02  0.31400741357E+02  0.14713772328E+04  0.14721943813E+04  0.00000000000E+00 0. -1.
         22    1    3    3    0    0 -0.80392221301E+02  0.28945747257E+02  0.12119601414E+03  0.14828769124E+03  0.00000000000E+00 0. -1.
         22    1    3    3    0    0 -0.28656128750E+02 -0.79081331215E+02  0.19269655998E+03  0.21025459541E+03  0.00000000000E+00 0. -1.
</event>
<event>
 7    1  0.1118868E-005  0.7964513E+02  0.7818608E-02  0.1352229E+00
          2   -1    0    0  502    0  0.00000000000E+00  0.00000000000E+00  0.25267220521E+04  0.25267220521E+04  0.00000000000E+00 0. -1.
          1   -1    0    0  501    0 -0.00000000000E+00 -0.00000000000E+00 -0.19821728138E+04  0.19821728138E+04  0.00000000000E+00 0. -1.
         25    2    1    2    0    0 -0.35060126951E+02  0.18748588933E+02 -0.43571382074E+03  0.45503043988E+03  0.12500178218E+03 0.  0.
          2    1    1    2  501    0 -0.35905479841E+02 -0.55081824548E+02 -0.15354656238E+04  0.15368727640E+04  0.00000000000E+00 0. -1.
          1    1    1    2  502    0  0.70965606791E+02  0.36333235615E+02  0.25157286828E+04  0.25169916620E+04  0.00000000000E+00 0. -1.
         22    1    3    3    0    0  0.99882452656E+01 -0.46749148473E+02 -0.22003817235E+03  0.22517114651E+03  0.00000000000E+00 0.  1.
         22    1    3    3    0    0 -0.45048372216E+02  0.65497737406E+02 -0.21567564839E+03  0.22985929338E+03  0.00000000000E+00 0.  1.
</event>
<event>
 7    1  0.6152634E-006  0.7766973E+02  0.7818608E-02  0.1382684E+00
          2   -1    0    0  502    0  0.00000000000E+00  0.00000000000E+00  0.13153623123E+04  0.13153623123E+04  0.00000000000E+00 0. -1.
          1   -1    0    0  501    0 -0.00000000000E+00 -0.00000000000E+00 -0.30506405998E+03  0.30506405998E+03  0.00000000000E+00 0. -1.
         25    2    1    2    0    0  0.53196807891E+02  0.86739366523E+02  0.55541782698E+02  0.17048215622E+03  0.12500263154E+03 0.  0.
          2    1    1    2  501    0 -0.51511321983E+02 -0.93177950506E+01 -0.24356315730E+03  0.24912496702E+03  0.00000000000E+00 0. -1.
          1    1    1    2  502    0 -0.16854859075E+01 -0.77421571473E+02  0.11983196270E+04  0.12008192491E+04  0.00000000000E+00 0. -1.
         22    1    3    3    0    0  0.48943132994E+00 -0.15871961447E+02  0.52753690566E+02  0.55091837612E+02  0.00000000000E+00 0.  1.
         22    1    3    3    0    0  0.52707376561E+02  0.10261132797E+03  0.27880921326E+01  0.11539031861E+03  0.00000000000E+00 0.  1.
</event>
<event>
 7    1  0.6152634E-006  0.1193962E+03  0.7818608E-02  0.1264509E+00
          2   -1    0    0  502    0  0.00000000000E+00  0.00000000000E+00  0.74740944805E+03  0.74740944805E+03  0.00000000000E+00 0. -1.
          1   -1    0    0  501    0 -0.00000000000E+00 -0.00000000000E+00 -0.47066866208E+03  0.47066866208E+03  0.00000000000E+00 0. -1.
         25    2    1    2    0    0 -0.93655940017E+02 -0.79079825601E+02  0.87272723997E+00  0.17507476824E+03  0.12500143561E+03 0.  0.
          2    1    1    2  501    0  0.12220847250E+03 -0.14156376770E+02 -0.36994781303E+03  0.38986753920E+03  0.00000000000E+00 0. -1.
          1    1    1    2  502    0 -0.28552532486E+02  0.93236202372E+02  0.64581587176E+03  0.65313580269E+03  0.00000000000E+00 0. -1.
         22    1    3    3    0    0 -0.20112089424E+02  0.34014629563E+02  0.65334818992E+01  0.40052185347E+02  0.00000000000E+00 0. -1.
         22    1    3    3    0    0 -0.73543850593E+02 -0.11309445516E+03 -0.56607546592E+01  0.13502258290E+03  0.00000000000E+00 0. -1.
</event>
<event>
 7    1  0.6152634E-006  0.5395905E+02  0.7818608E-02  0.1519501E+00
          2   -1    0    0  502    0  0.00000000000E+00  0.00000000000E+00  0.11544160102E+04  0.11544160102E+04  0.00000000000E+00 0. -1.
          1   -1    0    0  501    0 -0.00000000000E+00 -0.00000000000E+00 -0.45464711549E+03  0.45464711549E+03  0.00000000000E+00 0. -1.
         25    2    1    2    0    0  0.37950839642E+02 -0.68559645943E+02  0.22847961392E+03  0.27197115754E+03  0.12499874111E+03 0.  0.
          2    1    1    2  501    0 -0.20384302936E+02  0.18427329478E+02 -0.43168390796E+03  0.43255760619E+03  0.00000000000E+00 0. -1.
          1    1    1    2  502    0 -0.17566536706E+02  0.50132316465E+02  0.90297318879E+03  0.90453436200E+03  0.00000000000E+00 0. -1.
         22    1    3    3    0    0 -0.35044047690E+02 -0.12734809452E+02  0.13822925665E+03  0.14316978747E+03  0.00000000000E+00 0. -1.
         22    1    3    3    0    0  0.72994887332E+02 -0.55824836490E+02  0.90250357269E+02  0.12880137007E+03  0.00000000000E+00 0. -1.
</event>
<event>
 7    1  0.6152634E-006  0.5946035E+02  0.7818608E-02  0.1411835E+00
          2   -1    0    0  502    0  0.00000000000E+00  0.00000000000E+00  0.15897311452E+03  0.15897311452E+03  0.00000000000E+00 0. -1.
          1   -1    0    0  501    0 -0.00000000000E+00 -0.00000000000E+00 -0.17276940715E+04  0.17276940715E+04  0.00000000000E+00 0. -1.
         25    2    1    2    0    0 -0.77329265226E+01  0.29885162361E+02 -0.31001062320E+03  0.33568532493E+03  0.12500051917E+03 0.  0.
          2    1    1    2  501    0 -0.45053491813E+02 -0.42325956181E+02 -0.13991084241E+04  0.14004733793E+04  0.00000000000E+00 0. -1.
          1    1    1    2  502    0  0.52786418336E+02  0.12440793821E+02  0.14039809036E+03  0.15050848178E+03  0.00000000000E+00 0. -1.
         22    1    3    3    0    0 -0.44101080352E+01  0.18549313972E+01  0.11751190943E+02  0.12687801699E+02  0.00000000000E+00 0. -1.
         22    1    3    3    0    0 -0.33228184875E+01  0.28030230963E+02 -0.32176181414E+03  0.32299752323E+03  0.00000000000E+00 0. -1.
</event>
<event>
 7    1  0.6152634E-006  0.5925500E+02  0.7818608E-02  0.1472287E+00
          2   -1    0    0  502    0  0.00000000000E+00  0.00000000000E+00  0.22873525670E+03  0.22873525670E+03  0.00000000000E+00 0. -1.
          1   -1    0    0  501    0 -0.00000000000E+00 -0.00000000000E+00 -0.11920823215E+03  0.11920823215E+03  0.00000000000E+00 0. -1.
         25    2    1    2    0    0  0.62030647553E+01 -0.42928947873E+02  0.80119543519E+02  0.15468229993E+03  0.12500440024E+03 0.  0.
          2    1    1    2  501    0  0.25999307818E+02  0.55798383493E+02 -0.66892900795E+02  0.90907006244E+02  0.00000000000E+00 0. -1.
          1    1    1    2  502    0 -0.32202372573E+02 -0.12869435620E+02  0.96300381825E+02  0.10235418268E+03  0.00000000000E+00 0. -1.
         22    1    3    3    0    0 -0.55829667787E+02 -0.42686913251E+02  0.43133239426E+02  0.82459691435E+02  0.00000000000E+00 0.  1.
         22    1    3    3    0    0  0.62032732543E+02 -0.24203462115E+00  0.36986304093E+02  0.72222608496E+02  0.00000000000E+00 0.  1.
</event>
<event>
 7    1  0.6152634E-006  0.4749069E+02  0.7818608E-02  0.1506387E+00
          2   -1    0    0  502    0  0.00000000000E+00  0.00000000000E+00  0.25404549136E+02  0.25404549136E+02  0.00000000000E+00 0. -1.
          1   -1    0    0  501    0 -0.00000000000E+00 -0.00000000000E+00 -0.37087113802E+04  0.37087113802E+04  0.00000000000E+00 0. -1.
         25    2    1    2    0    0  0.60924499034E+02  0.42017565677E+02 -0.75437469940E+03  0.76823396118E+03  0.12499984645E+03 0.  0.
          2    1    1    2  501    0 -0.27012979184E+02 -0.38329313294E+02 -0.29313124814E+04  0.29316875176E+04  0.00000000000E+00 0. -1.
          1    1    1    2  502    0 -0.33911519850E+02 -0.36882523825E+01  0.23803497190E+01  0.34194450558E+02  0.00000000000E+00 0. -1.
         22    1    3    3    0    0  0.88759563007E+01 -0.84722922177E+01 -0.56970975342E+03  0.56984187761E+03  0.00000000000E+00 0. -1.
         22    1    3    3    0    0  0.52048542734E+02  0.50489857895E+02 -0.18466494598E+03  0.19839208358E+03  0.00000000000E+00 0. -1.
</event>
<event>
 7    1  0.6152634E-006  0.6008282E+02  0.7818608E-02  0.1401257E+00
          2   -1    0    0  502    0  0.00000000000E+00  0.00000000000E+00  0.77056013097E+03  0.77056013097E+03  0.00000000000E+00 0. -1.
          1   -1    0    0  501    0 -0.00000000000E+00 -0.00000000000E+00 -0.23516477198E+03  0.23516477198E+03  0.00000000000E+00 0. -1.
         25    2    1    2    0    0  0.17553814775E+02 -0.26869052743E+02 -0.97628449591E+02  0.16182089445E+03  0.12499842120E+03 0.  0.
          2    1    1    2  501    0  0.17086561464E+02  0.73777878343E+02 -0.90516040022E+02  0.11801813173E+03  0.00000000000E+00 0. -1.
          1    1    1    2  502    0 -0.34640376238E+02 -0.46908825600E+02  0.72353984860E+03  0.72588587678E+03  0.00000000000E+00 0. -1.
         22    1    3    3    0    0 -0.12930050491E+01 -0.29980085656E+02 -0.12493948802E+03  0.12849261872E+03  0.00000000000E+00 0.  1.
         22    1    3    3    0    0  0.18846819824E+02  0.31110329130E+01  0.27311038428E+02  0.33328275732E+02  0.00000000000E+00 0.  1.
</event>
<event>
 7    1  0.6152634E-006  0.6054878E+02  0.7818608E-02  0.1452800E+00
          2   -1    0    0  502    0  0.00000000000E+00  0.00000000000E+00  0.11505195530E+04  0.11505195530E+04  0.00000000000E+00 0. -1.
          1   -1    0    0  501    0 -0.00000000000E+00 -0.00000000000E+00 -0.53204582221E+03  0.53204582221E+03  0.00000000000E+00 0. -1.
         25    2    1    2    0    0 -0.71583007212E+01  0.33286589542E+02  0.30673817097E+01  0.12958878389E+03  0.12499842305E+03 0.  0.
          2    1    1    2  501    0 -0.24220849474E+02 -0.56578048142E+02 -0.46641083461E+03  0.47045381465E+03  0.00000000000E+00 0. -1.
          1    1    1    2  502    0  0.31379150195E+02  0.23291458600E+02  0.10818171837E+04  0.10825227767E+04  0.00000000000E+00 0. -1.
         22    1    3    3    0    0  0.56982901034E+02  0.26069107376E+00 -0.38511049123E+01  0.57113483339E+02  0.00000000000E+00 0.  1.
         22    1    3    3    0    0 -0.64141201755E+02  0.33025898468E+02  0.69184866220E+01  0.72475300547E+02  0.00000000000E+00 0.  1.
</event>
<event>
 7    1  0.6152634E-006  0.1720184E+03  0.7818608E-02  0.1248105E+00
          2   -1    0    0  502    0  0.00000000000E+00  0.00000000000E+00  0.62863764689E+03  0.62863764689E+03  0.00000000000E+00 0. -1.
          1   -1    0    0  501    0 -0.00000000000E+00 -0.00000000000E+00 -0.19686195605E+04  0.19686195605E+04  0.00000000000E+00 0. -1.
         25    2    1    2    0    0 -0.10528596087E+03  0.14197386457E+02  0.11014921377E+03  0.19759148426E+03  0.12499138379E+03 0.  0.
          2    1    1    2  501    0  0.15692237392E+03 -0.74774271898E+02 -0.19176030512E+04  0.19254654723E+04  0.00000000000E+00 0. -1.
          1    1    1    2  502    0 -0.51636413053E+02  0.60576885440E+02  0.46747192387E+03  0.47420025074E+03  0.00000000000E+00 0. -1.
         22    1    3    3    0    0 -0.26676797861E+02  0.41226783954E+02  0.10306331123E+03  0.11416367803E+03  0.00000000000E+00 0.  1.
         22    1    3    3    0    0 -0.78609163010E+02 -0.27029397497E+02  0.70859025382E+01  0.83427806233E+02  0.00000000000E+00 0.  1.
</event>
<event>
 7    1  0.6152634E-006  0.5263102E+02  0.7818608E-02  0.1509150E+00
          2   -1    0    0  502    0  0.00000000000E+00  0.00000000000E+00  0.24569330462E+03  0.24569330462E+03  0.00000000000E+00 0. -1.
          1   -1    0    0  501    0 -0.00000000000E+00 -0.00000000000E+00 -0.16889916176E+04  0.16889916176E+04  0.00000000000E+00 0. -1.
         25    2    1    2    0    0  0.69201847833E+02  0.38433662815E+02 -0.70282294325E+02  0.16379905289E+03  0.12499794659E+03 0.  0.
          2    1    1    2  501    0 -0.50228973501E+02 -0.14928134138E+02 -0.15703647071E+04  0.15712387190E+04  0.00000000000E+00 0. -1.
          1    1    1    2  502    0 -0.18972874333E+02 -0.23505528677E+02  0.19734868837E+03  0.19964715034E+03  0.00000000000E+00 0. -1.
         22    1    3    3    0    0  0.52996212106E+01  0.62455409215E+02  0.41293516762E+01  0.62815727891E+02  0.00000000000E+00 0. -1.
         22    1    3    3    0    0  0.63902226623E+02 -0.24021746400E+02 -0.74411646001E+02  0.10098332500E+03  0.00000000000E+00 0. -1.
</event>
<event>
 7    1  0.6152634E-006  0.7472944E+02  0.7818608E-02  0.1468573E+00
          2   -1    0    0  502    0  0.00000000000E+00  0.00000000000E+00  0.29559177177E+03  0.29559177177E+03  0.00000000000E+00 0. -1.
          1   -1    0    0  501    0 -0.00000000000E+00 -0.00000000000E+00 -0.14392341918E+04  0.14392341918E+04  0.00000000000E+00 0. -1.
         25    2    1    2    0    0  0.10239469915E+03 -0.30070731872E+01  0.99285333314E+02  0.18967376295E+03  0.12499936814E+03 0.  0.
          2    1    1    2  501    0 -0.74523307729E+02 -0.15308703824E+01 -0.13917146349E+04  0.13937093284E+04  0.00000000000E+00 0. -1.
          1    1    1    2  502    0 -0.27871391424E+02  0.45379435696E+01  0.14878688163E+03  0.15144287219E+03  0.00000000000E+00 0. -1.
         22    1    3    3    0    0  0.86676754305E+02 -0.44124099083E+02  0.10741970125E+03  0.14490958586E+03  0.00000000000E+00 0. -1.
         22    1    3    3    0    0  0.15717944849E+02  0.41117025895E+02 -0.81343679359E+01  0.44764177089E+02  0.00000000000E+00 0. -1.
</event>
<event>
 7    1  0.6152634E-006  0.7299059E+02  0.7818608E-02  0.1420428E+00
          2   -1    0    0  502    0  0.00000000000E+00  0.00000000000E+00  0.14033551969E+04  0.14033551969E+04  0.00000000000E+00 0. -1.
          1   -1    0    0  501    0 -0.00000000000E+00 -0.00000000000E+00 -0.11963265778E+03  0.11963265778E+03  0.00000000000E+00 0. -1.
         25    2    1    2    0    0 -0.20698855982E+02  0.24801135259E+02  0.78738396801E+03  0.79789845249E+03  0.12499955379E+03 0.  0.
          2    1    1    2  501    0  0.49242719456E+02 -0.54703668541E+02 -0.10174648038E+03  0.12557739861E+03  0.00000000000E+00 0. -1.
          1    1    1    2  502    0 -0.28543863473E+02  0.29902533282E+02  0.59808505149E+03  0.59951200360E+03  0.00000000000E+00 0. -1.
         22    1    3    3    0    0 -0.47729529837E+02 -0.34514212369E+02  0.26523101399E+03  0.27169252779E+03  0.00000000000E+00 0. -1.
         22    1    3    3    0    0  0.27030673854E+02  0.59315347628E+02  0.52215295402E+03  0.52620592469E+03  0.00000000000E+00 0. -1.
</event>
<event>
 7    1  0.6152634E-006  0.1668596E+03  0.7818608E-02  0.1194331E+00
          2   -1    0    0  502    0  0.00000000000E+00  0.00000000000E+00  0.14845067932E+04  0.14845067932E+04  0.00000000000E+00 0. -1.
          1   -1    0    0  501    0 -0.00000000000E+00 -0.00000000000E+00 -0.57621987459E+03  0.57621987459E+03  0.00000000000E+00 0. -1.
         25    2    1    2    0    0 -0.16403360734E+03 -0.24847538199E+03  0.52191188757E+02  0.32710256518E+03  0.12500051269E+03 0.  0.
          2    1    1    2  501    0  0.10533583393E+03  0.11677578351E+03 -0.42048206958E+03  0.44892916185E+03  0.00000000000E+00 0. -1.
          1    1    1    2  502    0  0.58697773404E+02  0.13169959849E+03  0.12765777995E+04  0.12846949408E+04  0.00000000000E+00 0. -1.
         22    1    3    3    0    0 -0.16220528293E+03 -0.14226002638E+03  0.23252275706E+02  0.21700031622E+03  0.00000000000E+00 0. -1.
         22    1    3    3    0    0 -0.18283244119E+01 -0.10621535561E+03  0.28938913051E+02  0.11010224896E+03  0.00000000000E+00 0. -1.
</event>
<event>
 7    1  0.6152634E-006  0.9787113E+02  0.7818608E-02  0.1321975E+00
          2   -1    0    0  502    0  0.00000000000E+00  0.00000000000E+00  0.54682310167E+03  0.54682310167E+03  0.00000000000E+00 0. -1.
          1   -1    0    0  501    0 -0.00000000000E+00 -0.00000000000E+00 -0.13187603686E+03  0.13187603686E+03  0.00000000000E+00 0. -1.
         25    2    1    2    0    0  0.91055239173E+02 -0.77747968720E+02  0.85869478626E+01  0.17330861748E+03  0.12500535187E+03 0.  0.
          2    1    1    2  501    0  0.63775642671E+01  0.69329737314E+02 -0.16348864041E+02  0.71516230028E+02  0.00000000000E+00 0. -1.
          1    1    1    2  502    0 -0.97432803440E+02  0.84182314058E+01  0.42270898099E+03  0.43387429103E+03  0.00000000000E+00 0. -1.
         22    1    3    3    0    0  0.87054244880E+02  0.55473589849E+01  0.18980898220E+02  0.89271995836E+02  0.00000000000E+00 0. -1.
         22    1    3    3    0    0  0.40009942931E+01 -0.83295327704E+02 -0.10393950357E+02  0.84036621640E+02  0.00000000000E+00 0. -1.
</event>
<event>
 7    1  0.6152634E-006  0.8691640E+02  0.7818608E-02  0.1323012E+00
          2   -1    0    0  502    0  0.00000000000E+00  0.00000000000E+00  0.37038889572E+03  0.37038889572E+03  0.00000000000E+00 0. -1.
          1   -1    0    0  501    0 -0.00000000000E+00 -0.00000000000E+00 -0.37051764527E+04  0.37051764527E+04  0.00000000000E+00 0. -1.
         25    2    1    2    0    0 -0.73993062412E+02 -0.44881754218E+02 -0.12446823756E+02  0.15254387269E+03  0.12500145810E+03 0.  0.
          2    1    1    2  501    0  0.63970182758E+02 -0.44062758585E+02 -0.36155859216E+04  0.36164202282E+04  0.00000000000E+00 0. -1.
          1    1    1    2  502    0  0.10022879654E+02  0.88944512804E+02  0.29324518835E+03  0.30660124749E+03  0.00000000000E+00 0. -1.
         22    1    3    3    0    0 -0.92589364135E+02 -0.53057229225E+01 -0.39848953914E+02  0.10093998303E+03  0.00000000000E+00 0. -1.
         22    1    3    3    0    0  0.18596301723E+02 -0.39576031296E+02  0.27402130158E+02  0.51603889661E+02  0.00000000000E+00 0. -1.
</event>
<event>
 7    1  0.6152634E-006  0.1462810E+03  0.7818608E-02  0.1375246E+00
          2   -1    0    0  502    0  0.00000000000E+00  0.00000000000E+00  0.74256984714E+03  0.74256984714E+03  0.00000000000E+00 0. -1.
          1   -1    0    0  501    0 -0.00000000000E+00 -0.00000000000E+00 -0.74472245822E+03  0.74472245822E+03  0.00000000000E+00 0. -1.
         25    2    1    2    0    0 -0.45550298578E+02  0.11331109047E+03 -0.63034140137E+02  0.18577171485E+03  0.12499437704E+03 0.  0.
          2    1    1    2  501    0  0.45415472070E+02 -0.14284592962E+03 -0.61093551566E+03  0.62905463118E+03  0.00000000000E+00 0. -1.
          1    1    1    2  502    0  0.13482650749E+00  0.29534839153E+02  0.67181704471E+03  0.67246595934E+03  0.00000000000E+00 0. -1.
         22    1    3    3    0    0 -0.54111296568E+02 -0.47392026276E+01 -0.33372929611E+02  0.63751430483E+02  0.00000000000E+00 0. -1.
         22    1    3    3    0    0  0.85609979906E+01  0.11805029310E+03 -0.29661210526E+02  0.12202028437E+03  0.00000000000E+00 0. -1.
</event>
<event>
 7    1  0.6152634E-006  0.8525773E+02  0.7818608E-02  0.1370008E+00
          2   -1    0    0  502    0  0.00000000000E+00  0.00000000000E+00  0.66823631847E+03  0.66823631847E+03  0.00000000000E+00 0. -1.
          1   -1    0    0  501    0 -0.00000000000E+00 -0.00000000000E+00 -0.69717452624E+03  0.69717452624E+03  0.00000000000E+00 0. -1.
         25    2    1    2    0    0 -0.89925887150E+02 -0.53778582920E+02 -0.28250646003E+03  0.32621102515E+03  0.12499972723E+03 0.  0.
          2    1    1    2  501    0  0.48664093660E+02 -0.20771305758E+02 -0.38820530977E+03  0.39179459374E+03  0.00000000000E+00 0. -1.
          1    1    1    2  502    0  0.41261793490E+02  0.74549888678E+02  0.64177356202E+03  0.64740522582E+03  0.00000000000E+00 0. -1.
         22    1    3    3    0    0 -0.34767059817E+02 -0.69997769312E+02 -0.66296734283E+02  0.10248752672E+03  0.00000000000E+00 0. -1.
         22    1    3    3    0    0 -0.55158827333E+02  0.16219186392E+02 -0.21620972575E+03  0.22372349842E+03  0.00000000000E+00 0. -1.
</event>
<event>
 7    1  0.6152634E-006  0.6303901E+02  0.7818608E-02  0.1437106E+00
          2   -1    0    0  502    0  0.00000000000E+00  0.00000000000E+00  0.89746477383E+02  0.89746477383E+02  0.00000000000E+00 0. -1.
          1   -1    0    0  501    0 -0.00000000000E+00 -0.00000000000E+00 -0.13439441779E+04  0.13439441779E+04  0.00000000000E+00 0. -1.
         25    2    1    2    0    0 -0.27771366968E+02  0.17321551548E+02 -0.38564599612E+03  0.40671752562E+03  0.12500010540E+03 0.  0.
          2    1    1    2  501    0  0.30931794561E+02 -0.59373604687E+02 -0.94087468060E+03  0.94325350009E+03  0.00000000000E+00 0. -1.
          1    1    1    2  502    0 -0.31604275928E+01  0.42052053138E+02  0.72322976244E+02  0.83719629529E+02  0.00000000000E+00 0. -1.
         22    1    3    3    0    0 -0.29293896282E+02  0.46747764352E+02 -0.36854052914E+03  0.37264675961E+03  0.00000000000E+00 0.  1.
         22    1    3    3    0    0  0.15225293137E+01 -0.29426212804E+02 -0.17105466976E+02  0.34070766002E+02  0.00000000000E+00 0.  1.
</event>
<event>
 7    1  0.6152634E-006  0.6799290E+02  0.7818608E-02  0.1414797E+00
          2   -1    0    0  502    0  0.00000000000E+00  0.00000000000E+00  0.44080013030E+03  0.44080013030E+03  0.00000000000E+00 0. -1.
          1   -1    0    0  501    0 -0.00000000000E+00 -0.00000000000E+00 -0.53783630477E+03  0.53783630477E+03  0.00000000000E+00 0. -1.
         25    2    1    2    0    0 -0.47575382980E+02 -0.99553093559E+02 -0.34075441741E+03  0.37935845552E+03  0.12500011715E+03 0.  0.
          2    1    1    2  501    0  0.62782641478E+01  0.45921200103E+02 -0.17197427814E+03  0.17811043081E+03  0.00000000000E+00 0. -1.
          1    1    1    2  502    0  0.41297118832E+02  0.53631893456E+02  0.41569252109E+03  0.42116754874E+03  0.00000000000E+00 0. -1.
         22    1    3    3    0    0 -0.77042597265E+01 -0.55055364552E+01 -0.22410302304E+03  0.22430299036E+03  0.00000000000E+00 0.  1.
         22    1    3    3    0    0 -0.39871123253E+02 -0.94047557104E+02 -0.11665139437E+03  0.15505546516E+03  0.00000000000E+00 0.  1.
</event>
<event>
 7    1  0.6152634E-006  0.7341937E+02  0.7818608E-02  0.1363813E+00
          2   -1    0    0  502    0  0.00000000000E+00  0.00000000000E+00  0.27182692508E+02  0.27182692508E+02  0.00000000000E+00 0. -1.
          1   -1    0    0  501    0 -0.00000000000E+00 -0.00000000000E+00 -0.86764651539E+03  0.86764651539E+03  0.00000000000E+00 0. -1.
         25    2    1    2    0    0 -0.60051438991E+02  0.22023992275E+02 -0.48083604761E+03  0.50091910581E+03  0.12500165728E+03 0.  0.
          2    1    1    2  501    0 -0.17356433427E+02 -0.62320162136E+02 -0.92413312722E+02  0.11280633297E+03  0.00000000000E+00 0. -1.
          1    1    1    2  502    0  0.77407872418E+02  0.40296169861E+02 -0.26721446255E+03  0.28110376912E+03  0.00000000000E+00 0. -1.
         22    1    3    3    0    0 -0.91196704240E+02  0.41032481867E+02 -0.39857627711E+03  0.41093010611E+03  0.00000000000E+00 0. -1.
         22    1    3    3    0    0  0.31145265249E+02 -0.19008489592E+02 -0.82259770504E+02  0.89988999702E+02  0.00000000000E+00 0. -1.
</event>
<event>
 7    1  0.6152634E-006  0.5441877E+02  0.7818608E-02  0.1520073E+00
          2   -1    0    0  502    0  0.00000000000E+00  0.00000000000E+00  0.67892417604E+03  0.67892417604E+03  0.00000000000E+00 0. -1.
          1   -1    0    0  501    0 -0.00000000000E+00 -0.00000000000E+00 -0.47097439419E+02  0.47097439419E+02  0.00000000000E+00 0. -1.
         25    2    1    2    0    0 -0.26521282726E+02 -0.46792232420E+02  0.41573498870E+03  0.43744512877E+03  0.12501907214E+03 0.  0.
          2    1    1    2  501    0  0.46690666619E+02  0.28628523114E+02 -0.14289259382E+02  0.56602063732E+02  0.00000000000E+00 0. -1.
          1    1    1    2  502    0 -0.20169383893E+02  0.18163709306E+02  0.23038100730E+03  0.23197442296E+03  0.00000000000E+00 0. -1.
         22    1    3    3    0    0 -0.51575427231E+02  0.26238921001E+02  0.15205712005E+03  0.16269564662E+03  0.00000000000E+00 0.  1.
         22    1    3    3    0    0  0.25054144505E+02 -0.73031153422E+02  0.26367786865E+03  0.27474948215E+03  0.00000000000E+00 0.  1.
</event>
<event>
 7    1  0.6152634E-006  0.1947296E+03  0.7818608E-02  0.1317107E+00
          2   -1    0    0  502    0  0.00000000000E+00  0.00000000000E+00  0.92130732143E+03  0.92130732143E+03  0.00000000000E+00 0. -1.
          1   -1    0    0  501    0 -0.00000000000E+00 -0.00000000000E+00 -0.80913588513E+02  0.80913588513E+02  0.00000000000E+00 0. -1.
         25    2    1    2    0    0 -0.20485697713E+03 -0.55229335772E+01  0.48421208752E+03  0.54044373854E+03  0.12498481890E+03 0.  0.
          2    1    1    2  501    0  0.18774488910E+02  0.31357987498E+02 -0.19730494676E+02  0.41534289857E+02  0.00000000000E+00 0. -1.
          1    1    1    2  502    0  0.18608248822E+03 -0.25835053921E+02  0.37591214007E+03  0.42024288154E+03  0.00000000000E+00 0. -1.
         22    1    3    3    0    0 -0.74313938877E+02  0.51355667699E+02  0.12659315401E+03  0.15551782136E+03  0.00000000000E+00 0.  1.
         22    1    3    3    0    0 -0.13054303825E+03 -0.56878601276E+02  0.35761893350E+03  0.38492591718E+03  0.00000000000E+00 0.  1.
</event>
<event>
 7    1  0.6152634E-006  0.6540799E+02  0.7818608E-02  0.1389960E+00
          2   -1    0    0  502    0  0.00000000000E+00  0.00000000000E+00  0.95431115357E+03  0.95431115357E+03  0.00000000000E+00 0. -1.
          1   -1    0    0  501    0 -0.00000000000E+00 -0.00000000000E+00 -0.24142715351E+03  0.24142715351E+03  0.00000000000E+00 0. -1.
         25    2    1    2    0    0  0.50448964069E+02 -0.58207650029E+02  0.16027153012E+03  0.21735529174E+03  0.12499252372E+03 0.  0.
          2    1    1    2  501    0  0.77319815261E+01  0.65300151176E+02 -0.20665100464E+03  0.21686062575E+03  0.00000000000E+00 0. -1.
          1    1    1    2  502    0 -0.58180945595E+02 -0.70925011472E+01  0.75926347458E+03  0.76152238958E+03  0.00000000000E+00 0. -1.
         22    1    3    3    0    0 -0.94662071717E+01 -0.60920429801E+01  0.13287755628E+03  0.13335354149E+03  0.00000000000E+00 0. -1.
         22    1    3    3    0    0  0.59915171241E+02 -0.52115607049E+02  0.27393973844E+02  0.84001750254E+02  0.00000000000E+00 0. -1.
</event>
<event>
 7    1  0.6152634E-006  0.1874929E+03  0.7818608E-02  0.1185670E+00
          2   -1    0    0  502    0  0.00000000000E+00  0.00000000000E+00  0.91342373954E+03  0.91342373954E+03  0.00000000000E+00 0. -1.
          1   -1    0    0  501    0 -0.00000000000E+00 -0.00000000000E+00 -0.11438446652E+04  0.11438446652E+04  0.00000000000E+00 0. -1.
         25    2    1    2    0    0 -0.25634115439E+02  0.28557193718E+03 -0.13779158227E+03  0.34178951511E+03  0.12500045325E+03 0.  0.
          2    1    1    2  501    0 -0.65121726593E+02 -0.12529109546E+03 -0.88795033957E+03  0.89910761504E+03  0.00000000000E+00 0. -1.
          1    1    1    2  502    0  0.90755842033E+02 -0.16028084173E+03  0.79532099616E+03  0.81637127462E+03  0.00000000000E+00 0. -1.
         22    1    3    3    0    0  0.57519437931E+01  0.27418518699E+03 -0.10137114688E+03  0.29238110582E+03  0.00000000000E+00 0.  1.
         22    1    3    3    0    0 -0.31386059233E+02  0.11386750193E+02 -0.36420435387E+02  0.49408409283E+02  0.00000000000E+00 0.  1.
</event>
<event>
 7    1  0.6152634E-006  0.4444818E+02  0.7818608E-02  0.1482475E+00
          2   -1    0    0  502    0  0.00000000000E+00  0.00000000000E+00  0.60931462238E+03  0.60931462238E+03  0.00000000000E+00 0. -1.
          1   -1    0    0  501    0 -0.00000000000E+00 -0.00000000000E+00 -0.19261804372E+03  0.19261804372E+03  0.00000000000E+00 0. -1.
         25    2    1    2    0    0 -0.52454476927E+02 -0.42258396923E+02  0.72837891259E+02  0.15958972131E+03  0.12500510583E+03 0.  0.
          2    1    1    2  501    0  0.44204272434E+02  0.47624842771E-01 -0.14500389573E+03  0.15159205041E+03  0.00000000000E+00 0. -1.
          1    1    1    2  502    0  0.82502044927E+01  0.42210772080E+02  0.48886258313E+03  0.49075089438E+03  0.00000000000E+00 0. -1.
         22    1    3    3    0    0  0.10933861215E+02 -0.47036522050E+01 -0.30463045619E+02  0.32705822319E+02  0.00000000000E+00 0.  1.
         22    1    3    3    0    0 -0.63388338142E+02 -0.37554744718E+02  0.10330093688E+03  0.12688389899E+03  0.00000000000E+00 0.  1.
</event>
<event>
 7    1  0.6152634E-006  0.9465212E+02  0.7818608E-02  0.1334197E+00
          2   -1    0    0  502    0  0.00000000000E+00  0.00000000000E+00  0.24359819425E+03  0.24359819425E+03  0.00000000000E+00 0. -1.
          1   -1    0    0  501    0 -0.00000000000E+00 -0.00000000000E+00 -0.29845438833E+04  0.29845438833E+04  0.00000000000E+00 0. -1.
         25    2    1    2    0    0 -0.14114974609E+02 -0.13507033958E+03 -0.12389189898E+04  0.12525931377E+04  0.12500430469E+03 0.  0.
          2    1    1    2  501    0  0.43902601098E+02  0.77712968551E+02 -0.17332072054E+04  0.17355039501E+04  0.00000000000E+00 0. -1.
          1    1    1    2  502    0 -0.29787626489E+02  0.57357371025E+02  0.23118050614E+03  0.24004498978E+03  0.00000000000E+00 0. -1.
         22    1    3    3    0    0 -0.10459047237E+02 -0.14626807153E+03 -0.12273618001E+04  0.12360909063E+04  0.00000000000E+00 0.  1.
         22    1    3    3    0    0 -0.36559273720E+01  0.11197731952E+02 -0.11557189698E+02  0.16502231350E+02  0.00000000000E+00 0.  1.
</event>
<event>
 7    1  0.6152634E-006  0.6696829E+02  0.7818608E-02  0.1434626E+00
          2   -1    0    0  502    0  0.00000000000E+00  0.00000000000E+00  0.22787483236E+03  0.22787483236E+03  0.00000000000E+00 0. -1.
          1   -1    0    0  501    0 -0.00000000000E+00 -0.00000000000E+00 -0.24145170106E+03  0.24145170106E+03  0.00000000000E+00 0. -1.
         25    2    1    2    0    0 -0.44061223967E+02 -0.10575839859E+02 -0.88924460140E+02  0.15995628734E+03  0.12500085761E+03 0.  0.
          2    1    1    2  501    0 -0.15891456971E+01 -0.40412050059E+02 -0.10711464525E+03  0.11449544271E+03  0.00000000000E+00 0. -1.
          1    1    1    2  502    0  0.45650369664E+02  0.50987889918E+02  0.18246223669E+03  0.19487480337E+03  0.00000000000E+00 0. -1.
         22    1    3    3    0    0  0.22782761106E+01  0.52438429676E+02 -0.50390089668E+02  0.72760845141E+02  0.00000000000E+00 0.  1.
         22    1    3    3    0    0 -0.46339500078E+02 -0.63014269535E+02 -0.38534370472E+02  0.87195442199E+02  0.00000000000E+00 0.  1.
</event>
<event>
 7    1  0.6152634E-006  0.4937902E+02  0.7818608E-02  0.1462607E+00
          2   -1    0    0  502    0  0.00000000000E+00  0.00000000000E+00  0.85068821580E+03  0.85068821580E+03  0.00000000000E+00 0. -1.
          1   -1    0    0  501    0 -0.00000000000E+00 -0.00000000000E+00 -0.10833817736E+04  0.10833817736E+04  0.00000000000E+00 0. -1.
         25    2    1    2    0    0  0.83627386188E+02  0.23872465508E+02 -0.17500146772E+02  0.15327367745E+03  0.12499252271E+03 0.  0.
          2    1    1    2  501    0 -0.39352179107E+02 -0.29353697640E+02 -0.99675457063E+03  0.99796287888E+03  0.00000000000E+00 0. -1.
          1    1    1    2  502    0 -0.44275207081E+02  0.54812321318E+01  0.78156115956E+03  0.78283343311E+03  0.00000000000E+00 0. -1.
         22    1    3    3    0    0  0.24837770305E+02 -0.28222752759E+02  0.40778804535E+02  0.55464849286E+02  0.00000000000E+00 0.  1.
         22    1    3    3    0    0  0.58789615883E+02  0.52095218268E+02 -0.58278951307E+02  0.97808828168E+02  0.00000000000E+00 0.  1.
</event>
<event>
 7    1  0.6152634E-006  0.8144718E+02  0.7818608E-02  0.1332496E+00
          2   -1    0    0  502    0  0.00000000000E+00  0.00000000000E+00  0.14774580431E+03  0.14774580431E+03  0.00000000000E+00 0. -1.
          1   -1    0    0  501    0 -0.00000000000E+00 -0.00000000000E+00 -0.15273215666E+04  0.15273215666E+04  0.00000000000E+00 0. -1.
         25    2    1    2    0    0  0.73915007145E+02 -0.10167482499E+03 -0.69466836219E+03  0.71693069221E+03  0.12499714270E+03 0.  0.
          2    1    1    2  501    0 -0.72787598323E+02  0.25446946009E+02 -0.80890830489E+03  0.81257505946E+03  0.00000000000E+00 0. -1.
          1    1    1    2  502    0 -0.11274088222E+01  0.76227878983E+02  0.12400090483E+03  0.14556161920E+03  0.00000000000E+00 0. -1.
         22    1    3    3    0    0  0.38184393490E+02 -0.11175944550E+03 -0.33226303788E+03  0.35262862604E+03  0.00000000000E+00 0. -1.
         22    1    3    3    0    0  0.35730613655E+02  0.10084620507E+02 -0.36240532431E+03  0.36430206617E+03  0.00000000000E+00 0. -1.
</event>
<event>
 7    1  0.6152634E-006  0.3748353E+02  0.7818608E-02  0.1549020E+00
          2   -1    0    0  502    0  0.00000000000E+00  0.00000000000E+00  0.12797702084E+04  0.12797702084E+04  0.00000000000E+00 0. -1.
          1   -1    0    0  501    0 -0.00000000000E+00 -0.00000000000E+00 -0.13800982108E+03  0.13800982108E+03  0.00000000000E+00 0. -1.
         25    2    1    2    0    0 -0.50131400274E+02  0.44381371785E+02  0.80105954984E+03  0.81351342613E+03  0.12499931456E+03 0.  0.
          2    1    1    2  501    0  0.25783686379E+02 -0.19937298959E+02 -0.12912539407E+03  0.13317530464E+03  0.00000000000E+00 0. -1.
          1    1    1    2  502    0  0.24347713895E+02 -0.24444072826E+02  0.46982623151E+03  0.47109129867E+03  0.00000000000E+00 0. -1.
         22    1    3    3    0    0  0.26146231157E+02  0.51981669928E+02  0.47571522568E+03  0.47926057146E+03  0.00000000000E+00 0. -1.
         22    1    3    3    0    0 -0.76277631432E+02 -0.76002981426E+01  0.32534432417E+03  0.33425285467E+03  0.00000000000E+00 0. -1.
</event>
<event>
 7    1  0.6152634E-006  0.1302375E+03  0.7818608E-02  0.1358240E+00
          2   -1    0    0  502    0  0.00000000000E+00  0.00000000000E+00  0.83010181631E+03  0.83010181631E+03  0.00000000000E+00 0. -1.
          1   -1    0    0  501    0 -0.00000000000E+00 -0.00000000000E+00 -0.10188823392E+04  0.10188823392E+04  0.00000000000E+00 0. -1.
         25    2    1    2    0    0 -0.10753742007E+03 -0.10956707129E+03 -0.39612805451E+03  0.44284476971E+03  0.12499925865E+03 0.  0.
          2    1    1    2  501    0  0.38212682405E+02 -0.39362258507E+00 -0.59354120566E+03  0.59477014624E+03  0.00000000000E+00 0. -1.
          1    1    1    2  502    0  0.69324737665E+02  0.10996069388E+03  0.80088873727E+03  0.81136923958E+03  0.00000000000E+00 0. -1.
         22    1    3    3    0    0 -0.90856107099E+02 -0.61709793020E+02 -0.12235108471E+03  0.16441629688E+03  0.00000000000E+00 0. -1.
         22    1    3    3    0    0 -0.16681312971E+02 -0.47857278272E+02 -0.27377696980E+03  0.27842847282E+03  0.00000000000E+00 0. -1.
</event>
<event>
 7    1  0.6152634E-006  0.9099393E+02  0.7818608E-02  0.1478715E+00
          2   -1    0    0  502    0  0.00000000000E+00  0.00000000000E+00  0.16635895930E+04  0.16635895930E+04  0.00000000000E+00 0. -1.
          1   -1    0    0  501    0 -0.00000000000E+00 -0.00000000000E+00 -0.46086939588E+03  0.46086939588E+03  0.00000000000E+00 0. -1.
         25    2    1    2    0    0  0.83474571886E+02 -0.73219606001E+02  0.10011840581E+04  0.10150491477E+04  0.12500455666E+03 0.  0.
          2    1    1    2  501    0 -0.63512146557E+02  0.65037746359E+02 -0.44920516599E+03  0.45831101052E+03  0.00000000000E+00 0. -1.
          1    1    1    2  502    0 -0.19962425329E+02  0.81818596423E+01  0.65074130495E+03  0.65109883061E+03  0.00000000000E+00 0. -1.
         22    1    3    3    0    0  0.69105682443E+01 -0.36838251651E+02  0.64975999283E+02  0.75011287291E+02  0.00000000000E+00 0. -1.
         22    1    3    3    0    0  0.76564003642E+02 -0.36381354350E+02  0.93620805884E+03  0.94003786043E+03  0.00000000000E+00 0. -1.
</event>
<event>
 7    1  0.6152634E-006  0.7954256E+02  0.7818608E-02  0.1462324E+00
          2   -1    0    0  502    0  0.00000000000E+00  0.00000000000E+00  0.27615281143E+03  0.27615281143E+03  0.00000000000E+00 0. -1.
          1   -1    0    0  501    0 -0.00000000000E+00 -0.00000000000E+00 -0.21036030970E+03  0.21036030970E+03  0.00000000000E+00 0. -1.
         25    2    1    2    0    0 -0.27004358296E+01 -0.58390604984E+02  0.28574410834E+02  0.14092698883E+03  0.12500865618E+03 0.  0.
          2    1    1    2  501    0  0.14067497040E+02 -0.23922621904E+02 -0.14377554116E+03  0.14642947977E+03  0.00000000000E+00 0. -1.
          1    1    1    2  502    0 -0.11367061210E+02  0.82313226888E+02  0.18099363205E+03  0.19915665253E+03  0.00000000000E+00 0. -1.
         22    1    3    3    0    0  0.51624283935E+02 -0.14294342590E+02  0.43949212229E+02  0.69288730523E+02  0.00000000000E+00 0.  1.
         22    1    3    3    0    0 -0.54324719765E+02 -0.44096262395E+02 -0.15374801395E+02  0.71638258303E+02  0.00000000000E+00 0.  1.
</event>
<event>
 7    1  0.6152634E-006  0.1415871E+03  0.7818608E-02  0.1281675E+00
          2   -1    0    0  502    0  0.00000000000E+00  0.00000000000E+00  0.20803282435E+04  0.20803282435E+04  0.00000000000E+00 0. -1.
          1   -1    0    0  501    0 -0.00000000000E+00 -0.00000000000E+00 -0.23160697476E+03  0.23160697476E+03  0.00000000000E+00 0. -1.
         25    2    1    2    0    0 -0.19800253068E+03 -0.70328884088E+02  0.14911822645E+04  0.15110925687E+04  0.12500020506E+03 0.  0.
          2    1    1    2  501    0  0.13364849714E+03  0.43536100327E+02 -0.19696382318E+03  0.24197533028E+03  0.00000000000E+00 0. -1.
          1    1    1    2  502    0  0.64354033535E+02  0.26792783760E+02  0.55450282738E+03  0.55886731920E+03  0.00000000000E+00 0. -1.
         22    1    3    3    0    0 -0.33521334957E+02 -0.72178334474E+02  0.52848822006E+03  0.53444662092E+03  0.00000000000E+00 0.  1.
         22    1    3    3    0    0 -0.16448119572E+03  0.18494503860E+01  0.96269404443E+03  0.97664594782E+03  0.00000000000E+00 0.  1.
</event>
<event>
 7    1  0.6152634E-006  0.1053110E+03  0.7818608E-02  0.1277596E+00
          2   -1    0    0  502    0  0.00000000000E+00  0.00000000000E+00  0.45299684382E+03  0.45299684382E+03  0.00000000000E+00 0. -1.
          1   -1    0    0  501    0 -0.00000000000E+00 -0.00000000000E+00 -0.83552735286E+03  0.83552735286E+03  0.00000000000E+00 0. -1.
         25    2    1    2    0    0  0.34664905005E+02 -0.95824977772E+01  0.59711440157E+02  0.14310443627E+03  0.12497977313E+03 0.  0.
          2    1    1    2  501    0  0.42574626232E+02  0.96321423537E+02 -0.78060569111E+03  0.78767738346E+03  0.00000000000E+00 0. -1.
          1    1    1    2  502    0 -0.77239531237E+02 -0.86738925760E+02  0.33836374190E+03  0.35774237695E+03  0.00000000000E+00 0. -1.
         22    1    3    3    0    0  0.60831831748E+02  0.32719823211E+02  0.62682058283E+02  0.93274535728E+02  0.00000000000E+00 0.  1.
         22    1    3    3    0    0 -0.26166926743E+02 -0.42302320988E+02 -0.29706181252E+01  0.49829900544E+02  0.00000000000E+00 0.  1.
</event>
<event>
 7    1  0.7229815E-006  0.4834340E+02  0.7818608E-02  0.1474050E+00
          2   -1    0    0  502    0  0.00000000000E+00  0.00000000000E+00  0.90162080527E+03  0.90162080527E+03  0.00000000000E+00 0. -1.
          1   -1    0    0  501    0 -0.00000000000E+00 -0.00000000000E+00 -0.85290652890E+03  0.85290652890E+03  0.00000000000E+00 0. -1.
         25    2    1    2    0    0 -0.17487967447E+02  0.19102771587E+02 -0.22948056307E+03  0.26259501959E+03  0.12499628233E+03 0.  0.
          2    1    1    2  501    0 -0.29810744776E+02 -0.29550069989E+02 -0.60547883521E+03  0.60693204482E+03  0.00000000000E+00 0. -1.
          1    1    1    2  502    0  0.47298712223E+02  0.10447298401E+02  0.88367367465E+03  0.88500026977E+03  0.00000000000E+00 0. -1.
         22    1    3    3    0    0 -0.36751296079E+02 -0.38789850618E+02 -0.50584244272E+02  0.73580405292E+02  0.00000000000E+00 0. -1.
         22    1    3    3    0    0  0.19263328631E+02  0.57892622206E+02 -0.17889631880E+03  0.18901461429E+03  0.00000000000E+00 0. -1.
</event>
<event>
 7    1  0.6152634E-006  0.4874476E+02  0.7818608E-02  0.1534770E+00
          2   -1    0    0  502    0  0.00000000000E+00  0.00000000000E+00  0.68013272216E+03  0.68013272216E+03  0.00000000000E+00 0. -1.
          1   -1    0    0  501    0 -0.00000000000E+00 -0.00000000000E+00 -0.21418250798E+04  0.21418250798E+04  0.00000000000E+00 0. -1.
         25    2    1    2    0    0  0.29707898844E+02  0.63716724810E+02  0.39803296987E+03  0.42308083511E+03  0.12499907063E+03 0.  0.
          2    1    1    2  501    0 -0.69935815547E+01 -0.48227703777E+02 -0.21283205405E+04  0.21288783772E+04  0.00000000000E+00 0. -1.
          1    1    1    2  502    0 -0.22714317290E+02 -0.15489021033E+02  0.26859521300E+03  0.26999858968E+03  0.00000000000E+00 0. -1.
         22    1    3    3    0    0  0.32848390918E+02 -0.11494926088E+02  0.25824717926E+02  0.43336660781E+02  0.00000000000E+00 0. -1.
         22    1    3    3    0    0 -0.31404920738E+01  0.75211650898E+02  0.37220825194E+03  0.37974417432E+03  0.00000000000E+00 0. -1.
</event>
<event>
 7    1  0.6152634E-006  0.6050895E+02  0.7818608E-02  0.1461701E+00
          2   -1    0    0  502    0  0.00000000000E+00  0.00000000000E+00  0.16008107852E+04  0.16008107852E+04  0.00000000000E+00 0. -1.
          1   -1    0    0  501    0 -0.00000000000E+00 -0.00000000000E+00 -0.32888559713E+02  0.32888559713E+02  0.00000000000E+00 0. -1.
         25    2    1    2    0    0 -0.12813268803E+02  0.24320126176E+02  0.41321071370E+03  0.43257773710E+03  0.12499902526E+03 0.  0.
          2    1    1    2  501    0 -0.72526907119E+01  0.35921935551E+02 -0.73081952089E+01  0.37368391637E+02  0.00000000000E+00 0. -1.
          1    1    1    2  502    0  0.20065959515E+02 -0.60242061727E+02  0.11620197070E+04  0.11637532162E+04  0.00000000000E+00 0. -1.
         22    1    3    3    0    0  0.20249167938E+02 -0.44770449552E+02  0.20254590727E+03  0.20842088788E+03  0.00000000000E+00 0. -1.
         22    1    3    3    0    0 -0.33062436741E+02  0.69090575727E+02  0.21066480644E+03  0.22415684921E+03  0.00000000000E+00 0. -1.
</event>
<event>
 7    1  0.6152634E-006  0.1079966E+03  0.7818608E-02  0.1395465E+00
          2   -1    0    0  502    0  0.00000000000E+00  0.00000000000E+00  0.10724371579E+04  0.10724371579E+04  0.00000000000E+00 0. -1.
          1   -1    0    0  501    0 -0.00000000000E+00 -0.00000000000E+00 -0.57758934478E+02  0.57758934478E+02  0.00000000000E+00 0. -1.
         25    2    1    2    0    0  0.43157772144E+01 -0.13786844742E+03  0.79781050026E+03  0.81923932793E+03  0.12500058945E+03 0.  0.
          2    1    1    2  501    0 -0.12829430414E+02  0.10498446368E+03  0.15679780873E+02  0.10692140772E+03  0.00000000000E+00 0. -1.
          1    1    1    2  502    0  0.85136531999E+01  0.32883983741E+02  0.20118794230E+03  0.20403535675E+03  0.00000000000E+00 0. -1.
         22    1    3    3    0    0 -0.14121673490E+02 -0.79178890403E+02  0.16617739643E+03  0.18461756534E+03  0.00000000000E+00 0.  1.
         22    1    3    3    0    0  0.18437450704E+02 -0.58689557021E+02  0.63163310383E+03  0.63462176258E+03  0.00000000000E+00 0.  1.
</event>
<event>
 7    1  0.6152634E-006  0.5686815E+02  0.7818608E-02  0.1432548E+00
          2   -1    0    0  502    0  0.00000000000E+00  0.00000000000E+00  0.23699186166E+03  0.23699186166E+03  0.00000000000E+00 0. -1.
          1   -1    0    0  501    0 -0.00000000000E+00 -0.00000000000E+00 -0.43040328704E+03  0.43040328704E+03  0.00000000000E+00 0. -1.
         25    2    1    2    0    0  0.26626263411E+01 -0.10379840989E+02  0.33772488162E+02  0.12995495955E+03  0.12503151554E+03 0.  0.
          2    1    1    2  501    0 -0.34485348809E+02  0.46818815408E+02 -0.37625169307E+03  0.38071850139E+03  0.00000000000E+00 0. -1.
          1    1    1    2  502    0  0.31822722468E+02 -0.36438974418E+02  0.14906777953E+03  0.15672168777E+03  0.00000000000E+00 0. -1.
         22    1    3    3    0    0  0.45252379617E+01  0.18525757498E+02 -0.43465091200E+02  0.47464677630E+02  0.00000000000E+00 0.  1.
         22    1    3    3    0    0 -0.18626116206E+01 -0.28905598488E+02  0.77237579362E+02  0.82490281923E+02  0.00000000000E+00 0.  1.
</event>
<event>
 7    1  0.6152634E-006  0.1541090E+03  0.7818608E-02  0.1210483E+00
          2   -1    0    0  502    0  0.00000000000E+00  0.00000000000E+00  0.41397258192E+03  0.41397258192E+03  0.00000000000E+00 0. -1.
          1   -1    0    0  501    0 -0.00000000000E+00 -0.00000000000E+00 -0.10549215388E+04  0.10549215388E+04  0.00000000000E+00 0. -1.
         25    2    1    2    0    0 -0.32657636373E+01 -0.12905186376E+03 -0.89906314553E+02  0.20093411055E+03  0.12500529043E+03 0.  0.
          2    1    1    2  501    0 -0.12555337723E+03  0.10473577257E+03 -0.88981262755E+03  0.90470975718E+03  0.00000000000E+00 0. -1.
          1    1    1    2  502    0  0.12881914086E+03  0.24316091192E+02  0.33876998527E+03  0.36325025295E+03  0.00000000000E+00 0. -1.
         22    1    3    3    0    0 -0.23902568976E+02 -0.18445181967E+02 -0.82870344009E+02  0.88198931159E+02  0.00000000000E+00 0. -1.
         22    1    3    3    0    0  0.20636805338E+02 -0.11060668179E+03 -0.70359705442E+01  0.11273517939E+03  0.00000000000E+00 0. -1.
</event>
<event>
 7    1  0.6152634E-006  0.5071322E+02  0.7818608E-02  0.1443654E+00
          2   -1    0    0  502    0  0.00000000000E+00  0.00000000000E+00  0.71413999477E+03  0.71413999477E+03  0.00000000000E+00 0. -1.
          1   -1    0    0  501    0 -0.00000000000E+00 -0.00000000000E+00 -0.48304959563E+03  0.48304959563E+03  0.00000000000E+00 0. -1.
         25    2    1    2    0    0 -0.38922475882E+02  0.35628323523E+02 -0.74989845494E+01  0.13589046838E+03  0.12500259221E+03 0.  0.
          2    1    1    2  501    0 -0.87269392378E+01 -0.50507262398E+02 -0.40879363885E+03  0.41199439582E+03  0.00000000000E+00 0. -1.
          1    1    1    2  502    0  0.47649415120E+02  0.14878938875E+02  0.64738302255E+03  0.64930472620E+03  0.00000000000E+00 0. -1.
         22    1    3    3    0    0 -0.57326702630E+02 -0.31777304373E+02 -0.78756563277E+01  0.66016466660E+02  0.00000000000E+00 0. -1.
         22    1    3    3    0    0  0.18404226748E+02  0.67405627896E+02  0.37667177826E+00  0.69874001717E+02  0.00000000000E+00 0. -1.
</event>
<event>
 7    1  0.6152634E-006  0.5920161E+02  0.7818608E-02  0.1468330E+00
          2   -1    0    0  502    0  0.00000000000E+00  0.00000000000E+00  0.60541321101E+03  0.60541321101E+03  0.00000000000E+00 0. -1.
          1   -1    0    0  501    0 -0.00000000000E+00 -0.00000000000E+00 -0.12137570147E+04  0.12137570147E+04  0.00000000000E+00 0. -1.
         25    2    1    2    0    0 -0.78880184817E+02  0.45216776616E+02  0.20041932588E+03  0.25310115427E+03  0.12500259063E+03 0.  0.
          2    1    1    2  501    0  0.56484928482E+02 -0.17405528158E+02 -0.11858366041E+04  0.11873087009E+04  0.00000000000E+00 0. -1.
          1    1    1    2  502    0  0.22395256336E+02 -0.27811248458E+02  0.37707347457E+03  0.37876037051E+03  0.00000000000E+00 0. -1.
         22    1    3    3    0    0  0.48298202902E+01 -0.20682242314E+02 -0.48916817042E+01  0.21794743886E+02  0.00000000000E+00 0.  1.
         22    1    3    3    0    0 -0.83710005108E+02  0.65899018930E+02  0.20531100759E+03  0.23130641039E+03  0.00000000000E+00 0.  1.
</event>
<event>
 7    1  0.6152634E-006  0.4678511E+02  0.7818608E-02  0.1538409E+00
          2   -1    0    0  502    0  0.00000000000E+00  0.00000000000E+00  0.30326442698E+03  0.30326442698E+03  0.00000000000E+00 0. -1.
          1   -1    0    0  501    0 -0.00000000000E+00 -0.00000000000E+00 -0.53204108510E+02  0.53204108510E+02  0.00000000000E+00 0. -1.
         25    2    1    2    0    0 -0.63008535195E+01  0.27523590198E+02  0.15393280626E+03  0.20029289486E+03  0.12499874446E+03 0.  0.
          2    1    1    2  501    0 -0.23859119923E+02  0.14598121939E+02 -0.16308944114E+02  0.32378147349E+02  0.00000000000E+00 0. -1.
          1    1    1    2  502    0  0.30159973443E+02 -0.42121712136E+02  0.11243645632E+03  0.12379749328E+03  0.00000000000E+00 0. -1.
         22    1    3    3    0    0  0.61075435462E+00  0.76653989705E+02  0.76274788400E+02  0.10813903321E+03  0.00000000000E+00 0.  1.
         22    1    3    3    0    0 -0.69116078741E+01 -0.49130399507E+02  0.77658017857E+02  0.92153861647E+02  0.00000000000E+00 0.  1.
</event>
<event>
 7    1  0.6152634E-006  0.8844488E+02  0.7818608E-02  0.1389372E+00
          2   -1    0    0  502    0  0.00000000000E+00  0.00000000000E+00  0.35668777438E+04  0.35668777438E+04  0.00000000000E+00 0. -1.
          1   -1    0    0  501    0 -0.00000000000E+00 -0.00000000000E+00 -0.78760430795E+02  0.78760430795E+02  0.00000000000E+00 0. -1.
         25    2    1    2    0    0 -0.25951580012E+02 -0.11798541372E+03  0.58400832711E+03  0.60933054186E+03  0.12499576291E+03 0.  0.
          2    1    1    2  501    0  0.40675479830E+02  0.76999305590E+02 -0.37186213944E+02  0.94690032360E+02  0.00000000000E+00 0. -1.
          1    1    1    2  502    0 -0.14723899817E+02  0.40986108127E+02  0.29412951999E+04  0.29416176004E+04  0.00000000000E+00 0. -1.
         22    1    3    3    0    0  0.43364345037E+02 -0.88474935283E+01  0.16463886215E+03  0.17048372208E+03  0.00000000000E+00 0. -1.
         22    1    3    3    0    0 -0.69315925050E+02 -0.10913792019E+03  0.41936946496E+03  0.43884681978E+03  0.00000000000E+00 0. -1.
</event>
<event>
 7    1  0.6152634E-006  0.6028285E+02  0.7818608E-02  0.1414432E+00
          2   -1    0    0  502    0  0.00000000000E+00  0.00000000000E+00  0.18217239617E+04  0.18217239617E+04  0.00000000000E+00 0. -1.
          1   -1    0    0  501    0 -0.00000000000E+00 -0.00000000000E+00 -0.15916405691E+03  0.15916405691E+03  0.00000000000E+00 0. -1.
         25    2    1    2    0    0 -0.37806015139E+02  0.77629554262E+01  0.12332728048E+04  0.12401921354E+04  0.12500065271E+03 0.  0.
          2    1    1    2  501    0  0.40874586052E+02  0.44571713434E+02 -0.14860048189E+03  0.16043525997E+03  0.00000000000E+00 0. -1.
          1    1    1    2  502    0 -0.30685709120E+01 -0.52334668860E+02  0.57788758187E+03  0.58026062331E+03  0.00000000000E+00 0. -1.
         22    1    3    3    0    0 -0.89503290794E-01 -0.35433720045E+02  0.11239081923E+03  0.11784418855E+03  0.00000000000E+00 0. -1.
         22    1    3    3    0    0 -0.37716511849E+02  0.43196675471E+02  0.11208819856E+04  0.11223479468E+04  0.00000000000E+00 0. -1.
</event>
<event>
 7    1  0.6152634E-006  0.3104346E+02  0.7818608E-02  0.1617541E+00
          2   -1    0    0  502    0  0.00000000000E+00  0.00000000000E+00  0.19989046922E+03  0.19989046922E+03  0.00000000000E+00 0. -1.
          1   -1    0    0  501    0 -0.00000000000E+00 -0.00000000000E+00 -0.30310942368E+03  0.30310942368E+03  0.00000000000E+00 0. -1.
         25    2    1    2    0    0  0.41369263764E+01 -0.11623030411E+02 -0.10434758702E+03  0.16329472816E+03  0.12499816132E+03 0.  0.
          2    1    1    2  501    0 -0.29954917081E+02  0.11920223897E+02 -0.16675740514E+03  0.16984528537E+03  0.00000000000E+00 0. -1.
          1    1    1    2  502    0  0.25817990705E+02 -0.29719348568E+00  0.16788603769E+03  0.16985987937E+03  0.00000000000E+00 0. -1.
         22    1    3    3    0    0  0.40967488224E+02 -0.44071146355E+02 -0.96301496701E+02  0.11355430110E+03  0.00000000000E+00 0.  1.
         22    1    3    3    0    0 -0.36830561847E+02  0.32448115944E+02 -0.80460903168E+01  0.49740427056E+02  0.00000000000E+00 0.  1.
</event>
<event>
 7    1  0.6152634E-006  0.1009230E+03  0.7818608E-02  0.1329303E+00
          2   -1    0    0  502    0  0.00000000000E+00  0.00000000000E+00  0.19035562734E+04  0.19035562734E+04  0.00000000000E+00 0. -1.
          1   -1    0    0  501    0 -0.00000000000E+00 -0.00000000000E+00 -0.12281349661E+04  0.12281349661E+04  0.00000000000E+00 0. -1.
         25    2    1    2    0    0 -0.13699371055E+03  0.63923362297E+02 -0.19710753629E+02  0.19715061312E+03  0.12500550975E+03 0.  0.
          2    1    1    2  501    0  0.98926919321E+02 -0.13381042046E+02 -0.11169259479E+04  0.11213782416E+04  0.00000000000E+00 0. -1.
          1    1    1    2  502    0  0.38066791230E+02 -0.50542320251E+02  0.18120580088E+04  0.18131623849E+04  0.00000000000E+00 0. -1.
         22    1    3    3    0    0  0.22679122061E+02  0.34142578286E+01  0.77381581718E+01  0.24204933916E+02  0.00000000000E+00 0. -1.
         22    1    3    3    0    0 -0.15967283261E+03  0.60509104468E+02 -0.27448911800E+02  0.17294567921E+03  0.00000000000E+00 0. -1.
</event>
<event>
 7    1  0.6152634E-006  0.5334256E+02  0.7818608E-02  0.1430886E+00
          2   -1    0    0  502    0  0.00000000000E+00  0.00000000000E+00  0.15446787901E+04  0.15446787901E+04  0.00000000000E+00 0. -1.
          1   -1    0    0  501    0 -0.00000000000E+00 -0.00000000000E+00 -0.17815672942E+03  0.17815672942E+03  0.00000000000E+00 0. -1.
         25    2    1    2    0    0 -0.27734533302E+02 -0.39193437008E+02  0.45603245008E+03  0.47528449785E+03  0.12499771407E+03 0.  0.
          2    1    1    2  501    0 -0.26051728372E+02  0.46548209623E+02 -0.16360703162E+03  0.17208337853E+03  0.00000000000E+00 0. -1.
          1    1    1    2  502    0  0.53786261674E+02 -0.73547726148E+01  0.10740966422E+04  0.10754676431E+04  0.00000000000E+00 0. -1.
         22    1    3    3    0    0  0.29589558773E+02 -0.57459742572E+01  0.34214157965E+03  0.34346676511E+03  0.00000000000E+00 0.  1.
         22    1    3    3    0    0 -0.57324092074E+02 -0.33447462751E+02  0.11389087044E+03  0.13181773274E+03  0.00000000000E+00 0.  1.
</event>
<event>
 7    1  0.6152634E-006  0.1462126E+03  0.7818608E-02  0.1236802E+00
          2   -1    0    0  502    0  0.00000000000E+00  0.00000000000E+00  0.16653507266E+04  0.16653507266E+04  0.00000000000E+00 0. -1.
          1   -1    0    0  501    0 -0.00000000000E+00 -0.00000000000E+00 -0.18483116725E+04  0.18483116725E+04  0.00000000000E+00 0. -1.
         25    2    1    2    0    0  0.33037899154E+02 -0.45769349196E+02  0.11035758447E+03  0.17604187616E+03  0.12500243839E+03 0.  0.
          2    1    1    2  501    0 -0.13759100424E+03  0.55321399001E+02 -0.18106241384E+04  0.18166869604E+04  0.00000000000E+00 0. -1.
          1    1    1    2  502    0  0.10455310509E+03 -0.95520498055E+01  0.15173056080E+04  0.15209335625E+04  0.00000000000E+00 0. -1.
         22    1    3    3    0    0  0.15398644873E+01 -0.10243954499E+02 -0.27952180634E+02  0.29809967941E+02  0.00000000000E+00 0.  1.
         22    1    3    3    0    0  0.31498034667E+02 -0.35525394696E+02  0.13830976511E+03  0.14623190822E+03  0.00000000000E+00 0.  1.
</event>
<event>
 7    1  0.6152634E-006  0.1030784E+03  0.7818608E-02  0.1317152E+00
          2   -1    0    0  502    0  0.00000000000E+00  0.00000000000E+00  0.61341389933E+03  0.61341389933E+03  0.00000000000E+00 0. -1.
          1   -1    0    0  501    0 -0.00000000000E+00 -0.00000000000E+00 -0.63413330832E+03  0.63413330832E+03  0.00000000000E+00 0. -1.
         25    2    1    2    0    0 -0.10129658439E+03 -0.80563597354E+02  0.37016723631E+02  0.18370148325E+03  0.12499802355E+03 0.  0.
          2    1    1    2  501    0  0.67122189913E+02 -0.16065188390E+02 -0.55340438291E+03  0.55769157218E+03  0.00000000000E+00 0. -1.
          1    1    1    2  502    0  0.34174394477E+02  0.96628785744E+02  0.49566825028E+03  0.50615415222E+03  0.00000000000E+00 0. -1.
         22    1    3    3    0    0 -0.42229585679E+02  0.26348753173E+02 -0.13421476821E+02  0.51553183611E+02  0.00000000000E+00 0. -1.
         22    1    3    3    0    0 -0.59066998711E+02 -0.10691235053E+03  0.50438200452E+02  0.13214829964E+03  0.00000000000E+00 0. -1.
</event>
<event>
 7    1  0.6152634E-006  0.5454043E+02  0.7818608E-02  0.1443094E+00
          2   -1    0    0  502    0  0.00000000000E+00  0.00000000000E+00  0.25311255346E+03  0.25311255346E+03  0.00000000000E+00 0. -1.
          1   -1    0    0  501    0 -0.00000000000E+00 -0.00000000000E+00 -0.15848351686E+03  0.15848351686E+03  0.00000000000E+00 0. -1.
         25    2    1    2    0    0  0.79570098454E+02 -0.32383396580E+02  0.24410161467E+02  0.15362547004E+03  0.12499937647E+03 0.  0.
          2    1    1    2  501    0 -0.33661289763E+02  0.40432439611E+02 -0.82750115074E+02  0.98058381315E+02  0.00000000000E+00 0. -1.
          1    1    1    2  502    0 -0.45908808691E+02 -0.80490430305E+01  0.15296899020E+03  0.15991221896E+03  0.00000000000E+00 0. -1.
         22    1    3    3    0    0  0.23599259958E+01  0.39219208822E+02  0.28027144336E+02  0.48262163347E+02  0.00000000000E+00 0. -1.
         22    1    3    3    0    0  0.77210172458E+02 -0.71602605402E+02 -0.36169828691E+01  0.10536330669E+03  0.00000000000E+00 0. -1.
</event>
<event>
 7    1  0.6152634E-006  0.8837159E+02  0.7818608E-02  0.1348211E+00
          2   -1    0    0  502    0  0.00000000000E+00  0.00000000000E+00  0.28645100890E+03  0.28645100890E+03  0.00000000000E+00 0. -1.
          1   -1    0    0  501    0 -0.00000000000E+00 -0.00000000000E+00 -0.12293724880E+04  0.12293724880E+04  0.00000000000E+00 0. -1.
         25    2    1    2    0    0 -0.55880712940E+02  0.34145087308E+02 -0.78354074358E+02  0.16143374621E+03  0.12503180548E+03 0.  0.
          2    1    1    2  501    0  0.30266690473E+02  0.53334493504E+02 -0.11001135652E+04  0.11018214452E+04  0.00000000000E+00 0. -1.
          1    1    1    2  502    0  0.25614022467E+02 -0.87479580812E+02  0.23554616049E+03  0.25256830547E+03  0.00000000000E+00 0. -1.
         22    1    3    3    0    0  0.32798902122E+02  0.22921381245E+02 -0.56808987172E+02  0.69486824090E+02  0.00000000000E+00 0. -1.
         22    1    3    3    0    0 -0.88679615062E+02  0.11223706063E+02 -0.21545087186E+02  0.91946922119E+02  0.00000000000E+00 0. -1.
</event>
<event>
 7    1  0.6152634E-006  0.1736116E+03  0.7818608E-02  0.1229142E+00
          2   -1    0    0  502    0  0.00000000000E+00  0.00000000000E+00  0.79767423719E+03  0.79767423719E+03  0.00000000000E+00 0. -1.
          1   -1    0    0  501    0 -0.00000000000E+00 -0.00000000000E+00 -0.44016647044E+03  0.44016647044E+03  0.00000000000E+00 0. -1.
         25    2    1    2    0    0  0.95931030095E+01  0.16847557744E+03  0.53391880881E+02  0.21668098634E+03  0.12499563625E+03 0.  0.
          2    1    1    2  501    0 -0.10248654121E+03 -0.14564255002E+03 -0.33261128576E+03  0.37728704049E+03  0.00000000000E+00 0. -1.
          1    1    1    2  502    0  0.92893438198E+02 -0.22833027417E+02  0.63672717163E+03  0.64387268081E+03  0.00000000000E+00 0. -1.
         22    1    3    3    0    0  0.44231029082E+02  0.12437225423E+03 -0.95894639707E+01  0.13235104599E+03  0.00000000000E+00 0.  1.
         22    1    3    3    0    0 -0.34637926072E+02  0.44103323206E+02  0.62981344852E+02  0.84329940352E+02  0.00000000000E+00 0.  1.
</event>
<event>
 7    1  0.6152634E-006  0.1256045E+03  0.7818608E-02  0.1425430E+00
          2   -1    0    0  502    0  0.00000000000E+00  0.00000000000E+00  0.51629516103E+03  0.51629516103E+03  0.00000000000E+00 0. -1.
          1   -1    0    0  501    0 -0.00000000000E+00 -0.00000000000E+00 -0.51110692365E+03  0.51110692365E+03  0.00000000000E+00 0. -1.
         25    2    1    2    0    0 -0.12943415531E+03 -0.44859301288E+02  0.73585795741E+02  0.19951227713E+03  0.12499888766E+03 0.  0.
          2    1    1    2  501    0  0.11057435951E+03  0.58232325143E+02 -0.43906406990E+03  0.45650295744E+03  0.00000000000E+00 0. -1.
          1    1    1    2  502    0  0.18859795797E+02 -0.13373023855E+02  0.37066651154E+03  0.37138685012E+03  0.00000000000E+00 0. -1.
         22    1    3    3    0    0 -0.48344949377E+02 -0.11561650999E+02  0.96812203709E+02  0.10882788563E+03  0.00000000000E+00 0.  1.
         22    1    3    3    0    0 -0.81089205932E+02 -0.33297650290E+02 -0.23226407969E+02  0.90684391494E+02  0.00000000000E+00 0.  1.
</event>
<event>
 7    1  0.6152634E-006  0.5154310E+02  0.7818608E-02  0.1521330E+00
          2   -1    0    0  502    0  0.00000000000E+00  0.00000000000E+00  0.12069336489E+04  0.12069336489E+04  0.00000000000E+00 0. -1.
          1   -1    0    0  501    0 -0.00000000000E+00 -0.00000000000E+00 -0.78111116452E+03  0.78111116452E+03  0.00000000000E+00 0. -1.
         25    2    1    2    0    0 -0.15850351129E+02  0.60594725059E+02  0.21880807354E+03  0.25966376412E+03  0.12500137205E+03 0.  0.
          2    1    1    2  501    0  0.26477154569E+02 -0.10319800506E+02 -0.75973533521E+03  0.76026660953E+03  0.00000000000E+00 0. -1.
          1    1    1    2  502    0 -0.10626803440E+02 -0.50274924553E+02  0.96674974609E+03  0.96811443980E+03  0.00000000000E+00 0. -1.
         22    1    3    3    0    0  0.41359781747E+02  0.70491722111E+02  0.13038109750E+03  0.15387964459E+03  0.00000000000E+00 0.  1.
         22    1    3    3    0    0 -0.57210132876E+02 -0.98969970519E+01  0.88426976037E+02  0.10578411953E+03  0.00000000000E+00 0.  1.
</event>
<event>
 7    1  0.6152634E-006  0.2533825E+03  0.7818608E-02  0.1114656E+00
          2   -1    0    0  502    0  0.00000000000E+00  0.00000000000E+00  0.10050908058E+04  0.10050908058E+04  0.00000000000E+00 0. -1.
          1   -1    0    0  501    0 -0.00000000000E+00 -0.00000000000E+00 -0.13233031743E+04  0.13233031743E+04  0.00000000000E+00 0. -1.
         25    2    1    2    0    0 -0.22641805372E+03 -0.21105367827E+03  0.19458669595E+03  0.38638811353E+03  0.12499200723E+03 0.  0.
          2    1    1    2  501    0  0.25388179424E+03 -0.29871781948E+02 -0.11928928927E+04  0.12199761237E+04  0.00000000000E+00 0. -1.
          1    1    1    2  502    0 -0.27463740523E+02  0.24092546022E+03  0.68009382828E+03  0.72202974294E+03  0.00000000000E+00 0. -1.
         22    1    3    3    0    0 -0.57164215218E+02  0.65590944606E+01  0.25135982821E+02  0.62790021930E+02  0.00000000000E+00 0.  1.
         22    1    3    3    0    0 -0.16925383850E+03 -0.21761277273E+03  0.16945071313E+03  0.32359809160E+03  0.00000000000E+00 0.  1.
</event>
<event>
 7    1  0.6152634E-006  0.5033527E+02  0.7818608E-02  0.1449290E+00
          2   -1    0    0  502    0  0.00000000000E+00  0.00000000000E+00  0.78855338335E+01  0.78855338335E+01  0.00000000000E+00 0. -1.
          1   -1    0    0  501    0 -0.00000000000E+00 -0.00000000000E+00 -0.24512293625E+04  0.24512293625E+04  0.00000000000E+00 0. -1.
         25    2    1    2    0    0  0.26208832658E+02  0.40926309454E+02 -0.11439839335E+04  0.11518184231E+04  0.12499829551E+03 0.  0.
          2    1    1    2  501    0 -0.50069080775E+02  0.51697846930E+01 -0.11043651535E+04  0.11055116606E+04  0.00000000000E+00 0. -1.
          1    1    1    2  502    0  0.23860248118E+02 -0.46096094147E+02 -0.19499474165E+03  0.20178481263E+03  0.00000000000E+00 0. -1.
         22    1    3    3    0    0 -0.46812745941E+02  0.14521122472E+02 -0.64157077678E+03  0.64344025192E+03  0.00000000000E+00 0.  1.
         22    1    3    3    0    0  0.73021578598E+02  0.26405186982E+02 -0.50241315674E+03  0.50837817116E+03  0.00000000000E+00 0.  1.
</event>
<event>
 7    1  0.6152634E-006  0.1451926E+03  0.7818608E-02  0.1360954E+00
          2   -1    0    0  502    0  0.00000000000E+00  0.00000000000E+00  0.22345171944E+04  0.22345171944E+04  0.00000000000E+00 0. -1.
          1   -1    0    0  501    0 -0.00000000000E+00 -0.00000000000E+00 -0.12806503880E+04  0.12806503880E+04  0.00000000000E+00 0. -1.
         25    2    1    2    0    0  0.17194173418E+03 -0.10528787569E+02  0.18947424069E+03  0.28495541541E+03  0.12499714224E+03 0.  0.
          2    1    1    2  501    0 -0.14233581003E+03  0.26215770923E+02 -0.12285210812E+04  0.12370168941E+04  0.00000000000E+00 0. -1.
          1    1    1    2  502    0 -0.29605924150E+02 -0.15686983354E+02  0.19929136469E+04  0.19931952729E+04  0.00000000000E+00 0. -1.
         22    1    3    3    0    0  0.18720051628E+03 -0.20711103202E+02  0.18867787332E+03  0.26659392898E+03  0.00000000000E+00 0.  1.
         22    1    3    3    0    0 -0.15258782102E+02  0.10182315632E+02  0.79636737410E+00  0.18361486429E+02  0.00000000000E+00 0.  1.
</event>
<event>
 7    1  0.6152634E-006  0.1335532E+03  0.7818608E-02  0.1411182E+00
          2   -1    0    0  502    0  0.00000000000E+00  0.00000000000E+00  0.28296972820E+03  0.28296972820E+03  0.00000000000E+00 0. -1.
          1   -1    0    0  501    0 -0.00000000000E+00 -0.00000000000E+00 -0.69604278929E+03  0.69604278929E+03  0.00000000000E+00 0. -1.
         25    2    1    2    0    0 -0.73255066923E+02  0.13029632010E+03 -0.10360541230E+03  0.22068711796E+03  0.12500114686E+03 0.  0.
          2    1    1    2  501    0  0.77273168379E+02 -0.10636272763E+03 -0.52511213928E+03  0.54131962019E+03  0.00000000000E+00 0. -1.
          1    1    1    2  502    0 -0.40181014556E+01 -0.23933592469E+02  0.21564449049E+03  0.21700577934E+03  0.00000000000E+00 0. -1.
         22    1    3    3    0    0  0.61234163416E+01 -0.49070041645E+01 -0.56412252072E+02  0.56955395718E+02  0.00000000000E+00 0.  1.
         22    1    3    3    0    0 -0.79378483265E+02  0.13520332426E+03 -0.47193160232E+02  0.16373172225E+03  0.00000000000E+00 0.  1.
</event>
<event>
 7    1  0.6152634E-006  0.8298260E+02  0.7818608E-02  0.1349228E+00
          2   -1    0    0  502    0  0.00000000000E+00  0.00000000000E+00  0.11233891529E+04  0.11233891529E+04  0.00000000000E+00 0. -1.
          1   -1    0    0  501    0 -0.00000000000E+00 -0.00000000000E+00 -0.52088547908E+03  0.52088547908E+03  0.00000000000E+00 0. -1.
         25    2    1    2    0    0  0.10600915526E+03 -0.39475368557E+02 -0.34210280852E+03  0.38138604115E+03  0.12499894025E+03 0.  0.
          2    1    1    2  501    0 -0.44503188432E+02  0.59686096537E+02 -0.14942378365E+03  0.16694439500E+03  0.00000000000E+00 0. -1.
          1    1    1    2  502    0 -0.61505966827E+02 -0.20210727980E+02  0.10940302660E+04  0.10959441958E+04  0.00000000000E+00 0. -1.
         22    1    3    3    0    0  0.15672967667E+02  0.28522228352E+01 -0.23302095303E+03  0.23356485532E+03  0.00000000000E+00 0. -1.
         22    1    3    3    0    0  0.90336187592E+02 -0.42327591392E+02 -0.10908185549E+03  0.14782118582E+03  0.00000000000E+00 0. -1.
</event>
<event>
 7    1  0.6152634E-006  0.4057046E+02  0.7818608E-02  0.1562425E+00
          2   -1    0    0  502    0  0.00000000000E+00  0.00000000000E+00  0.16114852427E+04  0.16114852427E+04  0.00000000000E+00 0. -1.
          1   -1    0    0  501    0 -0.00000000000E+00 -0.00000000000E+00 -0.13601556181E+04  0.13601556181E+04  0.00000000000E+00 0. -1.
         25    2    1    2    0    0  0.60695409289E+02  0.14793987069E+02  0.81615253332E+03  0.82802901153E+03  0.12499716607E+03 0.  0.
          2    1    1    2  501    0 -0.40371058832E+02  0.39481374029E+01 -0.13536714075E+04  0.13542790295E+04  0.00000000000E+00 0. -1.
          1    1    1    2  502    0 -0.20324350457E+02 -0.18742124472E+02  0.78884849881E+03  0.78933281987E+03  0.00000000000E+00 0. -1.
         22    1    3    3    0    0  0.88706202702E+02  0.14354516951E+02  0.36102705325E+03  0.37204216929E+03  0.00000000000E+00 0.  1.
         22    1    3    3    0    0 -0.28010793413E+02  0.43947011841E+00  0.45512548008E+03  0.45598684224E+03  0.00000000000E+00 0.  1.
</event>
<event>
 7    1  0.6152634E-006  0.1123903E+03  0.7818608E-02  0.1307275E+00
          2   -1    0    0  502    0  0.00000000000E+00  0.00000000000E+00  0.15274117637E+04  0.15274117637E+04  0.00000000000E+00 0. -1.
          1   -1    0    0  501    0 -0.00000000000E+00 -0.00000000000E+00 -0.25586219144E+03  0.25586219144E+03  0.00000000000E+00 0. -1.
         25    2    1    2    0    0  0.22871673993E+02 -0.82991250676E+02 -0.92427810309E+02  0.17770329198E+03  0.12499959481E+03 0.  0.
          2    1    1    2  501    0  0.14571593453E+02  0.14120189229E+03 -0.77975060461E+02  0.16195806796E+03  0.00000000000E+00 0. -1.
          1    1    1    2  502    0 -0.37443267446E+02 -0.58210641618E+02  0.14419524430E+04  0.14436125952E+04  0.00000000000E+00 0. -1.
         22    1    3    3    0    0  0.60365682553E+02 -0.82119506412E+02 -0.96021072405E+02  0.14002740914E+03  0.00000000000E+00 0. -1.
         22    1    3    3    0    0 -0.37494008560E+02 -0.87174426454E+00  0.35932620959E+01  0.37675882849E+02  0.00000000000E+00 0. -1.
</event>
<event>
 7    1  0.6152634E-006  0.8332175E+02  0.7818608E-02  0.1391824E+00
          2   -1    0    0  502    0  0.00000000000E+00  0.00000000000E+00  0.35509147390E+03  0.35509147390E+03  0.00000000000E+00 0. -1.
          1   -1    0    0  501    0 -0.00000000000E+00 -0.00000000000E+00 -0.42673341705E+03  0.42673341705E+03  0.00000000000E+00 0. -1.
         25    2    1    2    0    0  0.56679544712E-01  0.39140522915E+02  0.28166005728E+03  0.31062921096E+03  0.12500454025E+03 0.  0.
          2    1    1    2  501    0 -0.98347832133E+01 -0.83400689869E+02 -0.39845958681E+03  0.40721301594E+03  0.00000000000E+00 0. -1.
          1    1    1    2  502    0  0.97781036685E+01  0.44260166954E+02  0.45157586382E+02  0.63982664043E+02  0.00000000000E+00 0. -1.
         22    1    3    3    0    0  0.22397803916E+02 -0.23688957050E+02  0.21087862559E+03  0.21338374596E+03  0.00000000000E+00 0.  1.
         22    1    3    3    0    0 -0.22341124371E+02  0.62829479965E+02  0.70781431692E+02  0.97245465001E+02  0.00000000000E+00 0.  1.
</event>
<event>
 7    1  0.6152634E-006  0.9149774E+02  0.7818608E-02  0.1449698E+00
          2   -1    0    0  502    0  0.00000000000E+00  0.00000000000E+00  0.21592621491E+04  0.21592621491E+04  0.00000000000E+00 0. -1.
          1   -1    0    0  501    0 -0.00000000000E+00 -0.00000000000E+00 -0.40791477200E+02  0.40791477200E+02  0.00000000000E+00 0. -1.
         25    2    1    2    0    0 -0.54915539552E+02  0.43499606258E+02  0.90859824506E+03  0.91982813281E+03  0.12500036298E+03 0.  0.
          2    1    1    2  501    0  0.62547568812E+02 -0.68831883032E+02  0.26706720247E+02  0.96764019100E+02  0.00000000000E+00 0. -1.
          1    1    1    2  502    0 -0.76320292598E+01  0.25332276774E+02  0.11831657065E+04  0.11834614743E+04  0.00000000000E+00 0. -1.
         22    1    3    3    0    0  0.33779957450E+02  0.33178052508E+02  0.19506100641E+03  0.20072534697E+03  0.00000000000E+00 0. -1.
         22    1    3    3    0    0 -0.88695497002E+02  0.10321553749E+02  0.71353723865E+03  0.71910278584E+03  0.00000000000E+00 0. -1.
</event>
<event>
 7    1  0.6152634E-006  0.1667478E+03  0.7818608E-02  0.1324795E+00
          2   -1    0    0  502    0  0.00000000000E+00  0.00000000000E+00  0.30044267918E+04  0.30044267918E+04  0.00000000000E+00 0. -1.
          1   -1    0    0  501    0 -0.00000000000E+00 -0.00000000000E+00 -0.77653024756E+03  0.77653024756E+03  0.00000000000E+00 0. -1.
         25    2    1    2    0    0  0.52789952352E+02 -0.19136994447E+03  0.16767745173E+04  0.16931058075E+04  0.12500103495E+03 0.  0.
          2    1    1    2  501    0 -0.64930717298E+02  0.15341147038E+03 -0.75902877824E+03  0.77709443666E+03  0.00000000000E+00 0. -1.
          1    1    1    2  502    0  0.12140764946E+02  0.37958474094E+02  0.13101508051E+04  0.13107567952E+04  0.00000000000E+00 0. -1.
         22    1    3    3    0    0  0.13006611366E+02  0.85745744159E+01  0.30417478554E+02  0.34174819198E+02  0.00000000000E+00 0. -1.
         22    1    3    3    0    0  0.39783340987E+02 -0.19994451889E+03  0.16463570388E+04  0.16589309883E+04  0.00000000000E+00 0. -1.
</event>
<event>
 7    1  0.6152634E-006  0.3508330E+03  0.7818608E-02  0.1197111E+00
          2   -1    0    0  502    0  0.00000000000E+00  0.00000000000E+00  0.65400998117E+03  0.65400998117E+03  0.00000000000E+00 0. -1.
          1   -1    0    0  501    0 -0.00000000000E+00 -0.00000000000E+00 -0.53174073569E+03  0.53174073569E+03  0.00000000000E+00 0. -1.
         25    2    1    2    0    0  0.36286875115E+03  0.15545920530E+02  0.23872651051E+03  0.45224996463E+03  0.12499710990E+03 0.  0.
          2    1    1    2  501    0 -0.34585954517E+03  0.48765902441E+02 -0.34772319170E+03  0.49285733866E+03  0.00000000000E+00 0. -1.
          1    1    1    2  502    0 -0.17009205979E+02 -0.64311822971E+02  0.23126592666E+03  0.24064341357E+03  0.00000000000E+00 0. -1.
         22    1    3    3    0    0  0.25075717421E+03  0.14723054357E+02  0.22867042293E+03  0.33968528239E+03  0.00000000000E+00 0.  1.
         22    1    3    3    0    0  0.11211157693E+03  0.82286617209E+00  0.10056087587E+02  0.11256468225E+03  0.00000000000E+00 0.  1.
</event>
<event>
 7    1  0.6152634E-006  0.5132923E+02  0.7818608E-02  0.1543695E+00
          2   -1    0    0  502    0  0.00000000000E+00  0.00000000000E+00  0.51495958286E+03  0.51495958286E+03  0.00000000000E+00 0. -1.
          1   -1    0    0  501    0 -0.00000000000E+00 -0.00000000000E+00 -0.12296566440E+04  0.12296566440E+04  0.00000000000E+00 0. -1.
         25    2    1    2    0    0 -0.17827324009E+02  0.66723112487E+02 -0.41735526801E+03  0.44111388126E+03  0.12500499705E+03 0.  0.
          2    1    1    2  501    0 -0.89147891406E+01 -0.22963679742E+02 -0.79892477692E+03  0.79930444965E+03  0.00000000000E+00 0. -1.
          1    1    1    2  502    0  0.26742113150E+02 -0.43759432745E+02  0.50158298383E+03  0.50419789591E+03  0.00000000000E+00 0. -1.
         22    1    3    3    0    0  0.19466609612E+02 -0.20832135369E+02 -0.22186860981E+03  0.22369310846E+03  0.00000000000E+00 0.  1.
         22    1    3    3    0    0 -0.37293933622E+02  0.87555247856E+02 -0.19548665820E+03  0.21742077280E+03  0.00000000000E+00 0.  1.
</event>
<event>
 7    1  0.6152634E-006  0.3518459E+02  0.7818608E-02  0.1555373E+00
          2   -1    0    0  502    0  0.00000000000E+00  0.00000000000E+00  0.29944806263E+03  0.29944806263E+03  0.00000000000E+00 0. -1.
          1   -1    0    0  501    0 -0.00000000000E+00 -0.00000000000E+00 -0.79623792406E+02  0.79623792406E+02  0.00000000000E+00 0. -1.
         25    2    1    2    0    0  0.33111474014E+01 -0.20963267569E+01  0.21769551064E+02  0.12696794392E+03  0.12502634581E+03 0.  0.
          2    1    1    2  501    0  0.32235773998E+02  0.85024517324E+01 -0.14606146351E+02  0.36397476862E+02  0.00000000000E+00 0. -1.
          1    1    1    2  502    0 -0.35546921399E+02 -0.64061249755E+01  0.21266086552E+03  0.21570643426E+03  0.00000000000E+00 0. -1.
         22    1    3    3    0    0 -0.93984893799E+01  0.60030478982E+02  0.18308015895E+02  0.63460014619E+02  0.00000000000E+00 0.  1.
         22    1    3    3    0    0  0.12709636781E+02 -0.62126805739E+02  0.34615351689E+01  0.63507929302E+02  0.00000000000E+00 0.  1.
</event>
<event>
 7    1  0.6152634E-006  0.9203331E+02  0.7818608E-02  0.1343031E+00
          2   -1    0    0  502    0  0.00000000000E+00  0.00000000000E+00  0.31862858571E+02  0.31862858571E+02  0.00000000000E+00 0. -1.
          1   -1    0    0  501    0 -0.00000000000E+00 -0.00000000000E+00 -0.30136689856E+04  0.30136689856E+04  0.00000000000E+00 0. -1.
         25    2    1    2    0    0 -0.69910194641E+01  0.55294206941E+02 -0.73760350942E+03  0.75019263163E+03  0.12499489496E+03 0.  0.
          2    1    1    2  501    0 -0.59209758718E+02  0.16858632119E+02 -0.21739550831E+04  0.21748265936E+04  0.00000000000E+00 0. -1.
          1    1    1    2  502    0  0.66200778182E+02 -0.72152839060E+02 -0.70247534533E+02  0.12051261894E+03  0.00000000000E+00 0. -1.
         22    1    3    3    0    0  0.49897055568E+02  0.49148030259E+02 -0.53833103411E+03  0.54286789122E+03  0.00000000000E+00 0. -1.
         22    1    3    3    0    0 -0.56888075032E+02  0.61461766821E+01 -0.19927247531E+03  0.20732474041E+03  0.00000000000E+00 0. -1.
</event>
<event>
 7    1  0.6152634E-006  0.1196820E+03  0.7818608E-02  0.1286075E+00
          2   -1    0    0  502    0  0.00000000000E+00  0.00000000000E+00  0.42682690869E+04  0.42682690869E+04  0.00000000000E+00 0. -1.
          1   -1    0    0  501    0 -0.00000000000E+00 -0.00000000000E+00 -0.51637251065E+03  0.51637251065E+03  0.00000000000E+00 0. -1.
         25    2    1    2    0    0  0.16621996527E+03  0.63880499626E+02  0.71766339067E+03  0.74991450597E+03  0.12498491462E+03 0.  0.
          2    1    1    2  501    0 -0.78077441502E+02  0.12717923178E+02 -0.49614815046E+03  0.50241498748E+03  0.00000000000E+00 0. -1.
          1    1    1    2  502    0 -0.88142523765E+02 -0.76598422804E+02  0.35303813360E+04  0.35323121041E+04  0.00000000000E+00 0. -1.
         22    1    3    3    0    0  0.10050656504E+03  0.29366764731E+02  0.61135758903E+03  0.62025968606E+03  0.00000000000E+00 0.  1.
         22    1    3    3    0    0  0.65713400224E+02  0.34513734895E+02  0.10630580164E+03  0.12965481992E+03  0.00000000000E+00 0.  1.
</event>
<event>
 7    1  0.6152634E-006  0.1538563E+03  0.7818608E-02  0.1304411E+00
          2   -1    0    0  502    0  0.00000000000E+00  0.00000000000E+00  0.75724193457E+02  0.75724193457E+02  0.00000000000E+00 0. -1.
          1   -1    0    0  501    0 -0.00000000000E+00 -0.00000000000E+00 -0.20649411017E+04  0.20649411017E+04  0.00000000000E+00 0. -1.
         25    2    1    2    0    0  0.14561904428E+03 -0.68654795351E+02 -0.10789302313E+04  0.10980135929E+04  0.12500007667E+03 0.  0.
          2    1    1    2  501    0 -0.15166390396E+03  0.17108520241E+02 -0.95924072500E+03  0.97130706253E+03  0.00000000000E+00 0. -1.
          1    1    1    2  502    0  0.60448596769E+01  0.51546275109E+02  0.48954048023E+02  0.71344639771E+02  0.00000000000E+00 0. -1.
         22    1    3    3    0    0  0.71465544073E+02 -0.14101507913E+02 -0.17708266913E+03  0.19147962874E+03  0.00000000000E+00 0. -1.
         22    1    3    3    0    0  0.74153500208E+02 -0.54553287437E+02 -0.90184756215E+03  0.90653396413E+03  0.00000000000E+00 0. -1.
</event>
<event>
 7    1  0.6152634E-006  0.7119062E+02  0.7818608E-02  0.1382676E+00
          2   -1    0    0  502    0  0.00000000000E+00  0.00000000000E+00  0.10796543012E+04  0.10796543012E+04  0.00000000000E+00 0. -1.
          1   -1    0    0  501    0 -0.00000000000E+00 -0.00000000000E+00 -0.37763627640E+03  0.37763627640E+03  0.00000000000E+00 0. -1.
         25    2    1    2    0    0 -0.67959379291E+01  0.81620545817E+02  0.16635404172E+03  0.22362180916E+03  0.12499979225E+03 0.  0.
          2    1    1    2  501    0  0.52916274818E+02 -0.47930166250E+02 -0.34441556748E+03  0.35173785139E+03  0.00000000000E+00 0. -1.
          1    1    1    2  502    0 -0.46120336889E+02 -0.33690379567E+02  0.88007955059E+03  0.88193091709E+03  0.00000000000E+00 0. -1.
         22    1    3    3    0    0 -0.34030549741E+02  0.60746585359E+02  0.17490787965E+03  0.18825778155E+03  0.00000000000E+00 0. -1.
         22    1    3    3    0    0  0.27234611812E+02  0.20873960457E+02 -0.85538379281E+01  0.35364027613E+02  0.00000000000E+00 0. -1.
</event>
<event>
 7    1  0.6152634E-006  0.7463831E+02  0.7818608E-02  0.1451099E+00
          2   -1    0    0  502    0  0.00000000000E+00  0.00000000000E+00  0.73765878363E+03  0.73765878363E+03  0.00000000000E+00 0. -1.
          1   -1    0    0  501    0 -0.00000000000E+00 -0.00000000000E+00 -0.11082463148E+04  0.11082463148E+04  0.00000000000E+00 0. -1.
         25    2    1    2    0    0  0.89972085603E+02 -0.20304093058E+02  0.39643216050E+03  0.42578366408E+03  0.12500415329E+03 0.  0.
          2    1    1    2  501    0 -0.63724421526E+02  0.38783540891E+02 -0.10915054788E+04  0.10940517242E+04  0.00000000000E+00 0. -1.
          1    1    1    2  502    0 -0.26247664077E+02 -0.18479447833E+02  0.32448578711E+03  0.32606971018E+03  0.00000000000E+00 0. -1.
         22    1    3    3    0    0 -0.26045160735E+02 -0.13484268788E+02  0.15604323044E+03  0.15877551974E+03  0.00000000000E+00 0.  1.
         22    1    3    3    0    0  0.11601724634E+03 -0.68198242696E+01  0.24038893006E+03  0.26700814435E+03  0.00000000000E+00 0.  1.
</event>
<event>
 7    1  0.6152634E-006  0.9602400E+02  0.7818608E-02  0.1372026E+00
          2   -1    0    0  502    0  0.00000000000E+00  0.00000000000E+00  0.11806233143E+04  0.11806233143E+04  0.00000000000E+00 0. -1.
          1   -1    0    0  501    0 -0.00000000000E+00 -0.00000000000E+00 -0.10389594941E+04  0.10389594941E+04  0.00000000000E+00 0. -1.
         25    2    1    2    0    0  0.35999579257E+02  0.11292930362E+03  0.66177476635E+03  0.68382777429E+03  0.12500234473E+03 0.  0.
          2    1    1    2  501    0  0.68821171669E+01 -0.95730054425E+02 -0.10246348161E+04  0.10291200675E+04  0.00000000000E+00 0. -1.
          1    1    1    2  502    0 -0.42881696424E+02 -0.17199249196E+02  0.50452386998E+03  0.50663496666E+03  0.00000000000E+00 0. -1.
         22    1    3    3    0    0 -0.21419217936E+02 -0.17935724902E+02  0.14447702562E+03  0.14715326723E+03  0.00000000000E+00 0.  1.
         22    1    3    3    0    0  0.57418797192E+02  0.13086502852E+03  0.51729774073E+03  0.53667450706E+03  0.00000000000E+00 0.  1.
</event>
<event>
 7    1  0.6152634E-006  0.1188297E+03  0.7818608E-02  0.1298082E+00
          2   -1    0    0  502    0  0.00000000000E+00  0.00000000000E+00  0.57125122295E+03  0.57125122295E+03  0.00000000000E+00 0. -1.
          1   -1    0    0  501    0 -0.00000000000E+00 -0.00000000000E+00 -0.42608392995E+03  0.42608392995E+03  0.00000000000E+00 0. -1.
         25    2    1    2    0    0  0.32613193601E+02 -0.16296828069E+03 -0.43178396506E+02  0.21239306396E+03  0.12499663509E+03 0.  0.
          2    1    1    2  501    0 -0.52695609763E+02  0.47919897351E+02 -0.28687308443E+03  0.29558300090E+03  0.00000000000E+00 0. -1.
          1    1    1    2  502    0  0.20082416161E+02  0.11504838334E+03  0.47521877394E+03  0.48935908805E+03  0.00000000000E+00 0. -1.
         22    1    3    3    0    0  0.26111547445E+02 -0.88986343674E+02 -0.86159481724E+02  0.12658530152E+03  0.00000000000E+00 0.  1.
         22    1    3    3    0    0  0.65016461560E+01 -0.73981937019E+02  0.42981085218E+02  0.85807762437E+02  0.00000000000E+00 0.  1.
</event>
<event>
 7    1  0.6152634E-006  0.6921267E+02  0.7818608E-02  0.1381934E+00
          2   -1    0    0  502    0  0.00000000000E+00  0.00000000000E+00  0.12014413712E+04  0.12014413712E+04  0.00000000000E+00 0. -1.
          1   -1    0    0  501    0 -0.00000000000E+00 -0.00000000000E+00 -0.19988987536E+03  0.19988987536E+03  0.00000000000E+00 0. -1.
         25    2    1    2    0    0 -0.13927727386E+02  0.24041657261E+02 -0.64774397020E+02  0.14350298167E+03  0.12500160145E+03 0.  0.
          2    1    1    2  501    0  0.76952390001E+02  0.45640405917E+01 -0.79019896499E+02  0.11039313763E+03  0.00000000000E+00 0. -1.
          1    1    1    2  502    0 -0.63024662615E+02 -0.28605697853E+02  0.11453457894E+04  0.11474351273E+04  0.00000000000E+00 0. -1.
         22    1    3    3    0    0 -0.29824819772E+02 -0.49298844880E+01 -0.94399455403E+02  0.99121545670E+02  0.00000000000E+00 0.  1.
         22    1    3    3    0    0  0.15897092386E+02  0.28971541749E+02  0.29625058383E+02  0.44381436005E+02  0.00000000000E+00 0.  1.
</event>
<event>
 7    1  0.6152634E-006  0.1121047E+03  0.7818608E-02  0.1351356E+00
          2   -1    0    0  502    0  0.00000000000E+00  0.00000000000E+00  0.68040818935E+03  0.68040818935E+03  0.00000000000E+00 0. -1.
          1   -1    0    0  501    0 -0.00000000000E+00 -0.00000000000E+00 -0.91141606709E+03  0.91141606709E+03  0.00000000000E+00 0. -1.
         25    2    1    2    0    0 -0.10984123942E+03 -0.45137346436E+02  0.12653074525E+03  0.21386333549E+03  0.12500007540E+03 0.  0.
          2    1    1    2  501    0  0.31263074682E+02 -0.35176528435E+02 -0.86091321581E+03  0.86219854624E+03  0.00000000000E+00 0. -1.
          1    1    1    2  502    0  0.78578164736E+02  0.80313874871E+02  0.50337459282E+03  0.51576237471E+03  0.00000000000E+00 0. -1.
         22    1    3    3    0    0 -0.10739152332E+03 -0.62698371885E+02  0.47904155118E+02  0.13326227222E+03  0.00000000000E+00 0.  1.
         22    1    3    3    0    0 -0.24497160934E+01  0.17561025449E+02  0.78626590134E+02  0.80601063268E+02  0.00000000000E+00 0.  1.
</event>
<event>
 7    1  0.6152634E-006  0.6336259E+02  0.7818608E-02  0.1503930E+00
          2   -1    0    0  502    0  0.00000000000E+00  0.00000000000E+00  0.10887344151E+04  0.10887344151E+04  0.00000000000E+00 0. -1.
          1   -1    0    0  501    0 -0.00000000000E+00 -0.00000000000E+00 -0.98568141698E+03  0.98568141698E+03  0.00000000000E+00 0. -1.
         25    2    1    2    0    0  0.60346209167E+02 -0.61644406169E+02  0.18727555346E+03  0.24111984071E+03  0.12499978756E+03 0.  0.
          2    1    1    2  501    0 -0.51039451663E+02  0.37368087768E+02 -0.95752221986E+03  0.95960940029E+03  0.00000000000E+00 0. -1.
          1    1    1    2  502    0 -0.93067575035E+01  0.24276318401E+02  0.87329966457E+03  0.87368659112E+03  0.00000000000E+00 0. -1.
         22    1    3    3    0    0  0.37421679012E+02 -0.89613678724E+02  0.17956460289E+03  0.20414318526E+03  0.00000000000E+00 0.  1.
         22    1    3    3    0    0  0.22924530155E+02  0.27969272555E+02  0.77109505655E+01  0.36976655456E+02  0.00000000000E+00 0.  1.
</event>
<event>
 7    1  0.6152634E-006  0.8396727E+02  0.7818608E-02  0.1361499E+00
          2   -1    0    0  502    0  0.00000000000E+00  0.00000000000E+00  0.49261774740E+03  0.49261774740E+03  0.00000000000E+00 0. -1.
          1   -1    0    0  501    0 -0.00000000000E+00 -0.00000000000E+00 -0.36790429543E+03  0.36790429543E+03  0.00000000000E+00 0. -1.
         25    2    1    2    0    0  0.35064339756E+02 -0.12759380706E+03  0.21013142270E+03  0.27800970761E+03  0.12499798077E+03 0.  0.
          2    1    1    2  501    0 -0.68974663100E+01  0.57257497249E+02 -0.32559751115E+03  0.33066559437E+03  0.00000000000E+00 0. -1.
          1    1    1    2  502    0 -0.28166873446E+02  0.70336309807E+02  0.24017954042E+03  0.25184674085E+03  0.00000000000E+00 0. -1.
         22    1    3    3    0    0 -0.10821688877E+02 -0.46179710125E+02 -0.65471607200E+00  0.47435253035E+02  0.00000000000E+00 0. -1.
         22    1    3    3    0    0  0.45886028633E+02 -0.81414096931E+02  0.21078613878E+03  0.23057445458E+03  0.00000000000E+00 0. -1.
</event>
<event>
 7    1  0.6152634E-006  0.7039468E+02  0.7818608E-02  0.1366578E+00
          2   -1    0    0  502    0  0.00000000000E+00  0.00000000000E+00  0.44406051302E+03  0.44406051302E+03  0.00000000000E+00 0. -1.
          1   -1    0    0  501    0 -0.00000000000E+00 -0.00000000000E+00 -0.59623232610E+02  0.59623232610E+02  0.00000000000E+00 0. -1.
         25    2    1    2    0    0  0.28042625662E+02 -0.58713177245E+02  0.21225320665E+03  0.25477212740E+03  0.12499514843E+03 0.  0.
          2    1    1    2  501    0  0.51494396664E+02  0.41177779938E+02  0.90188144555E+01  0.66547888490E+02  0.00000000000E+00 0. -1.
          1    1    1    2  502    0 -0.79537022326E+02  0.17535397307E+02  0.16316525931E+03  0.18236372974E+03  0.00000000000E+00 0. -1.
         22    1    3    3    0    0  0.88922677262E+00 -0.51069927407E+02  0.21973071691E+03  0.22558926429E+03  0.00000000000E+00 0. -1.
         22    1    3    3    0    0  0.27153398890E+02 -0.76432498373E+01 -0.74775102659E+01  0.29182863107E+02  0.00000000000E+00 0. -1.
</event>
<event>
 7    1  0.6152634E-006  0.9920305E+02  0.7818608E-02  0.1402007E+00
          2   -1    0    0  502    0  0.00000000000E+00  0.00000000000E+00  0.29588040140E+03  0.29588040140E+03  0.00000000000E+00 0. -1.
          1   -1    0    0  501    0 -0.00000000000E+00 -0.00000000000E+00 -0.31162340150E+03  0.31162340150E+03  0.00000000000E+00 0. -1.
         25    2    1    2    0    0  0.14950661926E+02  0.11596804131E+03 -0.22108481349E+03  0.27959641100E+03  0.12499419742E+03 0.  0.
          2    1    1    2  501    0 -0.61655822915E+01 -0.81975891480E+02 -0.31827454653E+02  0.88153548191E+02  0.00000000000E+00 0. -1.
          1    1    1    2  502    0 -0.87850796349E+01 -0.33992149832E+02  0.23716926804E+03  0.23975384371E+03  0.00000000000E+00 0. -1.
         22    1    3    3    0    0 -0.36720793069E+02  0.15938868336E+01 -0.18160626172E+02  0.40997139679E+02  0.00000000000E+00 0. -1.
         22    1    3    3    0    0  0.51671454996E+02  0.11437415448E+03 -0.20292418732E+03  0.23859927132E+03  0.00000000000E+00 0. -1.
</event>
<event>
 7    1  0.6152634E-006  0.5273183E+02  0.7818608E-02  0.1449305E+00
          2   -1    0    0  502    0  0.00000000000E+00  0.00000000000E+00  0.52470707625E+02  0.52470707625E+02  0.00000000000E+00 0. -1.
          1   -1    0    0  501    0 -0.00000000000E+00 -0.00000000000E+00 -0.46421581646E+03  0.46421581646E+03  0.00000000000E+00 0. -1.
         25    2    1    2    0    0  0.49724013065E+02  0.41797245198E+02 -0.32292158283E+03  0.35231043528E+03  0.12499922786E+03 0.  0.
          2    1    1    2  501    0  0.31801429283E+01 -0.45930205697E+02 -0.10005115770E+03  0.11013596715E+03  0.00000000000E+00 0. -1.
          1    1    1    2  502    0 -0.52904155993E+02  0.41329604991E+01  0.11227631692E+02  0.54240121656E+02  0.00000000000E+00 0. -1.
         22    1    3    3    0    0  0.45368108627E+02  0.40028505104E+02 -0.47688650622E+02  0.77037353923E+02  0.00000000000E+00 0.  1.
         22    1    3    3    0    0  0.43559044375E+01  0.17687400940E+01 -0.27523293221E+03  0.27527308135E+03  0.00000000000E+00 0.  1.
</event>
<event>
 7    1  0.6152634E-006  0.1364845E+03  0.7818608E-02  0.1295091E+00
          2   -1    0    0  502    0  0.00000000000E+00  0.00000000000E+00  0.11756750489E+04  0.11756750489E+04  0.00000000000E+00 0. -1.
          1   -1    0    0  501    0 -0.00000000000E+00 -0.00000000000E+00 -0.12538688501E+04  0.12538688501E+04  0.00000000000E+00 0. -1.
         25    2    1    2    0    0 -0.89313684551E+02  0.12905120212E+03  0.23740480772E+03  0.31083418112E+03  0.12500279359E+03 0.  0.
          2    1    1    2  501    0  0.63646501543E+02  0.37377094190E+01 -0.12112387760E+04  0.12129155866E+04  0.00000000000E+00 0. -1.
          1    1    1    2  502    0  0.25667183008E+02 -0.13278891154E+03  0.89564016717E+03  0.90579413133E+03  0.00000000000E+00 0. -1.
         22    1    3    3    0    0  0.30487288822E+02  0.36007137393E+02  0.75012803924E+02  0.88616643332E+02  0.00000000000E+00 0. -1.
         22    1    3    3    0    0 -0.11980097337E+03  0.93044064726E+02  0.16239200380E+03  0.22221753779E+03  0.00000000000E+00 0. -1.
</event>
<event>
 7    1  0.6152634E-006  0.9453285E+02  0.7818608E-02  0.1407263E+00
          2   -1    0    0  502    0  0.00000000000E+00  0.00000000000E+00  0.75599609404E+03  0.75599609404E+03  0.00000000000E+00 0. -1.
          1   -1    0    0  501    0 -0.00000000000E+00 -0.00000000000E+00 -0.21105569805E+04  0.21105569805E+04  0.00000000000E+00 0. -1.
         25    2    1    2    0    0 -0.47575500278E+02  0.65077355782E+02 -0.10179948688E+03  0.18025934482E+03  0.12502721866E+03 0.  0.
          2    1    1    2  501    0  0.80108374046E+02 -0.51244497143E+02 -0.19679428083E+04  0.19702391345E+04  0.00000000000E+00 0. -1.
          1    1    1    2  502    0 -0.32532873768E+02 -0.13832858640E+02  0.71518140879E+03  0.71605459522E+03  0.00000000000E+00 0. -1.
         22    1    3    3    0    0 -0.85414348505E+02  0.64665642648E+02 -0.91890987050E+02  0.14114251582E+03  0.00000000000E+00 0. -1.
         22    1    3    3    0    0  0.37838848227E+02  0.41171313388E+00 -0.99084998275E+01  0.39116829009E+02  0.00000000000E+00 0. -1.
</event>
<event>
 7    1  0.6152634E-006  0.8222854E+02  0.7818608E-02  0.1353451E+00
          2   -1    0    0  502    0  0.00000000000E+00  0.00000000000E+00  0.11182095440E+04  0.11182095440E+04  0.00000000000E+00 0. -1.
          1   -1    0    0  501    0 -0.00000000000E+00 -0.00000000000E+00 -0.16755348805E+03  0.16755348805E+03  0.00000000000E+00 0. -1.
         25    2    1    2    0    0  0.43994497841E+02 -0.69003886772E+02  0.30725451636E+03  0.34165414673E+03  0.12500066371E+03 0.  0.
          2    1    1    2  501    0 -0.61389287643E+02 -0.14278790589E+02 -0.14134650118E+03  0.15476227542E+03  0.00000000000E+00 0. -1.
          1    1    1    2  502    0  0.17394789802E+02  0.83282677361E+02  0.78474804080E+03  0.78934660992E+03  0.00000000000E+00 0. -1.
         22    1    3    3    0    0  0.71205947991E+02 -0.89029905321E+02  0.25636540905E+03  0.28057055090E+03  0.00000000000E+00 0.  1.
         22    1    3    3    0    0 -0.27211450150E+02  0.20026018549E+02  0.50889107303E+02  0.61083595836E+02  0.00000000000E+00 0.  1.
</event>
<event>
 7    1  0.6152634E-006  0.1298541E+03  0.7818608E-02  0.1367335E+00
          2   -1    0    0  502    0  0.00000000000E+00  0.00000000000E+00  0.24826170782E+04  0.24826170782E+04  0.00000000000E+00 0. -1.
          1   -1    0    0  501    0 -0.00000000000E+00 -0.00000000000E+00 -0.56364703608E+02  0.56364703608E+02  0.00000000000E+00 0. -1.
         25    2    1    2    0    0 -0.44778757949E+02  0.12753315184E+03  0.27711607168E+03  0.33269767930E+03  0.12499834655E+03 0.  0.
          2    1    1    2  501    0 -0.28884833319E+02 -0.20669875723E+02 -0.14785564237E+02  0.38473240935E+02  0.00000000000E+00 0. -1.
          1    1    1    2  502    0  0.73663591268E+02 -0.10686327612E+03  0.21639218671E+04  0.21678108616E+04  0.00000000000E+00 0. -1.
         22    1    3    3    0    0  0.19374283369E+02  0.11590967982E+03  0.19719288543E+03  0.22955489713E+03  0.00000000000E+00 0. -1.
         22    1    3    3    0    0 -0.64153041319E+02  0.11623472025E+02  0.79923186253E+02  0.10314278217E+03  0.00000000000E+00 0. -1.
</event>
<event>
 7    1  0.6152634E-006  0.6388029E+02  0.7818608E-02  0.1426700E+00
          2   -1    0    0  502    0  0.00000000000E+00  0.00000000000E+00  0.39084204491E+03  0.39084204491E+03  0.00000000000E+00 0. -1.
          1   -1    0    0  501    0 -0.00000000000E+00 -0.00000000000E+00 -0.74276532919E+03  0.74276532919E+03  0.00000000000E+00 0. -1.
         25    2    1    2    0    0  0.89902685685E+02  0.58289563352E+02 -0.21330181173E+03  0.26945090401E+03  0.12500384274E+03 0.  0.
          2    1    1    2  501    0 -0.41584044500E+02 -0.17253970632E+02 -0.49759549106E+03  0.49962806665E+03  0.00000000000E+00 0. -1.
          1    1    1    2  502    0 -0.48318641184E+02 -0.41035592720E+02  0.35897401850E+03  0.36452840344E+03  0.00000000000E+00 0. -1.
         22    1    3    3    0    0 -0.71715549892E+01  0.16763444233E+02  0.11173516888E+02  0.21384380822E+02  0.00000000000E+00 0. -1.
         22    1    3    3    0    0  0.97074240674E+02  0.41526119119E+02 -0.22447532862E+03  0.24806652319E+03  0.00000000000E+00 0. -1.
</event>
<event>
 7    1  0.6152634E-006  0.1129383E+03  0.7818608E-02  0.1445752E+00
          2   -1    0    0  502    0  0.00000000000E+00  0.00000000000E+00  0.23044966761E+03  0.23044966761E+03  0.00000000000E+00 0. -1.
          1   -1    0    0  501    0 -0.00000000000E+00 -0.00000000000E+00 -0.28726057332E+03  0.28726057332E+03  0.00000000000E+00 0. -1.
         25    2    1    2    0    0 -0.27885460443E+02  0.12374937946E+03 -0.16561320776E+02  0.17886199800E+03  0.12500331660E+03 0.  0.
          2    1    1    2  501    0  0.16975789664E+02 -0.14101423971E+02 -0.16839932380E+03  0.16983921764E+03  0.00000000000E+00 0. -1.
          1    1    1    2  502    0  0.10909670779E+02 -0.10964795549E+03  0.12814973886E+03  0.16900902529E+03  0.00000000000E+00 0. -1.
         22    1    3    3    0    0 -0.29679921441E+02 -0.11300088656E+02  0.21725906873E+02  0.38478627442E+02  0.00000000000E+00 0.  1.
         22    1    3    3    0    0  0.17944609978E+01  0.13504946811E+03 -0.38287227649E+02  0.14038337056E+03  0.00000000000E+00 0.  1.
</event>
<event>
 7    1  0.6152634E-006  0.3755464E+02  0.7818608E-02  0.1608387E+00
          2   -1    0    0  502    0  0.00000000000E+00  0.00000000000E+00  0.11369926493E+03  0.11369926493E+03  0.00000000000E+00 0. -1.
          1   -1    0    0  501    0 -0.00000000000E+00 -0.00000000000E+00 -0.15671774454E+03  0.15671774454E+03  0.00000000000E+00 0. -1.
         25    2    1    2    0    0 -0.49542825854E+02 -0.30535676291E+02 -0.84005863989E+02  0.16145761155E+03  0.12499862408E+03 0.  0.
          2    1    1    2  501    0  0.21495567042E+02  0.67519135597E+01 -0.24852759563E+02  0.33545601755E+02  0.00000000000E+00 0. -1.
          1    1    1    2  502    0  0.28047258812E+02  0.23783762731E+02  0.65840143946E+02  0.75413796161E+02  0.00000000000E+00 0. -1.
         22    1    3    3    0    0 -0.74885162271E+02 -0.37335580630E+02 -0.10026159383E+03  0.13059142509E+03  0.00000000000E+00 0. -1.
         22    1    3    3    0    0  0.25342336417E+02  0.67999043396E+01  0.16255729839E+02  0.30866186462E+02  0.00000000000E+00 0. -1.
</event>
<event>
 7    1  0.6152634E-006  0.5922237E+02  0.7818608E-02  0.1425229E+00
          2   -1    0    0  502    0  0.00000000000E+00  0.00000000000E+00  0.28699323542E+04  0.28699323542E+04  0.00000000000E+00 0. -1.
          1   -1    0    0  501    0 -0.00000000000E+00 -0.00000000000E+00 -0.22825296505E+03  0.22825296505E+03  0.00000000000E+00 0. -1.
         25    2    1    2    0    0 -0.23407033141E+02 -0.65368683775E+02  0.12892768242E+03  0.19253520364E+03  0.12500601316E+03 0.  0.
          2    1    1    2  501    0  0.47792639695E+02  0.11298319774E+02 -0.19304986395E+03  0.19919848998E+03  0.00000000000E+00 0. -1.
          1    1    1    2  502    0 -0.24385606554E+02  0.54070364001E+02  0.27058015707E+04  0.27064516257E+04  0.00000000000E+00 0. -1.
         22    1    3    3    0    0 -0.36275400117E+02  0.23149483019E+02  0.79345922347E+02  0.90263938596E+02  0.00000000000E+00 0.  1.
         22    1    3    3    0    0  0.12868366976E+02 -0.88518166794E+02  0.49581760070E+02  0.10227126504E+03  0.00000000000E+00 0.  1.
</event>
<event>
 7    1  0.6152634E-006  0.7707582E+02  0.7818608E-02  0.1424750E+00
          2   -1    0    0  502    0  0.00000000000E+00  0.00000000000E+00  0.11156340159E+04  0.11156340159E+04  0.00000000000E+00 0. -1.
          1   -1    0    0  501    0 -0.00000000000E+00 -0.00000000000E+00 -0.30396917691E+03  0.30396917691E+03  0.00000000000E+00 0. -1.
         25    2    1    2    0    0 -0.72458144780E+02 -0.29472480539E+02  0.49082994436E+02  0.15540326509E+03  0.12498889793E+03 0.  0.
          2    1    1    2  501    0  0.77096477966E+02 -0.81151484064E+01 -0.24445423627E+03  0.25645193736E+03  0.00000000000E+00 0. -1.
          1    1    1    2  502    0 -0.46383331860E+01  0.37587628945E+02  0.10070360808E+04  0.10077479904E+04  0.00000000000E+00 0. -1.
         22    1    3    3    0    0 -0.79340523332E+02 -0.37220389820E+02 -0.16354596403E+02  0.89150147978E+02  0.00000000000E+00 0. -1.
         22    1    3    3    0    0  0.68823785523E+01  0.77479092814E+01  0.65437590839E+02  0.66253117116E+02  0.00000000000E+00 0. -1.
</event>
<event>
 7    1  0.6152634E-006  0.1412302E+03  0.7818608E-02  0.1323582E+00
          2   -1    0    0  502    0  0.00000000000E+00  0.00000000000E+00  0.80541082584E+02  0.80541082584E+02  0.00000000000E+00 0. -1.
          1   -1    0    0  501    0 -0.00000000000E+00 -0.00000000000E+00 -0.12808402228E+04  0.12808402228E+04  0.00000000000E+00 0. -1.
         25    2    1    2    0    0  0.16539750390E+03  0.24385968202E+02 -0.29874614294E+03  0.36445112040E+03  0.12499740596E+03 0.  0.
          2    1    1    2  501    0 -0.12733027195E+03 -0.52900798437E+02 -0.93089098177E+03  0.94104702994E+03  0.00000000000E+00 0. -1.
          1    1    1    2  502    0 -0.38067231946E+02  0.28514830235E+02  0.29337984445E+02  0.55883155089E+02  0.00000000000E+00 0. -1.
         22    1    3    3    0    0  0.86746290988E+02 -0.50005451558E+02 -0.13286749482E+03  0.16637077678E+03  0.00000000000E+00 0. -1.
         22    1    3    3    0    0  0.78651212912E+02  0.74391419760E+02 -0.16587864812E+03  0.19808034362E+03  0.00000000000E+00 0. -1.
</event>
<event>
 7    1  0.6152634E-006  0.9574756E+02  0.7818608E-02  0.1456108E+00
          2   -1    0    0  502    0  0.00000000000E+00  0.00000000000E+00  0.56893538110E+03  0.56893538110E+03  0.00000000000E+00 0. -1.
          1   -1    0    0  501    0 -0.00000000000E+00 -0.00000000000E+00 -0.27823321338E+03  0.27823321338E+03  0.00000000000E+00 0. -1.
         25    2    1    2    0    0  0.66213436652E+02  0.30814821454E+02 -0.17216042595E+03  0.22494001116E+03  0.12500009577E+03 0.  0.
          2    1    1    2  501    0  0.17595673455E+02  0.16499273182E+02 -0.73470482056E+02  0.77328813992E+02  0.00000000000E+00 0. -1.
          1    1    1    2  502    0 -0.83809110106E+02 -0.47314094636E+02  0.53633307573E+03  0.54489976933E+03  0.00000000000E+00 0. -1.
         22    1    3    3    0    0  0.53297675614E+02  0.42263686743E+01 -0.18510411605E+03  0.19267080266E+03  0.00000000000E+00 0.  1.
         22    1    3    3    0    0  0.12915761038E+02  0.26588452780E+02  0.12943690093E+02  0.32269208507E+02  0.00000000000E+00 0.  1.
</event>
<event>
 7    1  0.6152634E-006  0.1402279E+03  0.7818608E-02  0.1270243E+00
          2   -1    0    0  502    0  0.00000000000E+00  0.00000000000E+00  0.49290229575E+04  0.49290229575E+04  0.00000000000E+00 0. -1.
          1   -1    0    0  501    0 -0.00000000000E+00 -0.00000000000E+00 -0.66789594196E+03  0.66789594196E+03  0.00000000000E+00 0. -1.
         25    2    1    2    0    0  0.54645838233E+02  0.14177985715E+03  0.15487372361E+02  0.19736408600E+03  0.12500011285E+03 0.  0.
          2    1    1    2  501    0 -0.11085651860E+03 -0.86943566446E+02 -0.56803212420E+03  0.58524255278E+03  0.00000000000E+00 0. -1.
          1    1    1    2  502    0  0.56210680363E+02 -0.54836290700E+02  0.48136717673E+04  0.48143122607E+04  0.00000000000E+00 0. -1.
         22    1    3    3    0    0  0.33767105284E+02  0.15776231045E+03 -0.87922725688E+01  0.16157496110E+03  0.00000000000E+00 0.  1.
         22    1    3    3    0    0  0.20878732950E+02 -0.15982453306E+02  0.24279644930E+02  0.35789124901E+02  0.00000000000E+00 0.  1.
</event>
<event>
 7    1  0.6152634E-006  0.7025703E+02  0.7818608E-02  0.1367607E+00
          2   -1    0    0  502    0  0.00000000000E+00  0.00000000000E+00  0.89687901422E+02  0.89687901422E+02  0.00000000000E+00 0. -1.
          1   -1    0    0  501    0 -0.00000000000E+00 -0.00000000000E+00 -0.15463447182E+04  0.15463447182E+04  0.00000000000E+00 0. -1.
         25    2    1    2    0    0 -0.10263345901E+03  0.51027833047E+02 -0.66879248037E+03  0.68996071872E+03  0.12499977970E+03 0.  0.
          2    1    1    2  501    0  0.33243088035E+02 -0.56437355375E+02 -0.85015069315E+03  0.85267020533E+03  0.00000000000E+00 0. -1.
          1    1    1    2  502    0  0.69390370971E+02  0.54095223278E+01  0.62286356695E+02  0.93401695625E+02  0.00000000000E+00 0. -1.
         22    1    3    3    0    0 -0.27418318542E+02  0.35255581625E+02 -0.52520451390E+03  0.52710008694E+03  0.00000000000E+00 0. -1.
         22    1    3    3    0    0 -0.75215140464E+02  0.15772251422E+02 -0.14358796646E+03  0.16286063178E+03  0.00000000000E+00 0. -1.
</event>
<event>
 7    1  0.6152634E-006  0.8548973E+02  0.7818608E-02  0.1390824E+00
          2   -1    0    0  502    0  0.00000000000E+00  0.00000000000E+00  0.21285742269E+03  0.21285742269E+03  0.00000000000E+00 0. -1.
          1   -1    0    0  501    0 -0.00000000000E+00 -0.00000000000E+00 -0.32887150742E+03  0.32887150742E+03  0.00000000000E+00 0. -1.
         25    2    1    2    0    0 -0.49122935862E+02 -0.15035525458E+02 -0.60284086905E+01  0.13528082400E+03  0.12500171910E+03 0.  0.
          2    1    1    2  501    0  0.73020947570E+02  0.52613797718E+02 -0.24673111072E+03  0.26263379731E+03  0.00000000000E+00 0. -1.
          1    1    1    2  502    0 -0.23898011708E+02 -0.37578272260E+02  0.13674543468E+03  0.14381430880E+03  0.00000000000E+00 0. -1.
         22    1    3    3    0    0  0.13591838582E+02 -0.84630463172E+01 -0.53824553259E+02  0.56155531896E+02  0.00000000000E+00 0. -1.
         22    1    3    3    0    0 -0.62714774444E+02 -0.65724791408E+01  0.47796144569E+02  0.79125292108E+02  0.00000000000E+00 0. -1.
</event>
<event>
 7    1  0.6152634E-006  0.3584163E+03  0.7818608E-02  0.1300397E+00
          2   -1    0    0  502    0  0.00000000000E+00  0.00000000000E+00  0.19090326603E+04  0.19090326603E+04  0.00000000000E+00 0. -1.
          1   -1    0    0  501    0 -0.00000000000E+00 -0.00000000000E+00 -0.21317310776E+03  0.21317310776E+03  0.00000000000E+00 0. -1.
         25    2    1    2    0    0 -0.37729428998E+03  0.13182586153E+02  0.29283394642E+03  0.49386411963E+03  0.12500114661E+03 0.  0.
          2    1    1    2  501    0  0.22982860940E+02 -0.24704312556E+01 -0.90459619233E+02  0.93366255357E+02  0.00000000000E+00 0. -1.
          1    1    1    2  502    0  0.35431142904E+03 -0.10712154898E+02  0.14934852253E+04  0.15349753930E+04  0.00000000000E+00 0. -1.
         22    1    3    3    0    0 -0.30862299676E+02 -0.22540532485E+02  0.71907895122E+02  0.81432809892E+02  0.00000000000E+00 0.  1.
         22    1    3    3    0    0 -0.34643199031E+03  0.35723118638E+02  0.22092605130E+03  0.41243130974E+03  0.00000000000E+00 0.  1.
</event>
<event>
 7    1  0.6152634E-006  0.1597927E+03  0.7818608E-02  0.1268240E+00
          2   -1    0    0  502    0  0.00000000000E+00  0.00000000000E+00  0.22451504348E+04  0.22451504348E+04  0.00000000000E+00 0. -1.
          1   -1    0    0  501    0 -0.00000000000E+00 -0.00000000000E+00 -0.34254777554E+02  0.34254777554E+02  0.00000000000E+00 0. -1.
         25    2    1    2    0    0  0.21778013504E+02  0.16295814283E+03  0.14923582064E+04  0.15065813937E+04  0.12499936593E+03 0.  0.
          2    1    1    2  501    0  0.47910898553E+02 -0.15399595398E+03  0.23999190540E+03  0.28914757945E+03  0.00000000000E+00 0. -1.
          1    1    1    2  502    0 -0.69688912056E+02 -0.89621888484E+01  0.47854554549E+03  0.48367623924E+03  0.00000000000E+00 0. -1.
         22    1    3    3    0    0  0.30836005173E+02  0.15025021338E+03  0.14760922958E+04  0.14840399091E+04  0.00000000000E+00 0. -1.
         22    1    3    3    0    0 -0.90579916698E+01  0.12707929454E+02  0.16265910558E+02  0.22541484654E+02  0.00000000000E+00 0. -1.
</event>
<event>
 7    1  0.6152634E-006  0.7660742E+02  0.7818608E-02  0.1360423E+00
          2   -1    0    0  502    0  0.00000000000E+00  0.00000000000E+00  0.81096946291E+03  0.81096946291E+03  0.00000000000E+00 0. -1.
          1   -1    0    0  501    0 -0.00000000000E+00 -0.00000000000E+00 -0.74062028771E+02  0.74062028771E+02  0.00000000000E+00 0. -1.
         25    2    1    2    0    0  0.61887129973E+02  0.99717561255E+02  0.47514173263E+03  0.50513186507E+03  0.12499970457E+03 0.  0.
          2    1    1    2  501    0 -0.55342257513E+02 -0.31714150499E+02 -0.36784961536E+02  0.73632100362E+02  0.00000000000E+00 0. -1.
          1    1    1    2  502    0 -0.65448724594E+01 -0.68003410756E+02  0.29855066305E+03  0.30626752626E+03  0.00000000000E+00 0. -1.
         22    1    3    3    0    0  0.86073481682E+01  0.59336419278E+01  0.29487202510E+03  0.29505729230E+03  0.00000000000E+00 0.  1.
         22    1    3    3    0    0  0.53279781805E+02  0.93783919327E+02  0.18026970752E+03  0.21007457277E+03  0.00000000000E+00 0.  1.
</event>
<event>
 7    1  0.6152634E-006  0.6130186E+02  0.7818608E-02  0.1438507E+00
          2   -1    0    0  502    0  0.00000000000E+00  0.00000000000E+00  0.89212268148E+02  0.89212268148E+02  0.00000000000E+00 0. -1.
          1   -1    0    0  501    0 -0.00000000000E+00 -0.00000000000E+00 -0.84146857338E+03  0.84146857338E+03  0.00000000000E+00 0. -1.
         25    2    1    2    0    0  0.54840594702E+02  0.14475331462E+02 -0.30036575976E+03  0.33024285221E+03  0.12499490289E+03 0.  0.
          2    1    1    2  501    0 -0.56870834337E+02  0.28389242519E+02 -0.51785624018E+03  0.52174258632E+03  0.00000000000E+00 0. -1.
          1    1    1    2  502    0  0.20302396356E+01 -0.42864573981E+02  0.65965694705E+02  0.78695403001E+02  0.00000000000E+00 0. -1.
         22    1    3    3    0    0 -0.34234993766E+02 -0.21240342068E+02 -0.10792505754E+03  0.11519984798E+03  0.00000000000E+00 0. -1.
         22    1    3    3    0    0  0.89075588467E+02  0.35715673530E+02 -0.19244070222E+03  0.21504300422E+03  0.00000000000E+00 0. -1.
</event>
<event>
 7    1  0.6152634E-006  0.1838808E+03  0.7818608E-02  0.1375361E+00
          2   -1    0    0  502    0  0.00000000000E+00  0.00000000000E+00  0.54620326084E+03  0.54620326084E+03  0.00000000000E+00 0. -1.
          1   -1    0    0  501    0 -0.00000000000E+00 -0.00000000000E+00 -0.24300939841E+03  0.24300939841E+03  0.00000000000E+00 0. -1.
         25    2    1    2    0    0  0.12169905212E+03  0.11369114799E+03  0.82840846152E+02  0.22410699474E+03  0.12500001153E+03 0.  0.
          2    1    1    2  501    0 -0.13638317270E+03 -0.13200488006E+03 -0.11960006578E+03  0.22434311643E+03  0.00000000000E+00 0. -1.
          1    1    1    2  502    0  0.14684120577E+02  0.18313732072E+02  0.33995308206E+03  0.34076254809E+03  0.00000000000E+00 0. -1.
         22    1    3    3    0    0  0.95637261939E+02  0.24972285446E+02  0.86812421732E+02  0.13155416177E+03  0.00000000000E+00 0.  1.
         22    1    3    3    0    0  0.26061790180E+02  0.88718862542E+02 -0.39715755801E+01  0.92552832970E+02  0.00000000000E+00 0.  1.
</event>
<event>
 7    1  0.6152634E-006  0.6651066E+02  0.7818608E-02  0.1460850E+00
          2   -1    0    0  502    0  0.00000000000E+00  0.00000000000E+00  0.22702890708E+04  0.22702890708E+04  0.00000000000E+00 0. -1.
          1   -1    0    0  501    0 -0.00000000000E+00 -0.00000000000E+00 -0.97370585079E+02  0.97370585079E+02  0.00000000000E+00 0. -1.
         25    2    1    2    0    0 -0.92987181019E+02 -0.21340769057E+02  0.34467813637E+03  0.37885376328E+03  0.12500044800E+03 0.  0.
          2    1    1    2  501    0  0.33098765304E+02 -0.54619004855E+01 -0.76188607655E+02  0.83247009304E+02  0.00000000000E+00 0. -1.
          1    1    1    2  502    0  0.59888415715E+02  0.26802669543E+02  0.19044289570E+04  0.19055588833E+04  0.00000000000E+00 0. -1.
         22    1    3    3    0    0 -0.45272662191E+02 -0.66821402324E+02  0.11933961037E+03  0.14407170560E+03  0.00000000000E+00 0. -1.
         22    1    3    3    0    0 -0.47714518828E+02  0.45480633267E+02  0.22533852600E+03  0.23478205768E+03  0.00000000000E+00 0. -1.
</event>
<event>
 7    1  0.6152634E-006  0.4950453E+02  0.7818608E-02  0.1483781E+00
          2   -1    0    0  502    0  0.00000000000E+00  0.00000000000E+00  0.86045084833E+03  0.86045084833E+03  0.00000000000E+00 0. -1.
          1   -1    0    0  501    0 -0.00000000000E+00 -0.00000000000E+00 -0.38433151049E+02  0.38433151049E+02  0.00000000000E+00 0. -1.
         25    2    1    2    0    0  0.24104463382E+02  0.66741441286E+02  0.53339611982E+03  0.55242364676E+03  0.12500007891E+03 0.  0.
          2    1    1    2  501    0 -0.37930508482E+02 -0.31063114156E+02 -0.59745983758E+01  0.49389638189E+02  0.00000000000E+00 0. -1.
          1    1    1    2  502    0  0.13826045099E+02 -0.35678327130E+02  0.29459617584E+03  0.29707071443E+03  0.00000000000E+00 0. -1.
         22    1    3    3    0    0  0.53360277951E+02  0.46154339585E+02  0.13408642215E+03  0.15151472183E+03  0.00000000000E+00 0. -1.
         22    1    3    3    0    0 -0.29255814569E+02  0.20587101701E+02  0.39930969767E+03  0.40090892494E+03  0.00000000000E+00 0. -1.
</event>
<event>
 7    1  0.6152634E-006  0.1222154E+03  0.7818608E-02  0.1329962E+00
          2   -1    0    0  502    0  0.00000000000E+00  0.00000000000E+00  0.25734903118E+03  0.25734903118E+03  0.00000000000E+00 0. -1.
          1   -1    0    0  501    0 -0.00000000000E+00 -0.00000000000E+00 -0.21216186711E+04  0.21216186711E+04  0.00000000000E+00 0. -1.
         25    2    1    2    0    0 -0.12621201963E+03 -0.24031363552E+02  0.18009933135E+03  0.25411184637E+03  0.12502032226E+03 0.  0.
          2    1    1    2  501    0  0.13967158484E+02  0.50035599742E+02 -0.20011110744E+04  0.20017852469E+04  0.00000000000E+00 0. -1.
          1    1    1    2  502    0  0.11224486114E+03 -0.26004236190E+02 -0.43257896874E+02  0.12307060898E+03  0.00000000000E+00 0. -1.
         22    1    3    3    0    0 -0.53928734218E+02 -0.91372293543E+01 -0.49181888398E+01  0.54917992645E+02  0.00000000000E+00 0.  1.
         22    1    3    3    0    0 -0.72283285409E+02 -0.14894134198E+02  0.18501752019E+03  0.19919385372E+03  0.00000000000E+00 0.  1.
</event>
<event>
 7    1  0.6152634E-006  0.4654010E+02  0.7818608E-02  0.1507778E+00
          2   -1    0    0  502    0  0.00000000000E+00  0.00000000000E+00  0.36069662194E+02  0.36069662194E+02  0.00000000000E+00 0. -1.
          1   -1    0    0  501    0 -0.00000000000E+00 -0.00000000000E+00 -0.12255750828E+04  0.12255750828E+04  0.00000000000E+00 0. -1.
         25    2    1    2    0    0  0.44727685960E+02  0.65577438406E+01 -0.61837583376E+03  0.63250119339E+03  0.12500207187E+03 0.  0.
          2    1    1    2  501    0 -0.15961807735E+02  0.30563265205E+02 -0.58027555800E+03  0.58129907595E+03  0.00000000000E+00 0. -1.
          1    1    1    2  502    0 -0.28765878225E+02 -0.37121009046E+02  0.91459711492E+01  0.47844475657E+02  0.00000000000E+00 0. -1.
         22    1    3    3    0    0 -0.18058800330E+02 -0.13166017270E+02 -0.18461348467E+02  0.28987681303E+02  0.00000000000E+00 0. -1.
         22    1    3    3    0    0  0.62786486290E+02  0.19723761110E+02 -0.59991448529E+03  0.60351351209E+03  0.00000000000E+00 0. -1.
</event>
<event>
 7    1  0.6152634E-006  0.1007573E+03  0.7818608E-02  0.1395009E+00
          2   -1    0    0  502    0  0.00000000000E+00  0.00000000000E+00  0.18902173300E+04  0.18902173300E+04  0.00000000000E+00 0. -1.
          1   -1    0    0  501    0 -0.00000000000E+00 -0.00000000000E+00 -0.56279385485E+02  0.56279385485E+02  0.00000000000E+00 0. -1.
         25    2    1    2    0    0  0.42991188208E+02  0.97601132407E+02  0.94120675950E+03  0.95544146597E+03  0.12499602981E+03 0.  0.
          2    1    1    2  501    0 -0.69755432902E+02 -0.72722817402E+02  0.32477046649E+01  0.10082150651E+03  0.00000000000E+00 0. -1.
          1    1    1    2  502    0  0.26764244694E+02 -0.24878315005E+02  0.88948348034E+03  0.89023374299E+03  0.00000000000E+00 0. -1.
         22    1    3    3    0    0 -0.12078231780E+02  0.10999977637E+02  0.57209066873E+03  0.57232387373E+03  0.00000000000E+00 0.  1.
         22    1    3    3    0    0  0.55069419988E+02  0.86601154770E+02  0.36911609077E+03  0.38311759225E+03  0.00000000000E+00 0.  1.
</event>
<event>
 7    1  0.6152634E-006  0.8138292E+02  0.7818608E-02  0.1401998E+00
          2   -1    0    0  502    0  0.00000000000E+00  0.00000000000E+00  0.30839976186E+03  0.30839976186E+03  0.00000000000E+00 0. -1.
          1   -1    0    0  501    0 -0.00000000000E+00 -0.00000000000E+00 -0.47227249241E+03  0.47227249241E+03  0.00000000000E+00 0. -1.
         25    2    1    2    0    0  0.49490765912E+02  0.97290420801E+01  0.18241697792E+02  0.13602126073E+03  0.12500013465E+03 0.  0.
          2    1    1    2  501    0 -0.67804742359E+02 -0.48412627293E+02 -0.40714730214E+03  0.41558415659E+03  0.00000000000E+00 0. -1.
          1    1    1    2  502    0  0.18313976447E+02  0.38683585213E+02  0.22503287380E+03  0.22906683695E+03  0.00000000000E+00 0. -1.
         22    1    3    3    0    0 -0.74108161259E+01 -0.79208655595E+01  0.61466507163E+02  0.62416278403E+02  0.00000000000E+00 0. -1.
         22    1    3    3    0    0  0.56901582038E+02  0.17649907640E+02 -0.43224809371E+02  0.73604982326E+02  0.00000000000E+00 0. -1.
</event>
<event>
 7    1  0.6152634E-006  0.1266002E+03  0.7818608E-02  0.1373585E+00
          2   -1    0    0  502    0  0.00000000000E+00  0.00000000000E+00  0.12262092226E+04  0.12262092226E+04  0.00000000000E+00 0. -1.
          1   -1    0    0  501    0 -0.00000000000E+00 -0.00000000000E+00 -0.42390288295E+03  0.42390288295E+03  0.00000000000E+00 0. -1.
         25    2    1    2    0    0  0.85016485848E+02  0.11223611459E+03  0.59548623271E+02  0.19747349960E+03  0.12499998490E+03 0.  0.
          2    1    1    2  501    0 -0.34445630679E+02  0.32217155934E+01 -0.35046746694E+03  0.35217087658E+03  0.00000000000E+00 0. -1.
          1    1    1    2  502    0 -0.50570855169E+02 -0.11545783018E+03  0.10932251833E+04  0.11004677294E+04  0.00000000000E+00 0. -1.
         22    1    3    3    0    0  0.42816178667E+02 -0.20422459983E+02  0.26723526129E+02  0.54446752669E+02  0.00000000000E+00 0. -1.
         22    1    3    3    0    0  0.42200307181E+02  0.13265857457E+03  0.32825097142E+02  0.14302674693E+03  0.00000000000E+00 0. -1.
</event>
<event>
 7    1  0.6152634E-006  0.4564032E+02  0.7818608E-02  0.1525648E+00
          2   -1    0    0  502    0  0.00000000000E+00  0.00000000000E+00  0.23917924418E+04  0.23917924418E+04  0.00000000000E+00 0. -1.
          1   -1    0    0  501    0 -0.00000000000E+00 -0.00000000000E+00 -0.73714635255E+02  0.73714635255E+02  0.00000000000E+00 0. -1.
         25    2    1    2    0    0 -0.16317214574E+01 -0.66326948697E+01  0.69413224483E+01  0.12537715735E+03  0.12499837787E+03 0.  0.
          2    1    1    2  501    0  0.46984026519E+02  0.11752002542E+02  0.26828128434E+02  0.55365664332E+02  0.00000000000E+00 0. -1.
          1    1    1    2  502    0 -0.45352305061E+02 -0.51193076724E+01  0.22843083557E+04  0.22847642554E+04  0.00000000000E+00 0. -1.
         22    1    3    3    0    0  0.47315980380E+02 -0.43081381282E+02  0.67834094134E+01  0.64349219542E+02  0.00000000000E+00 0.  1.
         22    1    3    3    0    0 -0.48947701837E+02  0.36448686412E+02  0.15791303493E+00  0.61027937806E+02  0.00000000000E+00 0.  1.
</event>
<event>
 7    1  0.6152634E-006  0.1398677E+03  0.7818608E-02  0.1276842E+00
          2   -1    0    0  502    0  0.00000000000E+00  0.00000000000E+00  0.10432621275E+04  0.10432621275E+04  0.00000000000E+00 0. -1.
          1   -1    0    0  501    0 -0.00000000000E+00 -0.00000000000E+00 -0.60261824704E+03  0.60261824704E+03  0.00000000000E+00 0. -1.
         25    2    1    2    0    0 -0.15203527709E+03  0.91653828602E+02 -0.10597733549E+03  0.24160181326E+03  0.12500036303E+03 0.  0.
          2    1    1    2  501    0  0.14171628446E+02 -0.72519054645E+02 -0.42062679262E+03  0.42706761409E+03  0.00000000000E+00 0. -1.
          1    1    1    2  502    0  0.13786364864E+03 -0.19134773957E+02  0.96724800853E+03  0.97721094714E+03  0.00000000000E+00 0. -1.
         22    1    3    3    0    0 -0.95701995138E+02 -0.10005353577E+02 -0.23397379046E+02  0.99027351373E+02  0.00000000000E+00 0. -1.
         22    1    3    3    0    0 -0.56333281948E+02  0.10165918218E+03 -0.82579956448E+02  0.14257446189E+03  0.00000000000E+00 0. -1.
</event>
<event>
 7    1  0.6152634E-006  0.8930926E+02  0.7818608E-02  0.1359140E+00
          2   -1    0    0  502    0  0.00000000000E+00  0.00000000000E+00  0.12055113339E+04  0.12055113339E+04  0.00000000000E+00 0. -1.
          1   -1    0    0  501    0 -0.00000000000E+00 -0.00000000000E+00 -0.30304193185E+03  0.30304193185E+03  0.00000000000E+00 0. -1.
         25    2    1    2    0    0 -0.68221183887E+02 -0.10791468800E+03  0.15152576677E+03  0.23428513354E+03  0.12501902250E+03 0.  0.
          2    1    1    2  501    0  0.50851715318E+02  0.21747473954E+02 -0.25680506870E+03  0.26269315348E+03  0.00000000000E+00 0. -1.
          1    1    1    2  502    0  0.17369468569E+02  0.86167214043E+02  0.10077487040E+04  0.10115749787E+04  0.00000000000E+00 0. -1.
         22    1    3    3    0    0 -0.43326546412E+02  0.47508209903E+01 -0.30441595596E+00  0.43587298530E+02  0.00000000000E+00 0. -1.
         22    1    3    3    0    0 -0.24894637475E+02 -0.11266550899E+03  0.15183018273E+03  0.19069783501E+03  0.00000000000E+00 0. -1.
</event>
<event>
 7    1  0.6152634E-006  0.9271079E+02  0.7818608E-02  0.1391330E+00
          2   -1    0    0  502    0  0.00000000000E+00  0.00000000000E+00  0.80632120383E+03  0.80632120383E+03  0.00000000000E+00 0. -1.
          1   -1    0    0  501    0 -0.00000000000E+00 -0.00000000000E+00 -0.19598452476E+04  0.19598452476E+04  0.00000000000E+00 0. -1.
         25    2    1    2    0    0  0.45301272458E+02  0.36446300307E+02 -0.37025879345E+02  0.14275236558E+03  0.12500713597E+03 0.  0.
          2    1    1    2  501    0 -0.86199515687E+02 -0.36284106262E+02 -0.18682305110E+04  0.18705700027E+04  0.00000000000E+00 0. -1.
          1    1    1    2  502    0  0.40898243229E+02 -0.16219404458E+00  0.75173234658E+03  0.75284408313E+03  0.00000000000E+00 0. -1.
         22    1    3    3    0    0  0.99311281424E+01 -0.46312523042E+02 -0.70255406798E+01  0.47883560003E+02  0.00000000000E+00 0. -1.
         22    1    3    3    0    0  0.35370144315E+02  0.82758823349E+02 -0.30000338666E+02  0.94868805574E+02  0.00000000000E+00 0. -1.
</event>
<event>
 7    1  0.6152634E-006  0.9412135E+02  0.7818608E-02  0.1433389E+00
          2   -1    0    0  502    0  0.00000000000E+00  0.00000000000E+00  0.16466158871E+04  0.16466158871E+04  0.00000000000E+00 0. -1.
          1   -1    0    0  501    0 -0.00000000000E+00 -0.00000000000E+00 -0.22534284584E+04  0.22534284584E+04  0.00000000000E+00 0. -1.
         25    2    1    2    0    0 -0.43649723364E+02 -0.81924079430E+02  0.52336452492E+02  0.16426740621E+03  0.12501129287E+03 0.  0.
          2    1    1    2  501    0  0.67630371705E+02  0.65536276926E+02 -0.21963167354E+04  0.21983348410E+04  0.00000000000E+00 0. -1.
          1    1    1    2  502    0 -0.23980648341E+02  0.16387802504E+02  0.15371677117E+04  0.15374420982E+04  0.00000000000E+00 0. -1.
         22    1    3    3    0    0 -0.42182689468E+02 -0.83590086977E+02 -0.16774066586E+02  0.95121244953E+02  0.00000000000E+00 0. -1.
         22    1    3    3    0    0 -0.14670338958E+01  0.16660075475E+01  0.69110519078E+02  0.69146161259E+02  0.00000000000E+00 0. -1.
</event>
<event>
 7    1  0.6152634E-006  0.1007102E+03  0.7818608E-02  0.1385221E+00
          2   -1    0    0  502    0  0.00000000000E+00  0.00000000000E+00  0.37850536911E+03  0.37850536911E+03  0.00000000000E+00 0. -1.
          1   -1    0    0  501    0 -0.00000000000E+00 -0.00000000000E+00 -0.15527294903E+03  0.15527294903E+03  0.00000000000E+00 0. -1.
         25    2    1    2    0    0 -0.15917192339E+02 -0.81371329438E+02  0.73140074040E+02  0.16687965773E+03  0.12499879786E+03 0.  0.
          2    1    1    2  501    0  0.31979200416E+02 -0.23269835515E+02 -0.93377651433E+02  0.10140779206E+03  0.00000000000E+00 0. -1.
          1    1    1    2  502    0 -0.16062008077E+02  0.10464116495E+03  0.24346999748E+03  0.26549086835E+03  0.00000000000E+00 0. -1.
         22    1    3    3    0    0 -0.61640857510E+02 -0.47886296960E+02  0.77555468022E+02  0.11003428271E+03  0.00000000000E+00 0. -1.
         22    1    3    3    0    0  0.45723665171E+02 -0.33485032478E+02 -0.44153939816E+01  0.56845375016E+02  0.00000000000E+00 0. -1.
</event>
<event>
 7    1  0.6152634E-006  0.1235992E+03  0.7818608E-02  0.1325351E+00
          2   -1    0    0  502    0  0.00000000000E+00  0.00000000000E+00  0.16977747848E+03  0.16977747848E+03  0.00000000000E+00 0. -1.
          1   -1    0    0  501    0 -0.00000000000E+00 -0.00000000000E+00 -0.50800949776E+03  0.50800949776E+03  0.00000000000E+00 0. -1.
         25    2    1    2    0    0  0.15383515242E+03  0.20398675537E+02 -0.29785077912E+03  0.35835873010E+03  0.12499813091E+03 0.  0.
          2    1    1    2  501    0 -0.10189426786E+03 -0.33224540369E+02 -0.15759334010E+03  0.19058324362E+03  0.00000000000E+00 0. -1.
          1    1    1    2  502    0 -0.51940884560E+02  0.12825864832E+02  0.11721209995E+03  0.12884500251E+03  0.00000000000E+00 0. -1.
         22    1    3    3    0    0  0.50411287552E+02  0.63090772282E+02 -0.17166087400E+03  0.18970819466E+03  0.00000000000E+00 0.  1.
         22    1    3    3    0    0  0.10342386487E+03 -0.42692096745E+02 -0.12618990512E+03  0.16865053544E+03  0.00000000000E+00 0.  1.
</event>
<event>
 7    1  0.6152634E-006  0.1464129E+03  0.7818608E-02  0.1250576E+00
          2   -1    0    0  502    0  0.00000000000E+00  0.00000000000E+00  0.56421774251E+03  0.56421774251E+03  0.00000000000E+00 0. -1.
          1   -1    0    0  501    0 -0.00000000000E+00 -0.00000000000E+00 -0.28167487326E+03  0.28167487326E+03  0.00000000000E+00 0. -1.
         25    2    1    2    0    0 -0.40231194385E+02  0.20841723454E+03  0.11843347039E+02  0.24662082261E+03  0.12500109047E+03 0.  0.
          2    1    1    2  501    0 -0.11082546820E+02 -0.13297888511E+03 -0.13120662998E+03  0.18714001839E+03  0.00000000000E+00 0. -1.
          1    1    1    2  502    0  0.51313741204E+02 -0.75438349425E+02  0.40190615220E+03  0.41213177477E+03  0.00000000000E+00 0. -1.
         22    1    3    3    0    0  0.41638650257E+02  0.36902197356E+02  0.10176500042E+02  0.56560679964E+02  0.00000000000E+00 0.  1.
         22    1    3    3    0    0 -0.81869844642E+02  0.17151503718E+03  0.16668469965E+01  0.19006014264E+03  0.00000000000E+00 0.  1.
</event>
<event>
 7    1  0.6152634E-006  0.7389178E+02  0.7818608E-02  0.1366422E+00
          2   -1    0    0  502    0  0.00000000000E+00  0.00000000000E+00  0.16380403020E+04  0.16380403020E+04  0.00000000000E+00 0. -1.
          1   -1    0    0  501    0 -0.00000000000E+00 -0.00000000000E+00 -0.47625681522E+03  0.47625681522E+03  0.00000000000E+00 0. -1.
         25    2    1    2    0    0 -0.24921726955E+02  0.38716601173E+02  0.13454443878E+03  0.18933571123E+03  0.12500295140E+03 0.  0.
          2    1    1    2  501    0 -0.30585598776E+02 -0.68291878899E+02 -0.44506652663E+03  0.45131305399E+03  0.00000000000E+00 0. -1.
          1    1    1    2  502    0  0.55507325730E+02  0.29575277725E+02  0.14723055747E+04  0.14736483520E+04  0.00000000000E+00 0. -1.
         22    1    3    3    0    0  0.11561731171E+02 -0.39999004918E+02  0.69046681192E+02  0.80629015904E+02  0.00000000000E+00 0.  1.
         22    1    3    3    0    0 -0.36483458126E+02  0.78715606092E+02  0.65497757588E+02  0.10870669532E+03  0.00000000000E+00 0.  1.
</event>
<event>
 7    1  0.6152634E-006  0.3041006E+02  0.7818608E-02  0.1602716E+00
          2   -1    0    0  502    0  0.00000000000E+00  0.00000000000E+00  0.12403853428E+02  0.12403853428E+02  0.00000000000E+00 0. -1.
          1   -1    0    0  501    0 -0.00000000000E+00 -0.00000000000E+00 -0.11950344676E+04  0.11950344676E+04  0.00000000000E+00 0. -1.
         25    2    1    2    0    0  0.16095571200E+02 -0.31258187376E+01 -0.75351073294E+03  0.76398466297E+03  0.12500120976E+03 0.  0.
          2    1    1    2  501    0 -0.10872330671E+02  0.31431203305E+02 -0.40365468336E+03  0.40502250742E+03  0.00000000000E+00 0. -1.
          1    1    1    2  502    0 -0.52232405294E+01 -0.28305384567E+02 -0.25465197880E+02  0.38431150649E+02  0.00000000000E+00 0. -1.
         22    1    3    3    0    0  0.51550066407E+02  0.27166070815E+02 -0.19472761581E+03  0.20325906895E+03  0.00000000000E+00 0.  1.
         22    1    3    3    0    0 -0.35454495207E+02 -0.30291889552E+02 -0.55878311713E+03  0.56072559402E+03  0.00000000000E+00 0.  1.
</event>
<event>
 7    1  0.6152634E-006  0.9036848E+02  0.7818608E-02  0.1320295E+00
          2   -1    0    0  502    0  0.00000000000E+00  0.00000000000E+00  0.26511777235E+04  0.26511777235E+04  0.00000000000E+00 0. -1.
          1   -1    0    0  501    0 -0.00000000000E+00 -0.00000000000E+00 -0.35014639871E+03  0.35014639871E+03  0.00000000000E+00 0. -1.
         25    2    1    2    0    0 -0.10091997546E+03 -0.48082100066E+02  0.33398357339E+02  0.17098717549E+03  0.12499773645E+03 0.  0.
          2    1    1    2  501    0  0.86674579743E+02 -0.27121533679E+02 -0.27343174297E+03  0.28811972933E+03  0.00000000000E+00 0. -1.
          1    1    1    2  502    0  0.14245395714E+02  0.75203633745E+02  0.25410647105E+04  0.25422172174E+04  0.00000000000E+00 0. -1.
         22    1    3    3    0    0 -0.82929245148E+02  0.13470806572E+02 -0.21328798126E+02  0.86681254952E+02  0.00000000000E+00 0.  1.
         22    1    3    3    0    0 -0.17990730309E+02 -0.61552906639E+02  0.54727155465E+02  0.84305920540E+02  0.00000000000E+00 0.  1.
</event>
<event>
 7    1  0.6152634E-006  0.6311127E+02  0.7818608E-02  0.1387369E+00
          2   -1    0    0  502    0  0.00000000000E+00  0.00000000000E+00  0.61975057754E+03  0.61975057754E+03  0.00000000000E+00 0. -1.
          1   -1    0    0  501    0 -0.00000000000E+00 -0.00000000000E+00 -0.66973799218E+02  0.66973799218E+02  0.00000000000E+00 0. -1.
         25    2    1    2    0    0 -0.95151083146E+01  0.53910469411E+02  0.72872088619E+02  0.15469976238E+03  0.12499919672E+03 0.  0.
          2    1    1    2  501    0 -0.51905017093E+02 -0.35901268931E+02  0.17890677031E+02  0.65598081031E+02  0.00000000000E+00 0. -1.
          1    1    1    2  502    0  0.61420125408E+02 -0.18009200480E+02  0.46201401267E+03  0.46642653335E+03  0.00000000000E+00 0. -1.
         22    1    3    3    0    0  0.36316929610E+02  0.64209931504E+02  0.74280148122E+01  0.74141824122E+02  0.00000000000E+00 0.  1.
         22    1    3    3    0    0 -0.45832037925E+02 -0.10299462092E+02  0.65444073807E+02  0.80557938257E+02  0.00000000000E+00 0.  1.
</event>
<event>
 7    1  0.6152634E-006  0.1028604E+03  0.7818608E-02  0.1443245E+00
          2   -1    0    0  502    0  0.00000000000E+00  0.00000000000E+00  0.25121608388E+03  0.25121608388E+03  0.00000000000E+00 0. -1.
          1   -1    0    0  501    0 -0.00000000000E+00 -0.00000000000E+00 -0.15240991819E+04  0.15240991819E+04  0.00000000000E+00 0. -1.
         25    2    1    2    0    0 -0.89500588872E+02 -0.21702322425E+00 -0.24475558216E+03  0.28903299501E+03  0.12499749877E+03 0.  0.
          2    1    1    2  501    0  0.10210926634E+03  0.21440261035E+02 -0.12543676043E+04  0.12586993580E+04  0.00000000000E+00 0. -1.
          1    1    1    2  502    0 -0.12608677467E+02 -0.21223237811E+02  0.22624008845E+03  0.22758291278E+03  0.00000000000E+00 0. -1.
         22    1    3    3    0    0 -0.18314412596E+02 -0.32860085840E+01 -0.20805289464E+03  0.20888327489E+03  0.00000000000E+00 0. -1.
         22    1    3    3    0    0 -0.71186176276E+02  0.30689853597E+01 -0.36702687516E+02  0.80149720117E+02  0.00000000000E+00 0. -1.
</event>
<event>
 7    1  0.6152634E-006  0.7763374E+02  0.7818608E-02  0.1401778E+00
          2   -1    0    0  502    0  0.00000000000E+00  0.00000000000E+00  0.29500628529E+03  0.29500628529E+03  0.00000000000E+00 0. -1.
          1   -1    0    0  501    0 -0.00000000000E+00 -0.00000000000E+00 -0.35143319442E+03  0.35143319442E+03  0.00000000000E+00 0. -1.
         25    2    1    2    0    0  0.38968668773E+02  0.57413258689E+02  0.19583871078E+02  0.14430128254E+03  0.12499797085E+03 0.  0.
          2    1    1    2  501    0  0.48080282661E+00 -0.78948469582E+02 -0.28120591599E+03  0.29207851549E+03  0.00000000000E+00 0. -1.
          1    1    1    2  502    0 -0.39449471600E+02  0.21535210892E+02  0.20519513578E+03  0.21005968168E+03  0.00000000000E+00 0. -1.
         22    1    3    3    0    0  0.47419393788E+02  0.93725498748E+02  0.83827013474E+01  0.10537237638E+03  0.00000000000E+00 0. -1.
         22    1    3    3    0    0 -0.84507250151E+01 -0.36312240059E+02  0.11201169731E+02  0.38928906159E+02  0.00000000000E+00 0. -1.
</event>
<event>
 7    1  0.6152634E-006  0.1328650E+03  0.7818608E-02  0.1344410E+00
          2   -1    0    0  502    0  0.00000000000E+00  0.00000000000E+00  0.78189563024E+03  0.78189563024E+03  0.00000000000E+00 0. -1.
          1   -1    0    0  501    0 -0.00000000000E+00 -0.00000000000E+00 -0.53549927771E+03  0.53549927771E+03  0.00000000000E+00 0. -1.
         25    2    1    2    0    0 -0.76233085195E+02 -0.54351209467E+02  0.41462379009E+03  0.44306182546E+03  0.12500142649E+03 0.  0.
          2    1    1    2  501    0  0.98985784107E+02  0.89820938976E+02 -0.51140189498E+03  0.52858101056E+03  0.00000000000E+00 0. -1.
          1    1    1    2  502    0 -0.22752698912E+02 -0.35469729509E+02  0.34317445742E+03  0.34575207193E+03  0.00000000000E+00 0. -1.
         22    1    3    3    0    0 -0.13340536626E+00  0.25196942488E+02  0.20261009648E+03  0.20417089632E+03  0.00000000000E+00 0.  1.
         22    1    3    3    0    0 -0.76099679828E+02 -0.79548151956E+02  0.21201369361E+03  0.23889092914E+03  0.00000000000E+00 0.  1.
</event>
<event>
 7    1  0.6152634E-006  0.9221439E+02  0.7818608E-02  0.1400777E+00
          2   -1    0    0  502    0  0.00000000000E+00  0.00000000000E+00  0.13971658659E+03  0.13971658659E+03  0.00000000000E+00 0. -1.
          1   -1    0    0  501    0 -0.00000000000E+00 -0.00000000000E+00 -0.15035099073E+04  0.15035099073E+04  0.00000000000E+00 0. -1.
         25    2    1    2    0    0  0.11609477159E+03 -0.17251917327E+02 -0.24814243682E+03  0.30162132395E+03  0.12500051787E+03 0.  0.
          2    1    1    2  501    0 -0.90229795320E+02 -0.10775939009E+02 -0.12236758883E+04  0.12270453196E+04  0.00000000000E+00 0. -1.
          1    1    1    2  502    0 -0.25864976270E+02  0.28027856336E+02  0.10802500441E+03  0.11455985032E+03  0.00000000000E+00 0. -1.
         22    1    3    3    0    0 -0.75622722912E+01 -0.43420528153E+02 -0.79093796002E+02  0.90544788880E+02  0.00000000000E+00 0.  1.
         22    1    3    3    0    0  0.12365704388E+03  0.26168610826E+02 -0.16904864082E+03  0.21107653507E+03  0.00000000000E+00 0.  1.
</event>
<event>
 7    1  0.6152634E-006  0.1283130E+03  0.7818608E-02  0.1264870E+00
          2   -1    0    0  502    0  0.00000000000E+00  0.00000000000E+00  0.96307757639E+03  0.96307757639E+03  0.00000000000E+00 0. -1.
          1   -1    0    0  501    0 -0.00000000000E+00 -0.00000000000E+00 -0.12453446474E+03  0.12453446474E+03  0.00000000000E+00 0. -1.
         25    2    1    2    0    0 -0.10546479024E+03  0.12416257430E+03  0.21244863262E+03  0.29546239624E+03  0.12499775700E+03 0.  0.
          2    1    1    2  501    0  0.15052340904E+02 -0.12492792288E+03 -0.30405350085E+02  0.12945286476E+03  0.00000000000E+00 0. -1.
          1    1    1    2  502    0  0.90412449339E+02  0.76534857340E+00  0.65649982912E+03  0.66269678013E+03  0.00000000000E+00 0. -1.
         22    1    3    3    0    0  0.23954572072E+02  0.15402738862E+02  0.68566016041E+01  0.29292983343E+02  0.00000000000E+00 0.  1.
         22    1    3    3    0    0 -0.12941936231E+03  0.10875983544E+03  0.20559203101E+03  0.26616941290E+03  0.00000000000E+00 0.  1.
</event>
<event>
 7    1  0.6152634E-006  0.6544993E+02  0.7818608E-02  0.1472931E+00
          2   -1    0    0  502    0  0.00000000000E+00  0.00000000000E+00  0.12005507548E+04  0.12005507548E+04  0.00000000000E+00 0. -1.
          1   -1    0    0  501    0 -0.00000000000E+00 -0.00000000000E+00 -0.50075809881E+03  0.50075809881E+03  0.00000000000E+00 0. -1.
         25    2    1    2    0    0  0.62007653096E+01  0.56822171919E+02 -0.13295739104E+03  0.19124846373E+03  0.12502439096E+03 0.  0.
          2    1    1    2  501    0  0.24544836089E+02 -0.62427103401E+02 -0.33512241678E+03  0.34176984426E+03  0.00000000000E+00 0. -1.
          1    1    1    2  502    0 -0.30745601398E+02  0.56049314818E+01  0.11678724638E+04  0.11682905456E+04  0.00000000000E+00 0. -1.
         22    1    3    3    0    0  0.17568960263E+02  0.65489490410E+02 -0.11283425451E+02  0.68737598218E+02  0.00000000000E+00 0.  1.
         22    1    3    3    0    0 -0.11368194954E+02 -0.86673184912E+01 -0.12167396559E+03  0.12251086551E+03  0.00000000000E+00 0.  1.
</event>
<event>
 7    1  0.6152634E-006  0.1446726E+03  0.7818608E-02  0.1322227E+00
          2   -1    0    0  502    0  0.00000000000E+00  0.00000000000E+00  0.94140029932E+03  0.94140029932E+03  0.00000000000E+00 0. -1.
          1   -1    0    0  501    0 -0.00000000000E+00 -0.00000000000E+00 -0.67067538232E+03  0.67067538232E+03  0.00000000000E+00 0. -1.
         25    2    1    2    0    0 -0.86825959064E+02  0.10294565520E+03  0.20838810549E+03  0.27782577753E+03  0.12500002024E+03 0.  0.
          2    1    1    2  501    0 -0.39520190988E+02 -0.25428351137E+02 -0.62720116239E+03  0.62895925515E+03  0.00000000000E+00 0. -1.
          1    1    1    2  502    0  0.12634615005E+03 -0.77517304064E+02  0.68953797390E+03  0.70529064896E+03  0.00000000000E+00 0. -1.
         22    1    3    3    0    0 -0.67842441685E+01  0.86003003911E+02  0.50408675578E+02  0.99917852380E+02  0.00000000000E+00 0. -1.
         22    1    3    3    0    0 -0.80041714895E+02  0.16942651290E+02  0.15797942991E+03  0.17790792515E+03  0.00000000000E+00 0. -1.
</event>
<event>
 7    1  0.6152634E-006  0.1806933E+03  0.7818608E-02  0.1213406E+00
          2   -1    0    0  502    0  0.00000000000E+00  0.00000000000E+00  0.27054932558E+04  0.27054932558E+04  0.00000000000E+00 0. -1.
          1   -1    0    0  501    0 -0.00000000000E+00 -0.00000000000E+00 -0.39316567937E+03  0.39316567937E+03  0.00000000000E+00 0. -1.
         25    2    1    2    0    0 -0.93052987418E+02 -0.63540425145E+02  0.16966456188E+03  0.23896991039E+03  0.12499724164E+03 0.  0.
          2    1    1    2  501    0  0.12380231509E+02 -0.10767278915E+03 -0.34664642518E+03  0.36319477384E+03  0.00000000000E+00 0. -1.
          1    1    1    2  502    0  0.80672755909E+02  0.17121321430E+03  0.24893094397E+04  0.24964942510E+04  0.00000000000E+00 0. -1.
         22    1    3    3    0    0 -0.84564586742E+01  0.28591133834E+01  0.12031330740E+03  0.12064401419E+03  0.00000000000E+00 0.  1.
         22    1    3    3    0    0 -0.84596528744E+02 -0.66399538529E+02  0.49351254480E+02  0.11832589620E+03  0.00000000000E+00 0.  1.
</event>
<event>
 7    1  0.6152634E-006  0.4348572E+02  0.7818608E-02  0.1540504E+00
          2   -1    0    0  502    0  0.00000000000E+00  0.00000000000E+00  0.25386751880E+02  0.25386751880E+02  0.00000000000E+00 0. -1.
          1   -1    0    0  501    0 -0.00000000000E+00 -0.00000000000E+00 -0.16244226924E+04  0.16244226924E+04  0.00000000000E+00 0. -1.
         25    2    1    2    0    0  0.52838523748E+01  0.19043254082E+02 -0.31137470460E+03  0.33610835185E+03  0.12499621152E+03 0.  0.
          2    1    1    2  501    0  0.23988630410E+02  0.17485717675E+02 -0.12578576252E+04  0.12582078565E+04  0.00000000000E+00 0. -1.
          1    1    1    2  502    0 -0.29272482785E+02 -0.36528971757E+02 -0.29803610645E+02  0.55493235925E+02  0.00000000000E+00 0. -1.
         22    1    3    3    0    0 -0.48240379981E+02  0.22322408096E+01 -0.24256960118E+03  0.24732999934E+03  0.00000000000E+00 0.  1.
         22    1    3    3    0    0  0.53524232356E+02  0.16811013272E+02 -0.68805103426E+02  0.88778352508E+02  0.00000000000E+00 0.  1.
</event>
<event>
 7    1  0.6152634E-006  0.3651812E+02  0.7818608E-02  0.1618242E+00
          2   -1    0    0  502    0  0.00000000000E+00  0.00000000000E+00  0.11387980980E+04  0.11387980980E+04  0.00000000000E+00 0. -1.
          1   -1    0    0  501    0 -0.00000000000E+00 -0.00000000000E+00 -0.42777263899E+02  0.42777263899E+02  0.00000000000E+00 0. -1.
         25    2    1    2    0    0 -0.42058377531E+02  0.34896458894E+02  0.13432972337E+03  0.19145829985E+03  0.12500054414E+03 0.  0.
          2    1    1    2  501    0  0.21935074061E+02 -0.26360891623E+02  0.67818530028E+01  0.34957654546E+02  0.00000000000E+00 0. -1.
          1    1    1    2  502    0  0.20123303470E+02 -0.85355672715E+01  0.95490925770E+03  0.95515940748E+03  0.00000000000E+00 0. -1.
         22    1    3    3    0    0  0.39208785526E+02  0.12696423459E+02  0.11997017374E+02  0.42923844852E+02  0.00000000000E+00 0. -1.
         22    1    3    3    0    0 -0.81267163057E+02  0.22200035435E+02  0.12233270600E+03  0.14853445500E+03  0.00000000000E+00 0. -1.
</event>
<event>
 7    1  0.6152634E-006  0.6752877E+02  0.7818608E-02  0.1514123E+00
          2   -1    0    0  502    0  0.00000000000E+00  0.00000000000E+00  0.10442475190E+04  0.10442475190E+04  0.00000000000E+00 0. -1.
          1   -1    0    0  501    0 -0.00000000000E+00 -0.00000000000E+00 -0.20604386850E+03  0.20604386850E+03  0.00000000000E+00 0. -1.
         25    2    1    2    0    0 -0.57038236025E+02  0.65015795785E+02  0.34426653037E+03  0.37633195349E+03  0.12500352479E+03 0.  0.
          2    1    1    2  501    0  0.35755474872E+02 -0.56937252315E+02 -0.18386666474E+03  0.19577347902E+03  0.00000000000E+00 0. -1.
          1    1    1    2  502    0  0.21282761153E+02 -0.80785434700E+01  0.67780378489E+03  0.67818595503E+03  0.00000000000E+00 0. -1.
         22    1    3    3    0    0 -0.75320192397E+02 -0.72950804262E+01  0.20180880438E+03  0.21552991232E+03  0.00000000000E+00 0. -1.
         22    1    3    3    0    0  0.18281956372E+02  0.72310876211E+02  0.14245772600E+03  0.16080204117E+03  0.00000000000E+00 0. -1.
</event>
<event>
 7    1  0.6152634E-006  0.1108503E+03  0.7818608E-02  0.1299515E+00
          2   -1    0    0  502    0  0.00000000000E+00  0.00000000000E+00  0.13826599327E+03  0.13826599327E+03  0.00000000000E+00 0. -1.
          1   -1    0    0  501    0 -0.00000000000E+00 -0.00000000000E+00 -0.87680562485E+03  0.87680562485E+03  0.00000000000E+00 0. -1.
         25    2    1    2    0    0 -0.25902700778E+02 -0.13010765466E+03 -0.22233516466E+03  0.28750132942E+03  0.12500054905E+03 0.  0.
          2    1    1    2  501    0  0.79357975789E+02  0.77003100556E+02 -0.60275624454E+03  0.61281502605E+03  0.00000000000E+00 0. -1.
          1    1    1    2  502    0 -0.53455275011E+02  0.53104554106E+02  0.86551777637E+02  0.11475526265E+03  0.00000000000E+00 0. -1.
         22    1    3    3    0    0  0.50230561469E+02 -0.41660068046E+02 -0.87947818700E+02  0.10951479073E+03  0.00000000000E+00 0.  1.
         22    1    3    3    0    0 -0.76133262247E+02 -0.88447586616E+02 -0.13438734596E+03  0.17798653869E+03  0.00000000000E+00 0.  1.
</event>
<event>
 7    1  0.6152634E-006  0.9788754E+02  0.7818608E-02  0.1392469E+00
          2   -1    0    0  502    0  0.00000000000E+00  0.00000000000E+00  0.21478903928E+03  0.21478903928E+03  0.00000000000E+00 0. -1.
          1   -1    0    0  501    0 -0.00000000000E+00 -0.00000000000E+00 -0.24262466456E+04  0.24262466456E+04  0.00000000000E+00 0. -1.
         25    2    1    2    0    0 -0.57614565454E+02  0.35777801491E+02 -0.73251744306E+03  0.74619946554E+03  0.12502939159E+03 0.  0.
          2    1    1    2  501    0 -0.80247272446E+01  0.37535578005E+02 -0.16750144296E+04  0.16754541639E+04  0.00000000000E+00 0. -1.
          1    1    1    2  502    0  0.65639292699E+02 -0.73313379496E+02  0.19607426632E+03  0.21938205549E+03  0.00000000000E+00 0. -1.
         22    1    3    3    0    0 -0.62316257539E+02 -0.33477967782E+02 -0.43324776186E+03  0.43898486698E+03  0.00000000000E+00 0.  1.
         22    1    3    3    0    0  0.47016920850E+01  0.69255769273E+02 -0.29926968120E+03  0.30721459857E+03  0.00000000000E+00 0.  1.
</event>
<event>
 7    1  0.6152634E-006  0.4041191E+03  0.7818608E-02  0.1236978E+00
          2   -1    0    0  502    0  0.00000000000E+00  0.00000000000E+00  0.24392562066E+04  0.24392562066E+04  0.00000000000E+00 0. -1.
          1   -1    0    0  501    0 -0.00000000000E+00 -0.00000000000E+00 -0.29825795055E+03  0.29825795055E+03  0.00000000000E+00 0. -1.
         25    2    1    2    0    0  0.43207610749E+03 -0.45568220614E+02  0.39208755608E+03  0.59843402376E+03  0.12499761508E+03 0.  0.
          2    1    1    2  501    0 -0.35178242712E+02  0.14149866610E+02 -0.17262022168E+03  0.17673558899E+03  0.00000000000E+00 0. -1.
          1    1    1    2  502    0 -0.39689786477E+03  0.31418354004E+02  0.19215309216E+04  0.19623445444E+04  0.00000000000E+00 0. -1.
         22    1    3    3    0    0  0.36979648072E+02 -0.43078160296E+02  0.55566844592E+02  0.79441151073E+02  0.00000000000E+00 0. -1.
         22    1    3    3    0    0  0.39509645941E+03 -0.24900603174E+01  0.33652071149E+03  0.51899287269E+03  0.00000000000E+00 0. -1.
</event>
<event>
 7    1  0.6152634E-006  0.6739278E+02  0.7818608E-02  0.1501302E+00
          2   -1    0    0  502    0  0.00000000000E+00  0.00000000000E+00  0.65679103214E+02  0.65679103214E+02  0.00000000000E+00 0. -1.
          1   -1    0    0  501    0 -0.00000000000E+00 -0.00000000000E+00 -0.74324948996E+03  0.74324948996E+03  0.00000000000E+00 0. -1.
         25    2    1    2    0    0 -0.46218057831E+02 -0.20461926431E+02 -0.93066670069E+02  0.16383166397E+03  0.12499843895E+03 0.  0.
          2    1    1    2  501    0  0.51785328090E+02  0.44719384026E+02 -0.60742232290E+03  0.61126379074E+03  0.00000000000E+00 0. -1.
          1    1    1    2  502    0 -0.55672702582E+01 -0.24257457595E+02  0.22918606220E+02  0.33833138462E+02  0.00000000000E+00 0. -1.
         22    1    3    3    0    0  0.31332410011E+02 -0.40375206911E+02 -0.18300099439E+02  0.54284167947E+02  0.00000000000E+00 0. -1.
         22    1    3    3    0    0 -0.77550467842E+02  0.19913280480E+02 -0.74766570631E+02  0.10954749603E+03  0.00000000000E+00 0. -1.
</event>
<event>
 7    1  0.6152634E-006  0.6319346E+02  0.7818608E-02  0.1530683E+00
          2   -1    0    0  502    0  0.00000000000E+00  0.00000000000E+00  0.49089658624E+02  0.49089658624E+02  0.00000000000E+00 0. -1.
          1   -1    0    0  501    0 -0.00000000000E+00 -0.00000000000E+00 -0.87818749739E+03  0.87818749739E+03  0.00000000000E+00 0. -1.
         25    2    1    2    0    0  0.65852791554E+02 -0.12171245055E+02 -0.19985251526E+03  0.24505174654E+03  0.12499840504E+03 0.  0.
          2    1    1    2  501    0 -0.62472625209E+02 -0.93489931925E+01 -0.64944946270E+03  0.65251424289E+03  0.00000000000E+00 0. -1.
          1    1    1    2  502    0 -0.33801663449E+01  0.21520238247E+02  0.20204139201E+02  0.29711166580E+02  0.00000000000E+00 0. -1.
         22    1    3    3    0    0  0.82252654381E+02  0.22575645077E+02 -0.72224511296E+02  0.11176555344E+03  0.00000000000E+00 0. -1.
         22    1    3    3    0    0 -0.16399862827E+02 -0.34746890132E+02 -0.12762800397E+03  0.13328619310E+03  0.00000000000E+00 0. -1.
</event>
<event>
 7    1  0.6152634E-006  0.7014288E+02  0.7818608E-02  0.1381771E+00
          2   -1    0    0  502    0  0.00000000000E+00  0.00000000000E+00  0.15400646374E+04  0.15400646374E+04  0.00000000000E+00 0. -1.
          1   -1    0    0  501    0 -0.00000000000E+00 -0.00000000000E+00 -0.13472104217E+03  0.13472104217E+03  0.00000000000E+00 0. -1.
         25    2    1    2    0    0 -0.34925441494E+02 -0.87559409588E+02  0.87543609194E+03  0.88932556534E+03  0.12500069373E+03 0.  0.
          2    1    1    2  501    0  0.60653884363E+02  0.35136828793E+02 -0.11674714943E+03  0.13617410666E+03  0.00000000000E+00 0. -1.
          1    1    1    2  502    0 -0.25728442868E+02  0.52422580795E+02  0.64665465276E+03  0.64928600761E+03  0.00000000000E+00 0. -1.
         22    1    3    3    0    0 -0.57831253966E+02 -0.22150032696E+02  0.66265676874E+03  0.66554419165E+03  0.00000000000E+00 0. -1.
         22    1    3    3    0    0  0.22905812471E+02 -0.65409376892E+02  0.21277932320E+03  0.22378137369E+03  0.00000000000E+00 0. -1.
</event>
<event>
 7    1  0.6152634E-006  0.8906899E+02  0.7818608E-02  0.1354804E+00
          2   -1    0    0  502    0  0.00000000000E+00  0.00000000000E+00  0.21677704106E+03  0.21677704106E+03  0.00000000000E+00 0. -1.
          1   -1    0    0  501    0 -0.00000000000E+00 -0.00000000000E+00 -0.47626564348E+03  0.47626564348E+03  0.00000000000E+00 0. -1.
         25    2    1    2    0    0  0.21190702294E+02  0.13506349643E+03 -0.12392235194E+03  0.22287375394E+03  0.12499906780E+03 0.  0.
          2    1    1    2  501    0 -0.29853609756E+02 -0.78195864584E+02 -0.29186031364E+03  0.30362521953E+03  0.00000000000E+00 0. -1.
          1    1    1    2  502    0  0.86629074621E+01 -0.56867631849E+02  0.15629406316E+03  0.16654371107E+03  0.00000000000E+00 0. -1.
         22    1    3    3    0    0  0.20758532339E+02  0.22971385616E+01 -0.80532123161E+02  0.83196252147E+02  0.00000000000E+00 0.  1.
         22    1    3    3    0    0  0.43216995545E+00  0.13276635787E+03 -0.43390228779E+02  0.13967750179E+03  0.00000000000E+00 0.  1.
</event>
<event>
 7    1  0.6152634E-006  0.1804057E+03  0.7818608E-02  0.1301159E+00
          2   -1    0    0  502    0  0.00000000000E+00  0.00000000000E+00  0.14050021960E+04  0.14050021960E+04  0.00000000000E+00 0. -1.
          1   -1    0    0  501    0 -0.00000000000E+00 -0.00000000000E+00 -0.13464833325E+04  0.13464833325E+04  0.00000000000E+00 0. -1.
         25    2    1    2    0    0 -0.20147829003E+03 -0.67814313678E+02  0.47950737796E+03  0.53920868308E+03  0.12500558350E+03 0.  0.
          2    1    1    2  501    0  0.15901766677E+03  0.84448486092E+02 -0.13098899444E+04  0.13222064255E+04  0.00000000000E+00 0. -1.
          1    1    1    2  502    0  0.42460623263E+02 -0.16634172414E+02  0.88890142998E+03  0.89007041993E+03  0.00000000000E+00 0. -1.
         22    1    3    3    0    0 -0.21408910752E+03 -0.56762002962E+02  0.39321989950E+03  0.45130694688E+03  0.00000000000E+00 0.  1.
         22    1    3    3    0    0  0.12610817484E+02 -0.11052310716E+02  0.86287478458E+02  0.87901736208E+02  0.00000000000E+00 0.  1.
</event>
<event>
 7    1  0.6152634E-006  0.1356171E+03  0.7818608E-02  0.1257737E+00
          2   -1    0    0  502    0  0.00000000000E+00  0.00000000000E+00  0.68475444777E+03  0.68475444777E+03  0.00000000000E+00 0. -1.
          1   -1    0    0  501    0 -0.00000000000E+00 -0.00000000000E+00 -0.15501089197E+04  0.15501089197E+04  0.00000000000E+00 0. -1.
         25    2    1    2    0    0 -0.20889066311E+03 -0.42383374789E+02  0.17446905722E+03  0.30248383429E+03  0.12500143394E+03 0.  0.
          2    1    1    2  501    0  0.91724802143E+02 -0.18764888049E+01 -0.14758614403E+04  0.14787102325E+04  0.00000000000E+00 0. -1.
          1    1    1    2  502    0  0.11716586096E+03  0.44259863594E+02  0.43603791114E+03  0.45366930075E+03  0.00000000000E+00 0. -1.
         22    1    3    3    0    0 -0.64566703434E+00  0.21709448432E+02  0.42556931423E+02  0.47778755209E+02  0.00000000000E+00 0.  1.
         22    1    3    3    0    0 -0.20824499607E+03 -0.64092823221E+02  0.13191212580E+03  0.25470507908E+03  0.00000000000E+00 0.  1.
</event>
<event>
 7    1  0.6152634E-006  0.7541781E+02  0.7818608E-02  0.1426246E+00
          2   -1    0    0  502    0  0.00000000000E+00  0.00000000000E+00  0.86125185881E+03  0.86125185881E+03  0.00000000000E+00 0. -1.
          1   -1    0    0  501    0 -0.00000000000E+00 -0.00000000000E+00 -0.14248912302E+04  0.14248912302E+04  0.00000000000E+00 0. -1.
         25    2    1    2    0    0 -0.52784703552E+02 -0.15784790347E+01 -0.69634888640E+02  0.15253935955E+03  0.12502208594E+03 0.  0.
          2    1    1    2  501    0 -0.13166914631E+02 -0.35929470187E+02 -0.13117690512E+04  0.13123270698E+04  0.00000000000E+00 0. -1.
          1    1    1    2  502    0  0.65951618183E+02  0.37507949222E+02  0.81776456847E+03  0.82127665962E+03  0.00000000000E+00 0. -1.
         22    1    3    3    0    0 -0.10889499489E+01  0.21258689907E+02 -0.89987522090E+02  0.92470924297E+02  0.00000000000E+00 0. -1.
         22    1    3    3    0    0 -0.51695753603E+02 -0.22837168942E+02  0.20352633450E+02  0.60068435257E+02  0.00000000000E+00 0. -1.
</event>
