<event>
 7    1  0.6058736E-006  0.8256177E+02  0.7818608E-02  0.1335230E+00
          2   -1    0    0  502    0  0.00000000000E+00  0.00000000000E+00  0.62427328754E+03  0.62427328754E+03  0.00000000000E+00 0. -1.
          1   -1    0    0  501    0 -0.00000000000E+00 -0.00000000000E+00 -0.31017583192E+03  0.31017583192E+03  0.00000000000E+00 0. -1.
         25    2    1    2    0    0  0.35365546016E+02 -0.63581091052E+02  0.33701665931E+02  0.14851256328E+03  0.12500760849E+03 0.  0.
          2    1    1    2  501    0  0.49071637593E+02  0.54625355452E+02 -0.24394918055E+03  0.25476098164E+03  0.00000000000E+00 0. -1.
          1    1    1    2  502    0 -0.84437183609E+02  0.89557355992E+01  0.52434497024E+03  0.53117557454E+03  0.00000000000E+00 0. -1.
         22    1    3    3    0    0 -0.33601919318E+02 -0.62956089781E+02 -0.85963609850E+00  0.71367339845E+02  0.00000000000E+00 0. -1.
         22    1    3    3    0    0  0.68967465333E+02 -0.62500127082E+00  0.34561302029E+02  0.77145223436E+02  0.00000000000E+00 0. -1.
</event>
<event>
 7    1  0.6058736E-006  0.4591852E+02  0.7818608E-02  0.1469248E+00
          2   -1    0    0  502    0  0.00000000000E+00  0.00000000000E+00  0.14485188576E+04  0.14485188576E+04  0.00000000000E+00 0. -1.
          1   -1    0    0  501    0 -0.00000000000E+00 -0.00000000000E+00 -0.56399673378E+03  0.56399673378E+03  0.00000000000E+00 0. -1.
         25    2    1    2    0    0 -0.14503782709E+02 -0.12984913435E+02  0.18447192656E+03  0.22368922348E+03  0.12501203671E+03 0.  0.
          2    1    1    2  501    0 -0.22661658065E+02  0.39952316467E+02 -0.54299455543E+03  0.54493378090E+03  0.00000000000E+00 0. -1.
          1    1    1    2  502    0  0.37165440774E+02 -0.26967403032E+02  0.12430447527E+04  0.12438925870E+04  0.00000000000E+00 0. -1.
         22    1    3    3    0    0 -0.52256039053E+02 -0.30000766185E+02  0.37446436741E+02  0.70943464913E+02  0.00000000000E+00 0. -1.
         22    1    3    3    0    0  0.37752256344E+02  0.17015852750E+02  0.14702548982E+03  0.15274575856E+03  0.00000000000E+00 0. -1.
</event>
<event>
 7    1  0.6058736E-006  0.5212224E+02  0.7818608E-02  0.1523628E+00
          2   -1    0    0  502    0  0.00000000000E+00  0.00000000000E+00  0.98713224971E+03  0.98713224971E+03  0.00000000000E+00 0. -1.
          1   -1    0    0  501    0 -0.00000000000E+00 -0.00000000000E+00 -0.10071862768E+04  0.10071862768E+04  0.00000000000E+00 0. -1.
         25    2    1    2    0    0  0.53509832281E+02 -0.39371819523E+02 -0.77384982177E+02  0.16133001160E+03  0.12500197939E+03 0.  0.
          2    1    1    2  501    0 -0.26367072002E+02  0.44770486383E+02 -0.88686569058E+03  0.88838638669E+03  0.00000000000E+00 0. -1.
          1    1    1    2  502    0 -0.27142760279E+02 -0.53986668600E+01  0.94419664564E+03  0.94460212824E+03  0.00000000000E+00 0. -1.
         22    1    3    3    0    0  0.10385953798E+02 -0.80687459257E+02 -0.37995953897E+02  0.89788789000E+02  0.00000000000E+00 0. -1.
         22    1    3    3    0    0  0.43123878483E+02  0.41315639734E+02 -0.39389028280E+02  0.71541222598E+02  0.00000000000E+00 0. -1.
</event>
<event>
 7    1  0.6058736E-006  0.1079766E+03  0.7818608E-02  0.1450169E+00
          2   -1    0    0  502    0  0.00000000000E+00  0.00000000000E+00  0.18685028162E+04  0.18685028162E+04  0.00000000000E+00 0. -1.
          1   -1    0    0  501    0 -0.00000000000E+00 -0.00000000000E+00 -0.61082258899E+03  0.61082258899E+03  0.00000000000E+00 0. -1.
         25    2    1    2    0    0  0.75594779516E+02 -0.40800289369E+02  0.10715553307E+04  0.10822389069E+04  0.12502395977E+03 0.  0.
          2    1    1    2  501    0 -0.96527626211E+02  0.48608153414E+02 -0.60049818119E+03  0.61014621265E+03  0.00000000000E+00 0. -1.
          1    1    1    2  502    0  0.20932846695E+02 -0.78078640442E+01  0.78662307762E+03  0.78694028557E+03  0.00000000000E+00 0. -1.
         22    1    3    3    0    0  0.10121759753E+03 -0.23308566388E+02  0.98168277690E+03  0.98716227936E+03  0.00000000000E+00 0. -1.
         22    1    3    3    0    0 -0.25622818016E+02 -0.17491722982E+02  0.89872553839E+02  0.95076627567E+02  0.00000000000E+00 0. -1.
</event>
<event>
 7    1  0.6058736E-006  0.1465789E+03  0.7818608E-02  0.1315176E+00
          2   -1    0    0  502    0  0.00000000000E+00  0.00000000000E+00  0.10050616444E+04  0.10050616444E+04  0.00000000000E+00 0. -1.
          1   -1    0    0  501    0 -0.00000000000E+00 -0.00000000000E+00 -0.11643819117E+03  0.11643819117E+03  0.00000000000E+00 0. -1.
         25    2    1    2    0    0 -0.11158322509E+03 -0.79635020791E+02  0.39375525607E+02  0.18965228321E+03  0.12500001541E+03 0.  0.
          2    1    1    2  501    0  0.15432831679E+03  0.54862574231E+02  0.12531404344E+03  0.20622982543E+03  0.00000000000E+00 0. -1.
          1    1    1    2  502    0 -0.42745091699E+02  0.24772446560E+02  0.72393388419E+03  0.72561772694E+03  0.00000000000E+00 0. -1.
         22    1    3    3    0    0 -0.12655045580E+03 -0.58931292733E+02  0.64536675179E+02  0.15379498551E+03  0.00000000000E+00 0.  1.
         22    1    3    3    0    0  0.14967230709E+02 -0.20703728057E+02 -0.25161149572E+02  0.35857297700E+02  0.00000000000E+00 0.  1.
</event>
<event>
 7    1  0.6058736E-006  0.5488626E+02  0.7818608E-02  0.1552229E+00
          2   -1    0    0  502    0  0.00000000000E+00  0.00000000000E+00  0.12784467167E+04  0.12784467167E+04  0.00000000000E+00 0. -1.
          1   -1    0    0  501    0 -0.00000000000E+00 -0.00000000000E+00 -0.29615563635E+03  0.29615563635E+03  0.00000000000E+00 0. -1.
         25    2    1    2    0    0  0.30564991163E+02 -0.17185435249E+02  0.30762428471E+03  0.33389442174E+03  0.12499290562E+03 0.  0.
          2    1    1    2  501    0  0.21439397641E+02 -0.39766927339E+01 -0.28177609999E+03  0.28261852802E+03  0.00000000000E+00 0. -1.
          1    1    1    2  502    0 -0.52004388804E+02  0.21162127983E+02  0.95644289561E+03  0.95808940328E+03  0.00000000000E+00 0. -1.
         22    1    3    3    0    0  0.25075203048E+02  0.24089423804E+02  0.14247179363E+02  0.37577230698E+02  0.00000000000E+00 0.  1.
         22    1    3    3    0    0  0.54897881148E+01 -0.41274859053E+02  0.29337710535E+03  0.29631719104E+03  0.00000000000E+00 0.  1.
</event>
<event>
 7    1  0.6058736E-006  0.8206212E+02  0.7818608E-02  0.1351596E+00
          2   -1    0    0  502    0  0.00000000000E+00  0.00000000000E+00  0.11071507589E+04  0.11071507589E+04  0.00000000000E+00 0. -1.
          1   -1    0    0  501    0 -0.00000000000E+00 -0.00000000000E+00 -0.17348895585E+03  0.17348895585E+03  0.00000000000E+00 0. -1.
         25    2    1    2    0    0  0.32417558484E+02  0.36533744057E+02  0.22525637818E+02  0.13608196984E+03  0.12500114241E+03 0.  0.
          2    1    1    2  501    0 -0.68682890047E+00 -0.92296876874E+02 -0.97282018907E+02  0.13410062050E+03  0.00000000000E+00 0. -1.
          1    1    1    2  502    0 -0.31730729584E+02  0.55763132817E+02  0.10084181841E+04  0.10104571244E+04  0.00000000000E+00 0. -1.
         22    1    3    3    0    0  0.52363492593E+02  0.68610107877E+02  0.39198815633E+02  0.94793614798E+02  0.00000000000E+00 0. -1.
         22    1    3    3    0    0 -0.19945934108E+02 -0.32076363819E+02 -0.16673177816E+02  0.41288355039E+02  0.00000000000E+00 0. -1.
</event>
<event>
 7    1  0.6058736E-006  0.1578478E+03  0.7818608E-02  0.1212007E+00
          2   -1    0    0  502    0  0.00000000000E+00  0.00000000000E+00  0.95138551094E+03  0.95138551094E+03  0.00000000000E+00 0. -1.
          1   -1    0    0  501    0 -0.00000000000E+00 -0.00000000000E+00 -0.36808201107E+03  0.36808201107E+03  0.00000000000E+00 0. -1.
         25    2    1    2    0    0  0.39784662809E+02 -0.15168759478E+03  0.45545698717E+02  0.20566843083E+03  0.12503258361E+03 0.  0.
          2    1    1    2  501    0 -0.14448186034E+03  0.81713885152E+02 -0.25874100649E+03  0.30740701917E+03  0.00000000000E+00 0. -1.
          1    1    1    2  502    0  0.10469719753E+03  0.69973709623E+02  0.79649880764E+03  0.80639207200E+03  0.00000000000E+00 0. -1.
         22    1    3    3    0    0  0.75619861560E+02 -0.91036182934E+02 -0.58103932703E+01  0.11848928532E+03  0.00000000000E+00 0. -1.
         22    1    3    3    0    0 -0.35835198750E+02 -0.60651411841E+02  0.51356091987E+02  0.87179145510E+02  0.00000000000E+00 0. -1.
</event>
<event>
 7    1  0.6058736E-006  0.1059227E+03  0.7818608E-02  0.1397649E+00
          2   -1    0    0  502    0  0.00000000000E+00  0.00000000000E+00  0.30457492518E+03  0.30457492518E+03  0.00000000000E+00 0. -1.
          1   -1    0    0  501    0 -0.00000000000E+00 -0.00000000000E+00 -0.51550817626E+03  0.51550817626E+03  0.00000000000E+00 0. -1.
         25    2    1    2    0    0  0.49965443365E+02  0.81389086103E+02  0.17172759894E+03  0.23288764102E+03  0.12500222492E+03 0.  0.
          2    1    1    2  501    0  0.33848493760E+02  0.35719893187E+01 -0.44924537081E+03  0.45053288762E+03  0.00000000000E+00 0. -1.
          1    1    1    2  502    0 -0.83813937124E+02 -0.84961075422E+02  0.66584520794E+02  0.13666257279E+03  0.00000000000E+00 0. -1.
         22    1    3    3    0    0  0.10031206682E+02 -0.31812658661E+02  0.61267564089E+02  0.69759477980E+02  0.00000000000E+00 0.  1.
         22    1    3    3    0    0  0.39934236683E+02  0.11320174476E+03  0.11046003485E+03  0.16312816304E+03  0.00000000000E+00 0.  1.
</event>
<event>
 7    1  0.6058736E-006  0.5088823E+02  0.7818608E-02  0.1472759E+00
          2   -1    0    0  502    0  0.00000000000E+00  0.00000000000E+00  0.58300694966E+03  0.58300694966E+03  0.00000000000E+00 0. -1.
          1   -1    0    0  501    0 -0.00000000000E+00 -0.00000000000E+00 -0.34658891289E+02  0.34658891289E+02  0.00000000000E+00 0. -1.
         25    2    1    2    0    0  0.30842630906E+02 -0.14187552007E+02  0.23879155105E+03  0.27168019285E+03  0.12504466330E+03 0.  0.
          2    1    1    2  501    0 -0.51894801413E+02 -0.20111401696E+02  0.29381381427E+02  0.62934922471E+02  0.00000000000E+00 0. -1.
          1    1    1    2  502    0  0.21052170507E+02  0.34298953704E+02  0.28017512590E+03  0.28305072563E+03  0.00000000000E+00 0. -1.
         22    1    3    3    0    0 -0.13828897103E+02 -0.61341932216E+02  0.95355732390E+02  0.11422253168E+03  0.00000000000E+00 0.  1.
         22    1    3    3    0    0  0.44671528009E+02  0.47154380208E+02  0.14343581866E+03  0.15745766117E+03  0.00000000000E+00 0.  1.
</event>
<event>
 7    1  0.6058736E-006  0.1558784E+03  0.7818608E-02  0.1378876E+00
          2   -1    0    0  502    0  0.00000000000E+00  0.00000000000E+00  0.31947740329E+03  0.31947740329E+03  0.00000000000E+00 0. -1.
          1   -1    0    0  501    0 -0.00000000000E+00 -0.00000000000E+00 -0.69451147957E+03  0.69451147957E+03  0.00000000000E+00 0. -1.
         25    2    1    2    0    0  0.16248534557E+03  0.92715756064E-01 -0.25578346166E+02  0.20659344418E+03  0.12500041306E+03 0.  0.
          2    1    1    2  501    0 -0.97649268218E+01  0.25070254963E+02 -0.55190334394E+03  0.55255875030E+03  0.00000000000E+00 0. -1.
          1    1    1    2  502    0 -0.15272041875E+03 -0.25162970719E+02  0.20244761383E+03  0.25483668838E+03  0.00000000000E+00 0. -1.
         22    1    3    3    0    0  0.15442539611E+02 -0.44820279592E+02 -0.23311741811E+02  0.52827708625E+02  0.00000000000E+00 0.  1.
         22    1    3    3    0    0  0.14704280596E+03  0.44912995348E+02 -0.22666043554E+01  0.15376573556E+03  0.00000000000E+00 0.  1.
</event>
<event>
 7    1  0.6058736E-006  0.1589773E+03  0.7818608E-02  0.1239548E+00
          2   -1    0    0  502    0  0.00000000000E+00  0.00000000000E+00  0.19317085188E+04  0.19317085188E+04  0.00000000000E+00 0. -1.
          1   -1    0    0  501    0 -0.00000000000E+00 -0.00000000000E+00 -0.13015386451E+03  0.13015386451E+03  0.00000000000E+00 0. -1.
         25    2    1    2    0    0  0.15209707888E+03 -0.75599709832E+02  0.93109967442E+03  0.95468361058E+03  0.12500142030E+03 0.  0.
          2    1    1    2  501    0  0.95180333627E+01  0.93412372856E+02 -0.91781197884E+02  0.13130214258E+03  0.00000000000E+00 0. -1.
          1    1    1    2  502    0 -0.16161511225E+03 -0.17812663023E+02  0.96223617778E+03  0.97587663016E+03  0.00000000000E+00 0. -1.
         22    1    3    3    0    0  0.44598096927E+02 -0.61472816240E+02  0.63184431104E+03  0.63639227744E+03  0.00000000000E+00 0. -1.
         22    1    3    3    0    0  0.10749898196E+03 -0.14126893592E+02  0.29925536337E+03  0.31829133314E+03  0.00000000000E+00 0. -1.
</event>
<event>
 7    1  0.6058736E-006  0.1086072E+03  0.7818608E-02  0.1339917E+00
          2   -1    0    0  502    0  0.00000000000E+00  0.00000000000E+00  0.33762160185E+03  0.33762160185E+03  0.00000000000E+00 0. -1.
          1   -1    0    0  501    0 -0.00000000000E+00 -0.00000000000E+00 -0.71181637763E+03  0.71181637763E+03  0.00000000000E+00 0. -1.
         25    2    1    2    0    0 -0.33655884822E+02  0.53365156427E+02 -0.55730380140E+01  0.14013656659E+03  0.12500655998E+03 0.  0.
          2    1    1    2  501    0 -0.23241982547E+02  0.48289444795E+02 -0.62521183151E+03  0.62750449759E+03  0.00000000000E+00 0. -1.
          1    1    1    2  502    0  0.56897867369E+02 -0.10165460122E+03  0.25659009375E+03  0.28179691529E+03  0.00000000000E+00 0. -1.
         22    1    3    3    0    0  0.26124358500E+02  0.14884115399E+02 -0.48517194652E+02  0.57078342435E+02  0.00000000000E+00 0.  1.
         22    1    3    3    0    0 -0.59780243322E+02  0.38481041027E+02  0.42944156638E+02  0.83058224154E+02  0.00000000000E+00 0.  1.
</event>
<event>
 7    1  0.6058736E-006  0.1407545E+03  0.7818608E-02  0.1381602E+00
          2   -1    0    0  502    0  0.00000000000E+00  0.00000000000E+00  0.61058504434E+03  0.61058504434E+03  0.00000000000E+00 0. -1.
          1   -1    0    0  501    0 -0.00000000000E+00 -0.00000000000E+00 -0.40099480585E+03  0.40099480585E+03  0.00000000000E+00 0. -1.
         25    2    1    2    0    0  0.63222731537E+02  0.10113520396E+03  0.17696106888E+03  0.24731671567E+03  0.12499957875E+03 0.  0.
          2    1    1    2  501    0 -0.91256884593E+02 -0.10909003684E+03 -0.35141993155E+03  0.37911004130E+03  0.00000000000E+00 0. -1.
          1    1    1    2  502    0  0.28034153057E+02  0.79548328819E+01  0.38404910117E+03  0.38515309321E+03  0.00000000000E+00 0. -1.
         22    1    3    3    0    0  0.93858285296E+02  0.40076497683E+02  0.85364731201E+02  0.13305127101E+03  0.00000000000E+00 0.  1.
         22    1    3    3    0    0 -0.30635553759E+02  0.61058706276E+02  0.91596337683E+02  0.11426544466E+03  0.00000000000E+00 0.  1.
</event>
<event>
 7    1  0.6058736E-006  0.6985006E+02  0.7818608E-02  0.1397498E+00
          2   -1    0    0  502    0  0.00000000000E+00  0.00000000000E+00  0.49104003216E+03  0.49104003216E+03  0.00000000000E+00 0. -1.
          1   -1    0    0  501    0 -0.00000000000E+00 -0.00000000000E+00 -0.44912519500E+03  0.44912519500E+03  0.00000000000E+00 0. -1.
         25    2    1    2    0    0  0.42761078887E+02  0.11036119295E+03 -0.79808488212E+02  0.18974428243E+03  0.12500158058E+03 0.  0.
          2    1    1    2  501    0 -0.25385051844E+02 -0.61694282880E+02 -0.30924828964E+03  0.31636227658E+03  0.00000000000E+00 0. -1.
          1    1    1    2  502    0 -0.17376027043E+02 -0.48666910074E+02  0.43097161501E+03  0.43405866815E+03  0.00000000000E+00 0. -1.
         22    1    3    3    0    0  0.56021164407E+02 -0.47739428113E+01 -0.27541640047E+02  0.62607534116E+02  0.00000000000E+00 0. -1.
         22    1    3    3    0    0 -0.13260085520E+02  0.11513513576E+03 -0.52266848165E+02  0.12713674832E+03  0.00000000000E+00 0. -1.
</event>
<event>
 7    1  0.6058736E-006  0.7071219E+02  0.7818608E-02  0.1394975E+00
          2   -1    0    0  502    0  0.00000000000E+00  0.00000000000E+00  0.21328966867E+04  0.21328966867E+04  0.00000000000E+00 0. -1.
          1   -1    0    0  501    0 -0.00000000000E+00 -0.00000000000E+00 -0.12419506193E+04  0.12419506193E+04  0.00000000000E+00 0. -1.
         25    2    1    2    0    0  0.21700829024E+02  0.10221172050E+03 -0.10616698070E+02  0.16326480986E+03  0.12499808828E+03 0.  0.
          2    1    1    2  501    0 -0.43839895924E+02 -0.55069928953E+02 -0.11536072306E+04  0.11557526881E+04  0.00000000000E+00 0. -1.
          1    1    1    2  502    0  0.22139066900E+02 -0.47141791551E+02  0.20551699961E+04  0.20558298080E+04  0.00000000000E+00 0. -1.
         22    1    3    3    0    0 -0.20592620051E+01  0.35146081153E+02 -0.64857875793E+02  0.73797233233E+02  0.00000000000E+00 0. -1.
         22    1    3    3    0    0  0.23760091029E+02  0.67065639350E+02  0.54241177723E+02  0.89467576629E+02  0.00000000000E+00 0. -1.
</event>
<event>
 7    1  0.6058736E-006  0.1191781E+03  0.7818608E-02  0.1401006E+00
          2   -1    0    0  502    0  0.00000000000E+00  0.00000000000E+00  0.51282027942E+03  0.51282027942E+03  0.00000000000E+00 0. -1.
          1   -1    0    0  501    0 -0.00000000000E+00 -0.00000000000E+00 -0.14344094875E+04  0.14344094875E+04  0.00000000000E+00 0. -1.
         25    2    1    2    0    0  0.11309692561E+03  0.37958663547E+02 -0.14628822839E+03  0.22640681921E+03  0.12501210861E+03 0.  0.
          2    1    1    2  501    0 -0.11906353557E+03 -0.91126925685E+01 -0.12447430129E+04  0.12504576502E+04  0.00000000000E+00 0. -1.
          1    1    1    2  502    0  0.59666099567E+01 -0.28845970978E+02  0.46944203327E+03  0.47036529749E+03  0.00000000000E+00 0. -1.
         22    1    3    3    0    0 -0.21384621288E+02 -0.84050221403E+01 -0.48854719903E+02  0.53988240216E+02  0.00000000000E+00 0. -1.
         22    1    3    3    0    0  0.13448154690E+03  0.46363685687E+02 -0.97433508482E+02  0.17241857899E+03  0.00000000000E+00 0. -1.
</event>
<event>
 7    1  0.6058736E-006  0.1395884E+03  0.7818608E-02  0.1240049E+00
          2   -1    0    0  502    0  0.00000000000E+00  0.00000000000E+00  0.40166021126E+03  0.40166021126E+03  0.00000000000E+00 0. -1.
          1   -1    0    0  501    0 -0.00000000000E+00 -0.00000000000E+00 -0.44168021876E+03  0.44168021876E+03  0.00000000000E+00 0. -1.
         25    2    1    2    0    0  0.67534875163E+02 -0.47366436984E+02 -0.33229998919E+02  0.15340683984E+03  0.12499954786E+03 0.  0.
          2    1    1    2  501    0  0.85667237805E+02  0.63095978823E+02 -0.32199450215E+03  0.33911714435E+03  0.00000000000E+00 0. -1.
          1    1    1    2  502    0 -0.15320211297E+03 -0.15729541839E+02  0.31520449357E+03  0.35081644584E+03  0.00000000000E+00 0. -1.
         22    1    3    3    0    0 -0.20513970969E+02  0.98913041527E+01  0.24588589798E+02  0.33515066031E+02  0.00000000000E+00 0.  1.
         22    1    3    3    0    0  0.88048846132E+02 -0.57257741137E+02 -0.57818588717E+02  0.11989177381E+03  0.00000000000E+00 0.  1.
</event>
<event>
 7    1  0.6058736E-006  0.4727678E+02  0.7818608E-02  0.1461772E+00
          2   -1    0    0  502    0  0.00000000000E+00  0.00000000000E+00  0.39287111376E+03  0.39287111376E+03  0.00000000000E+00 0. -1.
          1   -1    0    0  501    0 -0.00000000000E+00 -0.00000000000E+00 -0.29415682757E+04  0.29415682757E+04  0.00000000000E+00 0. -1.
         25    2    1    2    0    0 -0.85979724605E+02  0.33684721846E+02 -0.62968261884E+03  0.64858204222E+03  0.12502516343E+03 0.  0.
          2    1    1    2  501    0  0.39587135883E+02 -0.25111085095E+02 -0.23007449998E+04  0.23012225581E+04  0.00000000000E+00 0. -1.
          1    1    1    2  502    0  0.46392588721E+02 -0.85736367516E+01  0.38173045663E+03  0.38463478919E+03  0.00000000000E+00 0. -1.
         22    1    3    3    0    0 -0.10490191757E+03  0.42726572822E+02 -0.60783210550E+03  0.61829591686E+03  0.00000000000E+00 0. -1.
         22    1    3    3    0    0  0.18922192968E+02 -0.90418509754E+01 -0.21850513343E+02  0.30286125357E+02  0.00000000000E+00 0. -1.
</event>
<event>
 7    1  0.6058736E-006  0.1374300E+03  0.7818608E-02  0.1381120E+00
          2   -1    0    0  502    0  0.00000000000E+00  0.00000000000E+00  0.13559927130E+04  0.13559927130E+04  0.00000000000E+00 0. -1.
          1   -1    0    0  501    0 -0.00000000000E+00 -0.00000000000E+00 -0.60612009241E+03  0.60612009241E+03  0.00000000000E+00 0. -1.
         25    2    1    2    0    0  0.41062521973E+01 -0.11193403576E+03  0.17067499949E+03  0.23936746226E+03  0.12498294631E+03 0.  0.
          2    1    1    2  501    0 -0.88421893591E+01 -0.28628773141E+02 -0.56708042194E+03  0.56787146073E+03  0.00000000000E+00 0. -1.
          1    1    1    2  502    0  0.47359371618E+01  0.14056280890E+03  0.11462780430E+04  0.11548738824E+04  0.00000000000E+00 0. -1.
         22    1    3    3    0    0  0.20717953979E+02  0.23485701707E+02  0.29085870917E+02  0.42741077300E+02  0.00000000000E+00 0.  1.
         22    1    3    3    0    0 -0.16611701782E+02 -0.13541973746E+03  0.14158912858E+03  0.19662638496E+03  0.00000000000E+00 0.  1.
</event>
<event>
 7    1  0.6058736E-006  0.1197028E+03  0.7818608E-02  0.1268995E+00
          2   -1    0    0  502    0  0.00000000000E+00  0.00000000000E+00  0.93900564610E+03  0.93900564610E+03  0.00000000000E+00 0. -1.
          1   -1    0    0  501    0 -0.00000000000E+00 -0.00000000000E+00 -0.15572431886E+03  0.15572431886E+03  0.00000000000E+00 0. -1.
         25    2    1    2    0    0  0.16786129735E+03 -0.82937201915E+02  0.95829204065E+02  0.24466814143E+03  0.12499307368E+03 0.  0.
          2    1    1    2  501    0 -0.92906545548E+02 -0.61589120158E+01 -0.48480515515E+02  0.10497580096E+03  0.00000000000E+00 0. -1.
          1    1    1    2  502    0 -0.74954751803E+02  0.89096113931E+02  0.73593263869E+03  0.74508602257E+03  0.00000000000E+00 0. -1.
         22    1    3    3    0    0  0.89666849786E+02  0.20806242146E+02  0.60102199801E+02  0.10993324376E+03  0.00000000000E+00 0. -1.
         22    1    3    3    0    0  0.78194447565E+02 -0.10374344406E+03  0.35727004264E+02  0.13473489767E+03  0.00000000000E+00 0. -1.
</event>
<event>
 7    1  0.6058736E-006  0.8597120E+02  0.7818608E-02  0.1489408E+00
          2   -1    0    0  502    0  0.00000000000E+00  0.00000000000E+00  0.42151927350E+03  0.42151927350E+03  0.00000000000E+00 0. -1.
          1   -1    0    0  501    0 -0.00000000000E+00 -0.00000000000E+00 -0.82934025486E+03  0.82934025486E+03  0.00000000000E+00 0. -1.
         25    2    1    2    0    0  0.14586062335E+02 -0.69039238071E+02  0.18594126883E+03  0.23490000017E+03  0.12499874006E+03 0.  0.
          2    1    1    2  501    0 -0.20699011125E+01  0.86128231480E+02 -0.80201662735E+03  0.80663066349E+03  0.00000000000E+00 0. -1.
          1    1    1    2  502    0 -0.12516161222E+02 -0.17088993408E+02  0.20825437716E+03  0.20932886469E+03  0.00000000000E+00 0. -1.
         22    1    3    3    0    0  0.34945604534E+02  0.24391413500E+02  0.30517445826E+02  0.52416131377E+02  0.00000000000E+00 0. -1.
         22    1    3    3    0    0 -0.20359542199E+02 -0.93430651571E+02  0.15542382301E+03  0.18248386879E+03  0.00000000000E+00 0. -1.
</event>
<event>
 7    1  0.6058736E-006  0.1120947E+03  0.7818608E-02  0.1410187E+00
          2   -1    0    0  502    0  0.00000000000E+00  0.00000000000E+00  0.13481085802E+04  0.13481085802E+04  0.00000000000E+00 0. -1.
          1   -1    0    0  501    0 -0.00000000000E+00 -0.00000000000E+00 -0.78466119212E+03  0.78466119212E+03  0.00000000000E+00 0. -1.
         25    2    1    2    0    0 -0.12258286428E+03 -0.60509122400E+02  0.29391264429E+02  0.18755486244E+03  0.12500026997E+03 0.  0.
          2    1    1    2  501    0  0.29139233465E+02 -0.37637940294E-01 -0.70277660758E+03  0.70338044933E+03  0.00000000000E+00 0. -1.
          1    1    1    2  502    0  0.93443630813E+02  0.60546760340E+02  0.12368327312E+04  0.12418344605E+04  0.00000000000E+00 0. -1.
         22    1    3    3    0    0 -0.12734322122E+03 -0.32320754483E+02 -0.17596493922E+02  0.13255400318E+03  0.00000000000E+00 0. -1.
         22    1    3    3    0    0  0.47603569453E+01 -0.28188367917E+02  0.46987758351E+02  0.55000859257E+02  0.00000000000E+00 0. -1.
</event>
<event>
 7    1  0.6058736E-006  0.6253809E+02  0.7818608E-02  0.1447913E+00
          2   -1    0    0  502    0  0.00000000000E+00  0.00000000000E+00  0.14553792989E+04  0.14553792989E+04  0.00000000000E+00 0. -1.
          1   -1    0    0  501    0 -0.00000000000E+00 -0.00000000000E+00 -0.20528693742E+03  0.20528693742E+03  0.00000000000E+00 0. -1.
         25    2    1    2    0    0  0.37173906921E+02  0.36724464171E+02  0.53333874761E+03  0.55027626718E+03  0.12499265936E+03 0.  0.
          2    1    1    2  501    0  0.27506482550E+02 -0.27959804975E+02 -0.19368410533E+03  0.19761551036E+03  0.00000000000E+00 0. -1.
          1    1    1    2  502    0 -0.64680389471E+02 -0.87646591960E+01  0.91043771917E+03  0.91277445874E+03  0.00000000000E+00 0. -1.
         22    1    3    3    0    0 -0.24009957917E+02  0.29807822554E+02  0.49682276159E+02  0.62716129736E+02  0.00000000000E+00 0. -1.
         22    1    3    3    0    0  0.61183864839E+02  0.69166416161E+01  0.48365647145E+03  0.48756013744E+03  0.00000000000E+00 0. -1.
</event>
<event>
 7    1  0.6058736E-006  0.8751685E+02  0.7818608E-02  0.1383090E+00
          2   -1    0    0  502    0  0.00000000000E+00  0.00000000000E+00  0.17434727306E+04  0.17434727306E+04  0.00000000000E+00 0. -1.
          1   -1    0    0  501    0 -0.00000000000E+00 -0.00000000000E+00 -0.54165074188E+03  0.54165074188E+03  0.00000000000E+00 0. -1.
         25    2    1    2    0    0 -0.11254649550E+03  0.37835051244E+02  0.39724453238E+02  0.17692123705E+03  0.12499954874E+03 0.  0.
          2    1    1    2  501    0  0.25453364929E+02 -0.38680870608E+02 -0.47075582404E+03  0.47302762013E+03  0.00000000000E+00 0. -1.
          1    1    1    2  502    0  0.87093130566E+02  0.84581936375E+00  0.16328533595E+04  0.16351746153E+04  0.00000000000E+00 0. -1.
         22    1    3    3    0    0 -0.24155398222E+02  0.67528454672E+02 -0.80157428876E+01  0.72165279655E+02  0.00000000000E+00 0. -1.
         22    1    3    3    0    0 -0.88391097273E+02 -0.29693403428E+02  0.47740196125E+02  0.10475595740E+03  0.00000000000E+00 0. -1.
</event>
<event>
 7    1  0.6058736E-006  0.1508918E+03  0.7818608E-02  0.1323113E+00
          2   -1    0    0  502    0  0.00000000000E+00  0.00000000000E+00  0.26518023931E+03  0.26518023931E+03  0.00000000000E+00 0. -1.
          1   -1    0    0  501    0 -0.00000000000E+00 -0.00000000000E+00 -0.36084146471E+03  0.36084146471E+03  0.00000000000E+00 0. -1.
         25    2    1    2    0    0 -0.12621688262E+03 -0.46938772440E+01 -0.11749927529E+03  0.21303383465E+03  0.12499840427E+03 0.  0.
          2    1    1    2  501    0 -0.23437052044E+02 -0.38066765530E+02 -0.16434568286E+03  0.17031699129E+03  0.00000000000E+00 0. -1.
          1    1    1    2  502    0  0.14965393467E+03  0.42760642774E+02  0.18618373275E+03  0.24267087809E+03  0.00000000000E+00 0. -1.
         22    1    3    3    0    0 -0.14199453997E+03  0.18924865496E+02 -0.74405001425E+02  0.16142089132E+03  0.00000000000E+00 0.  1.
         22    1    3    3    0    0  0.15777657351E+02 -0.23618742740E+02 -0.43094273862E+02  0.51612943336E+02  0.00000000000E+00 0.  1.
</event>
<event>
 7    1  0.6058736E-006  0.6426737E+02  0.7818608E-02  0.1386235E+00
          2   -1    0    0  502    0  0.00000000000E+00  0.00000000000E+00  0.10933514736E+03  0.10933514736E+03  0.00000000000E+00 0. -1.
          1   -1    0    0  501    0 -0.00000000000E+00 -0.00000000000E+00 -0.25899000979E+04  0.25899000979E+04  0.00000000000E+00 0. -1.
         25    2    1    2    0    0 -0.88649095056E+02 -0.84519819064E+02 -0.29880835968E+03  0.34628562169E+03  0.12500013642E+03 0.  0.
          2    1    1    2  501    0  0.36914443424E+02  0.51322507067E+02 -0.22558169797E+04  0.22567026658E+04  0.00000000000E+00 0. -1.
          1    1    1    2  502    0  0.51734651631E+02  0.33197311996E+02  0.74060388800E+02  0.96246957835E+02  0.00000000000E+00 0. -1.
         22    1    3    3    0    0  0.31911370123E+02 -0.25064480192E+02 -0.68199429080E+02  0.79358212160E+02  0.00000000000E+00 0.  1.
         22    1    3    3    0    0 -0.12056046518E+03 -0.59455338872E+02 -0.23060893060E+03  0.26692740953E+03  0.00000000000E+00 0.  1.
</event>
<event>
 7    1  0.6058736E-006  0.1123807E+03  0.7818608E-02  0.1290539E+00
          2   -1    0    0  502    0  0.00000000000E+00  0.00000000000E+00  0.24848899649E+04  0.24848899649E+04  0.00000000000E+00 0. -1.
          1   -1    0    0  501    0 -0.00000000000E+00 -0.00000000000E+00 -0.19517402505E+04  0.19517402505E+04  0.00000000000E+00 0. -1.
         25    2    1    2    0    0  0.15376625023E+03 -0.11617387511E+03 -0.17773241050E+03  0.29043846278E+03  0.12500104780E+03 0.  0.
          2    1    1    2  501    0 -0.63981404122E+02  0.49324995454E+02 -0.17154137886E+04  0.17173150676E+04  0.00000000000E+00 0. -1.
          1    1    1    2  502    0 -0.89784846106E+02  0.66848879653E+02  0.24262959135E+04  0.24288766851E+04  0.00000000000E+00 0. -1.
         22    1    3    3    0    0  0.13189479131E+03 -0.28126128687E+02 -0.78751588743E+02  0.15617018864E+03  0.00000000000E+00 0.  1.
         22    1    3    3    0    0  0.21871458920E+02 -0.88047746420E+02 -0.98980821758E+02  0.13426827414E+03  0.00000000000E+00 0.  1.
</event>
<event>
 7    1  0.6058736E-006  0.1060178E+03  0.7818608E-02  0.1289493E+00
          2   -1    0    0  502    0  0.00000000000E+00  0.00000000000E+00  0.41017840996E+03  0.41017840996E+03  0.00000000000E+00 0. -1.
          1   -1    0    0  501    0 -0.00000000000E+00 -0.00000000000E+00 -0.18915499881E+03  0.18915499881E+03  0.00000000000E+00 0. -1.
         25    2    1    2    0    0 -0.12294403846E+03 -0.41069244952E+02  0.72247334904E+02  0.19402891710E+03  0.12500249517E+03 0.  0.
          2    1    1    2  501    0  0.98154666985E+02 -0.41780649898E+02 -0.97355130638E+02  0.14442293038E+03  0.00000000000E+00 0. -1.
          1    1    1    2  502    0  0.24789371471E+02  0.82849894850E+02  0.24613120688E+03  0.26088156128E+03  0.00000000000E+00 0. -1.
         22    1    3    3    0    0 -0.53312154399E+01 -0.28857702466E+02 -0.26829959709E+02  0.39762238212E+02  0.00000000000E+00 0.  1.
         22    1    3    3    0    0 -0.11761282302E+03 -0.12211542486E+02  0.99077294614E+02  0.15426667889E+03  0.00000000000E+00 0.  1.
</event>
<event>
 7    1  0.6058736E-006  0.2819040E+03  0.7818608E-02  0.1269799E+00
          2   -1    0    0  502    0  0.00000000000E+00  0.00000000000E+00  0.19423228375E+04  0.19423228375E+04  0.00000000000E+00 0. -1.
          1   -1    0    0  501    0 -0.00000000000E+00 -0.00000000000E+00 -0.91942065185E+03  0.91942065185E+03  0.00000000000E+00 0. -1.
         25    2    1    2    0    0 -0.23620983190E+03  0.19756727182E+03 -0.43512950325E+03  0.54754229995E+03  0.12504788706E+03 0.  0.
          2    1    1    2  501    0  0.37296313590E+01 -0.39052828253E+02 -0.41666393442E+03  0.41850671177E+03  0.00000000000E+00 0. -1.
          1    1    1    2  502    0  0.23248020054E+03 -0.15851444356E+03  0.18746956233E+04  0.18956944777E+04  0.00000000000E+00 0. -1.
         22    1    3    3    0    0 -0.21062209705E+03  0.19902606773E+03 -0.32927182752E+03  0.43862624158E+03  0.00000000000E+00 0.  1.
         22    1    3    3    0    0 -0.25587734845E+02 -0.14587959174E+01 -0.10585767572E+03  0.10891605837E+03  0.00000000000E+00 0.  1.
</event>
<event>
 7    1  0.6058736E-006  0.6738415E+02  0.7818608E-02  0.1388065E+00
          2   -1    0    0  502    0  0.00000000000E+00  0.00000000000E+00  0.47650205922E+03  0.47650205922E+03  0.00000000000E+00 0. -1.
          1   -1    0    0  501    0 -0.00000000000E+00 -0.00000000000E+00 -0.27226262936E+03  0.27226262936E+03  0.00000000000E+00 0. -1.
         25    2    1    2    0    0 -0.95870681792E+02  0.59890671106E+02  0.67970490455E+02  0.18172372913E+03  0.12500178415E+03 0.  0.
          2    1    1    2  501    0  0.31570404815E+02 -0.48377069592E+02 -0.20838887270E+03  0.21624743603E+03  0.00000000000E+00 0. -1.
          1    1    1    2  502    0  0.64300276977E+02 -0.11513601515E+02  0.34465781211E+03  0.35079352344E+03  0.00000000000E+00 0. -1.
         22    1    3    3    0    0 -0.79103889827E+02 -0.24206087359E+02  0.35736377813E+02  0.90113532559E+02  0.00000000000E+00 0. -1.
         22    1    3    3    0    0 -0.16766791965E+02  0.84096758465E+02  0.32234112642E+02  0.91610196566E+02  0.00000000000E+00 0. -1.
</event>
<event>
 7    1  0.6058736E-006  0.1698933E+03  0.7818608E-02  0.1230484E+00
          2   -1    0    0  502    0  0.00000000000E+00  0.00000000000E+00  0.78523541494E+03  0.78523541494E+03  0.00000000000E+00 0. -1.
          1   -1    0    0  501    0 -0.00000000000E+00 -0.00000000000E+00 -0.31673893087E+03  0.31673893087E+03  0.00000000000E+00 0. -1.
         25    2    1    2    0    0 -0.17425785431E+03  0.38119910870E+02  0.26678652255E+03  0.34441085342E+03  0.12499943978E+03 0.  0.
          2    1    1    2  501    0  0.49004809282E+02  0.83023311360E+02 -0.25292645995E+03  0.27067717987E+03  0.00000000000E+00 0. -1.
          1    1    1    2  502    0  0.12525304503E+03 -0.12114322223E+03  0.45463642147E+03  0.48688631251E+03  0.00000000000E+00 0. -1.
         22    1    3    3    0    0 -0.56958502988E+01  0.47233802841E+02  0.76013896353E+02  0.89674897716E+02  0.00000000000E+00 0.  1.
         22    1    3    3    0    0 -0.16856200401E+03 -0.91138919714E+01  0.19077262620E+03  0.25473595571E+03  0.00000000000E+00 0.  1.
</event>
<event>
 7    1  0.6058736E-006  0.3814251E+02  0.7818608E-02  0.1569107E+00
          2   -1    0    0  502    0  0.00000000000E+00  0.00000000000E+00  0.47804765608E+03  0.47804765608E+03  0.00000000000E+00 0. -1.
          1   -1    0    0  501    0 -0.00000000000E+00 -0.00000000000E+00 -0.28729956336E+03  0.28729956336E+03  0.00000000000E+00 0. -1.
         25    2    1    2    0    0  0.27025750470E+02  0.12728954467E+02 -0.89632427740E+02  0.15668888439E+03  0.12500006767E+03 0.  0.
          2    1    1    2  501    0 -0.36868732976E+02  0.13693319379E+02 -0.16132697749E+03  0.16605181159E+03  0.00000000000E+00 0. -1.
          1    1    1    2  502    0  0.98429825062E+01 -0.26422273847E+02  0.44170749795E+03  0.44260652346E+03  0.00000000000E+00 0. -1.
         22    1    3    3    0    0 -0.62760843062E+01 -0.79255022332E+01 -0.11140287576E+03  0.11186064342E+03  0.00000000000E+00 0. -1.
         22    1    3    3    0    0  0.33301834776E+02  0.20654456701E+02  0.21770448017E+02  0.44828240964E+02  0.00000000000E+00 0. -1.
</event>
<event>
 7    1  0.6058736E-006  0.1321886E+03  0.7818608E-02  0.1313180E+00
          2   -1    0    0  502    0  0.00000000000E+00  0.00000000000E+00  0.11436032383E+04  0.11436032383E+04  0.00000000000E+00 0. -1.
          1   -1    0    0  501    0 -0.00000000000E+00 -0.00000000000E+00 -0.14865760614E+04  0.14865760614E+04  0.00000000000E+00 0. -1.
         25    2    1    2    0    0 -0.39177738138E+02 -0.15694715534E+03 -0.16128880880E+02  0.20506683014E+03  0.12499983716E+03 0.  0.
          2    1    1    2  501    0 -0.31378064519E+02  0.46114734709E+02 -0.13712956454E+04  0.13724295605E+04  0.00000000000E+00 0. -1.
          1    1    1    2  502    0  0.70555802657E+02  0.11083242063E+03  0.10444517031E+04  0.10526829090E+04  0.00000000000E+00 0. -1.
         22    1    3    3    0    0 -0.45488077461E+02 -0.11628468744E+02  0.25952553701E+02  0.53646262871E+02  0.00000000000E+00 0.  1.
         22    1    3    3    0    0  0.63103393229E+01 -0.14531868660E+03 -0.42081434581E+02  0.15142056727E+03  0.00000000000E+00 0.  1.
</event>
<event>
 7    1  0.6058736E-006  0.7512569E+02  0.7818608E-02  0.1413410E+00
          2   -1    0    0  502    0  0.00000000000E+00  0.00000000000E+00  0.48496926909E+03  0.48496926909E+03  0.00000000000E+00 0. -1.
          1   -1    0    0  501    0 -0.00000000000E+00 -0.00000000000E+00 -0.86614343123E+03  0.86614343123E+03  0.00000000000E+00 0. -1.
         25    2    1    2    0    0  0.12031960488E+02 -0.97609898770E+02 -0.14237106430E+03  0.21346555832E+03  0.12500225688E+03 0.  0.
          2    1    1    2  501    0 -0.33562812931E+02  0.25911886283E+02 -0.68444705881E+03  0.68575918847E+03  0.00000000000E+00 0. -1.
          1    1    1    2  502    0  0.21530852443E+02  0.71698012488E+02  0.44564396097E+03  0.45188795353E+03  0.00000000000E+00 0. -1.
         22    1    3    3    0    0  0.42478529606E+02 -0.96095271383E+02 -0.14895263580E+03  0.18227894660E+03  0.00000000000E+00 0. -1.
         22    1    3    3    0    0 -0.30446569118E+02 -0.15146273873E+01  0.65815714999E+01  0.31186611720E+02  0.00000000000E+00 0. -1.
</event>
<event>
 7    1  0.6058736E-006  0.1156067E+03  0.7818608E-02  0.1277007E+00
          2   -1    0    0  502    0  0.00000000000E+00  0.00000000000E+00  0.16950015232E+03  0.16950015232E+03  0.00000000000E+00 0. -1.
          1   -1    0    0  501    0 -0.00000000000E+00 -0.00000000000E+00 -0.14971376165E+04  0.14971376165E+04  0.00000000000E+00 0. -1.
         25    2    1    2    0    0 -0.39550960392E+02 -0.12246823449E+02 -0.55092723233E+02  0.14274074076E+03  0.12500179106E+03 0.  0.
          2    1    1    2  501    0  0.75318258885E+02  0.94022848233E+02 -0.13794099403E+04  0.13846605792E+04  0.00000000000E+00 0. -1.
          1    1    1    2  502    0 -0.35767298493E+02 -0.81776024783E+02  0.10686519935E+03  0.13923644890E+03  0.00000000000E+00 0. -1.
         22    1    3    3    0    0 -0.66984917409E+01  0.15610296576E+01  0.40313645880E+02  0.40896169128E+02  0.00000000000E+00 0. -1.
         22    1    3    3    0    0 -0.32852468651E+02 -0.13807853107E+02 -0.95406369113E+02  0.10184457163E+03  0.00000000000E+00 0. -1.
</event>
<event>
 7    1  0.6058736E-006  0.4635244E+02  0.7818608E-02  0.1538505E+00
          2   -1    0    0  502    0  0.00000000000E+00  0.00000000000E+00  0.10696202834E+04  0.10696202834E+04  0.00000000000E+00 0. -1.
          1   -1    0    0  501    0 -0.00000000000E+00 -0.00000000000E+00 -0.80145516075E+02  0.80145516075E+02  0.00000000000E+00 0. -1.
         25    2    1    2    0    0 -0.71126235541E+02  0.33515133897E+01  0.28435135897E+03  0.31867103679E+03  0.12500144125E+03 0.  0.
          2    1    1    2  501    0  0.44180950559E+02 -0.11717357480E+02 -0.54396547830E+02  0.71050948441E+02  0.00000000000E+00 0. -1.
          1    1    1    2  502    0  0.26945284982E+02  0.83658440905E+01  0.75951995620E+03  0.76004381426E+03  0.00000000000E+00 0. -1.
         22    1    3    3    0    0 -0.46673722351E+02  0.49544490147E+02  0.24202990458E+03  0.25141910741E+03  0.00000000000E+00 0.  1.
         22    1    3    3    0    0 -0.24452513190E+02 -0.46192976757E+02  0.42321454392E+02  0.67251929376E+02  0.00000000000E+00 0.  1.
</event>
<event>
 7    1  0.6058736E-006  0.7126348E+02  0.7818608E-02  0.1450568E+00
          2   -1    0    0  502    0  0.00000000000E+00  0.00000000000E+00  0.31278562935E+03  0.31278562935E+03  0.00000000000E+00 0. -1.
          1   -1    0    0  501    0 -0.00000000000E+00 -0.00000000000E+00 -0.17020830544E+03  0.17020830544E+03  0.00000000000E+00 0. -1.
         25    2    1    2    0    0  0.51310360156E+02 -0.20776232680E+02  0.65249449501E+02  0.15148042674E+03  0.12499769647E+03 0.  0.
          2    1    1    2  501    0 -0.73181956822E+02 -0.49305063237E+01 -0.11491611557E+03  0.13632909563E+03  0.00000000000E+00 0. -1.
          1    1    1    2  502    0  0.21871596666E+02  0.25706739003E+02  0.19224398998E+03  0.19518441242E+03  0.00000000000E+00 0. -1.
         22    1    3    3    0    0 -0.35643656677E+02 -0.29840504613E+02  0.85136037206E+01  0.47258940161E+02  0.00000000000E+00 0. -1.
         22    1    3    3    0    0  0.86954016833E+02  0.90642719332E+01  0.56735845780E+02  0.10422148658E+03  0.00000000000E+00 0. -1.
</event>
<event>
 7    1  0.6058736E-006  0.1089574E+03  0.7818608E-02  0.1443194E+00
          2   -1    0    0  502    0  0.00000000000E+00  0.00000000000E+00  0.99519340668E+03  0.99519340668E+03  0.00000000000E+00 0. -1.
          1   -1    0    0  501    0 -0.00000000000E+00 -0.00000000000E+00 -0.11578094257E+04  0.11578094257E+04  0.00000000000E+00 0. -1.
         25    2    1    2    0    0 -0.39851036018E+02  0.10689816132E+03  0.18979854543E+02  0.17027015279E+03  0.12496546757E+03 0.  0.
          2    1    1    2  501    0 -0.18055434448E+02 -0.14748909786E+02 -0.10787497665E+04  0.10790016625E+04  0.00000000000E+00 0. -1.
          1    1    1    2  502    0  0.57906470466E+02 -0.92149251534E+02  0.89715389284E+03  0.90373101713E+03  0.00000000000E+00 0. -1.
         22    1    3    3    0    0 -0.90733043748E+01  0.68624869960E+02  0.70700665137E+02  0.98945852263E+02  0.00000000000E+00 0. -1.
         22    1    3    3    0    0 -0.30777731643E+02  0.38273291361E+02 -0.51720810594E+02  0.71324300524E+02  0.00000000000E+00 0. -1.
</event>
<event>
 7    1  0.6058736E-006  0.2770530E+03  0.7818608E-02  0.1210386E+00
          2   -1    0    0  502    0  0.00000000000E+00  0.00000000000E+00  0.15122935541E+04  0.15122935541E+04  0.00000000000E+00 0. -1.
          1   -1    0    0  501    0 -0.00000000000E+00 -0.00000000000E+00 -0.19650867657E+03  0.19650867657E+03  0.00000000000E+00 0. -1.
         25    2    1    2    0    0  0.22744726347E+03  0.75526776630E+01  0.49549148563E+03  0.55939883409E+03  0.12500377052E+03 0.  0.
          2    1    1    2  501    0 -0.28768070944E+03  0.33682338431E+02 -0.34325605350E+02  0.29167265502E+03  0.00000000000E+00 0. -1.
          1    1    1    2  502    0  0.60233445972E+02 -0.41235016094E+02  0.85461899726E+03  0.85773074158E+03  0.00000000000E+00 0. -1.
         22    1    3    3    0    0  0.19946762698E+03 -0.38928754218E+02  0.41820475316E+03  0.46497096435E+03  0.00000000000E+00 0. -1.
         22    1    3    3    0    0  0.27979636488E+02  0.46481431881E+02  0.77286732470E+02  0.94427869740E+02  0.00000000000E+00 0. -1.
</event>
<event>
 7    1  0.6058736E-006  0.7041485E+02  0.7818608E-02  0.1448894E+00
          2   -1    0    0  502    0  0.00000000000E+00  0.00000000000E+00  0.60027919606E+03  0.60027919606E+03  0.00000000000E+00 0. -1.
          1   -1    0    0  501    0 -0.00000000000E+00 -0.00000000000E+00 -0.76377798106E+02  0.76377798106E+02  0.00000000000E+00 0. -1.
         25    2    1    2    0    0 -0.33844156251E+02  0.74710378926E+02  0.10718136019E+03  0.18397299792E+03  0.12502460701E+03 0.  0.
          2    1    1    2  501    0  0.34271732481E+02 -0.46298375447E+01 -0.26743308445E+02  0.43717177282E+02  0.00000000000E+00 0. -1.
          1    1    1    2  502    0 -0.42757623039E+00 -0.70080541381E+02  0.44346334621E+03  0.44896681896E+03  0.00000000000E+00 0. -1.
         22    1    3    3    0    0 -0.25956836479E+02  0.79706837267E+01 -0.24218658679E+02  0.36384510266E+02  0.00000000000E+00 0.  1.
         22    1    3    3    0    0 -0.78873197716E+01  0.66739695199E+02  0.13140001887E+03  0.14758848765E+03  0.00000000000E+00 0.  1.
</event>
<event>
 7    1  0.6058736E-006  0.1047654E+03  0.7818608E-02  0.1312752E+00
          2   -1    0    0  502    0  0.00000000000E+00  0.00000000000E+00  0.11171153383E+04  0.11171153383E+04  0.00000000000E+00 0. -1.
          1   -1    0    0  501    0 -0.00000000000E+00 -0.00000000000E+00 -0.73729140321E+03  0.73729140321E+03  0.00000000000E+00 0. -1.
         25    2    1    2    0    0 -0.98485443096E+02 -0.10572119645E+03  0.23616097215E+03  0.30376516795E+03  0.12499967445E+03 0.  0.
          2    1    1    2  501    0  0.98357618765E+02  0.35070558965E+02 -0.69812629305E+03  0.70589268754E+03  0.00000000000E+00 0. -1.
          1    1    1    2  502    0  0.12782433092E+00  0.70650637488E+02  0.84178925600E+03  0.84474888602E+03  0.00000000000E+00 0. -1.
         22    1    3    3    0    0  0.83133662373E+01 -0.22739689210E+02 -0.72756473649E+01  0.25281229562E+02  0.00000000000E+00 0. -1.
         22    1    3    3    0    0 -0.10679880933E+03 -0.82981507243E+02  0.24343661952E+03  0.27848393839E+03  0.00000000000E+00 0. -1.
</event>
<event>
 7    1  0.6058736E-006  0.1035057E+03  0.7818608E-02  0.1393365E+00
          2   -1    0    0  502    0  0.00000000000E+00  0.00000000000E+00  0.14898819776E+04  0.14898819776E+04  0.00000000000E+00 0. -1.
          1   -1    0    0  501    0 -0.00000000000E+00 -0.00000000000E+00 -0.30220937465E+03  0.30220937465E+03  0.00000000000E+00 0. -1.
         25    2    1    2    0    0  0.58685228527E+02 -0.34010598694E+02  0.13500021309E+04  0.13574727653E+04  0.12500351334E+03 0.  0.
          2    1    1    2  501    0 -0.91553642791E+02  0.48796384130E+02 -0.28682508197E+03  0.30501112154E+03  0.00000000000E+00 0. -1.
          1    1    1    2  502    0  0.32868414265E+02 -0.14785785436E+02  0.12449555404E+03  0.12960746538E+03  0.00000000000E+00 0. -1.
         22    1    3    3    0    0 -0.13733894973E+02 -0.14588482269E+02  0.34956877272E+02  0.40291772791E+02  0.00000000000E+00 0. -1.
         22    1    3    3    0    0  0.72419123499E+02 -0.19422116425E+02  0.13150452536E+04  0.13171809925E+04  0.00000000000E+00 0. -1.
</event>
<event>
 7    1  0.6058736E-006  0.4415053E+02  0.7818608E-02  0.1522265E+00
          2   -1    0    0  502    0  0.00000000000E+00  0.00000000000E+00  0.27277193877E+03  0.27277193877E+03  0.00000000000E+00 0. -1.
          1   -1    0    0  501    0 -0.00000000000E+00 -0.00000000000E+00 -0.14005067684E+04  0.14005067684E+04  0.00000000000E+00 0. -1.
         25    2    1    2    0    0  0.75040088726E+02  0.37257361984E+01 -0.23990457387E+03  0.28075447042E+03  0.12499588821E+03 0.  0.
          2    1    1    2  501    0 -0.31514191120E+02 -0.96863465996E+01 -0.11380246194E+04  0.11385020878E+04  0.00000000000E+00 0. -1.
          1    1    1    2  502    0 -0.43525897606E+02  0.59606104011E+01  0.25019436356E+03  0.25402214903E+03  0.00000000000E+00 0. -1.
         22    1    3    3    0    0 -0.82167121663E+01  0.28676728680E+02 -0.49491919869E+01  0.30238446189E+02  0.00000000000E+00 0.  1.
         22    1    3    3    0    0  0.83256800892E+02 -0.24950992481E+02 -0.23495538188E+03  0.25051602423E+03  0.00000000000E+00 0.  1.
</event>
<event>
 7    1  0.6058736E-006  0.1054425E+03  0.7818608E-02  0.1375699E+00
          2   -1    0    0  502    0  0.00000000000E+00  0.00000000000E+00  0.88882672543E+03  0.88882672543E+03  0.00000000000E+00 0. -1.
          1   -1    0    0  501    0 -0.00000000000E+00 -0.00000000000E+00 -0.11412637944E+04  0.11412637944E+04  0.00000000000E+00 0. -1.
         25    2    1    2    0    0  0.53430088394E+02 -0.53459009293E+02  0.16264496849E+03  0.21861076921E+03  0.12499857047E+03 0.  0.
          2    1    1    2  501    0 -0.93982398885E+02  0.48770724833E+02 -0.11101630548E+04  0.11152010058E+04  0.00000000000E+00 0. -1.
          1    1    1    2  502    0  0.40552310492E+02  0.46882844595E+01  0.69508101736E+03  0.69627874489E+03  0.00000000000E+00 0. -1.
         22    1    3    3    0    0  0.25092154619E+02  0.23943908723E+02 -0.17302779999E+01  0.34726371107E+02  0.00000000000E+00 0.  1.
         22    1    3    3    0    0  0.28337933775E+02 -0.77402918015E+02  0.16437524649E+03  0.18388439811E+03  0.00000000000E+00 0.  1.
</event>
<event>
 7    1  0.7287009E-006  0.5198937E+02  0.7818608E-02  0.1529041E+00
          2   -1    0    0  502    0  0.00000000000E+00  0.00000000000E+00  0.16568873216E+04  0.16568873216E+04  0.00000000000E+00 0. -1.
          1   -1    0    0  501    0 -0.00000000000E+00 -0.00000000000E+00 -0.63778951072E+03  0.63778951072E+03  0.00000000000E+00 0. -1.
         25    2    1    2    0    0 -0.35266974944E+02  0.68177910985E+02 -0.24488142407E+03  0.28545692431E+03  0.12500702667E+03 0.  0.
          2    1    1    2  501    0  0.43760773652E+01 -0.26407109162E+02 -0.37172668016E+03  0.37268916031E+03  0.00000000000E+00 0. -1.
          1    1    1    2  502    0  0.30890897579E+02 -0.41770801824E+02  0.16357059151E+04  0.16365307477E+04  0.00000000000E+00 0. -1.
         22    1    3    3    0    0 -0.11732826488E+02 -0.19494160347E+02 -0.15858171906E+03  0.16020562764E+03  0.00000000000E+00 0.  1.
         22    1    3    3    0    0 -0.23534148456E+02  0.87672071333E+02 -0.86299705005E+02  0.12525129668E+03  0.00000000000E+00 0.  1.
</event>
<event>
 7    1  0.6058736E-006  0.1972563E+03  0.7818608E-02  0.1205202E+00
          2   -1    0    0  502    0  0.00000000000E+00  0.00000000000E+00  0.60747317562E+03  0.60747317562E+03  0.00000000000E+00 0. -1.
          1   -1    0    0  501    0 -0.00000000000E+00 -0.00000000000E+00 -0.13694808661E+04  0.13694808661E+04  0.00000000000E+00 0. -1.
         25    2    1    2    0    0 -0.15407421411E+03  0.18767156214E+03 -0.22550276821E+03  0.35417370725E+03  0.12501215040E+03 0.  0.
          2    1    1    2  501    0  0.45695036562E+02 -0.18841906018E+03 -0.10653985356E+04  0.10828960330E+04  0.00000000000E+00 0. -1.
          1    1    1    2  502    0  0.10837917754E+03  0.74749804366E+00  0.52889361328E+03  0.53988430154E+03  0.00000000000E+00 0. -1.
         22    1    3    3    0    0 -0.17250807778E+03  0.17828996016E+03 -0.22255231047E+03  0.33328047901E+03  0.00000000000E+00 0. -1.
         22    1    3    3    0    0  0.18433863670E+02  0.93816019776E+01 -0.29504577405E+01  0.20893228242E+02  0.00000000000E+00 0. -1.
</event>
<event>
 7    1  0.6058736E-006  0.8040723E+02  0.7818608E-02  0.1435561E+00
          2   -1    0    0  502    0  0.00000000000E+00  0.00000000000E+00  0.28204410898E+03  0.28204410898E+03  0.00000000000E+00 0. -1.
          1   -1    0    0  501    0 -0.00000000000E+00 -0.00000000000E+00 -0.27210074514E+03  0.27210074514E+03  0.00000000000E+00 0. -1.
         25    2    1    2    0    0 -0.98804231739E+02  0.29320186410E+01 -0.54377806623E+02  0.16838371725E+03  0.12500102975E+03 0.  0.
          2    1    1    2  501    0  0.73772373440E+02 -0.25116556303E+02 -0.14989846424E+03  0.16894600932E+03  0.00000000000E+00 0. -1.
          1    1    1    2  502    0  0.25031858299E+02  0.22184537662E+02  0.21421963470E+03  0.21681512755E+03  0.00000000000E+00 0. -1.
         22    1    3    3    0    0 -0.80948471522E+02 -0.49345424113E+02 -0.61019603960E+02  0.11274315052E+03  0.00000000000E+00 0.  1.
         22    1    3    3    0    0 -0.17855760217E+02  0.52277442754E+02  0.66417973367E+01  0.55640566727E+02  0.00000000000E+00 0.  1.
</event>
<event>
 7    1  0.6058736E-006  0.1549211E+03  0.7818608E-02  0.1359322E+00
          2   -1    0    0  502    0  0.00000000000E+00  0.00000000000E+00  0.18934622761E+04  0.18934622761E+04  0.00000000000E+00 0. -1.
          1   -1    0    0  501    0 -0.00000000000E+00 -0.00000000000E+00 -0.46292585818E+03  0.46292585818E+03  0.00000000000E+00 0. -1.
         25    2    1    2    0    0  0.16429480464E+03 -0.25154890003E+02 -0.23040886956E+03  0.31038495486E+03  0.12500008685E+03 0.  0.
          2    1    1    2  501    0 -0.18209800010E+02 -0.26112219350E+02 -0.18795515122E+03  0.19063206363E+03  0.00000000000E+00 0. -1.
          1    1    1    2  502    0 -0.14608500463E+03  0.51267109353E+02  0.18489004387E+04  0.18553711158E+04  0.00000000000E+00 0. -1.
         22    1    3    3    0    0  0.16203154354E+03  0.17972078928E+02 -0.19747757663E+03  0.25607539904E+03  0.00000000000E+00 0.  1.
         22    1    3    3    0    0  0.22632611030E+01 -0.43126968931E+02 -0.32931292931E+02  0.54309555827E+02  0.00000000000E+00 0.  1.
</event>
<event>
 7    1  0.6058736E-006  0.2900361E+02  0.7818608E-02  0.1615491E+00
          2   -1    0    0  502    0  0.00000000000E+00  0.00000000000E+00  0.13388125569E+04  0.13388125569E+04  0.00000000000E+00 0. -1.
          1   -1    0    0  501    0 -0.00000000000E+00 -0.00000000000E+00 -0.60355363238E+03  0.60355363238E+03  0.00000000000E+00 0. -1.
         25    2    1    2    0    0  0.26041417751E+02 -0.48713635381E+01 -0.29001676817E+03  0.31691767118E+03  0.12500079546E+03 0.  0.
          2    1    1    2  501    0 -0.10301494051E+02  0.27993858014E+02 -0.29919711658E+03  0.30068038086E+03  0.00000000000E+00 0. -1.
          1    1    1    2  502    0 -0.15739923700E+02 -0.23122494476E+02  0.13244728092E+04  0.13247681372E+04  0.00000000000E+00 0. -1.
         22    1    3    3    0    0  0.10889342985E+01  0.14710538575E+02 -0.28430666989E+03  0.28468907296E+03  0.00000000000E+00 0. -1.
         22    1    3    3    0    0  0.24952483452E+02 -0.19581902113E+02 -0.57100982848E+01  0.32228598220E+02  0.00000000000E+00 0. -1.
</event>
<event>
 7    1  0.6058736E-006  0.7270955E+02  0.7818608E-02  0.1457732E+00
          2   -1    0    0  502    0  0.00000000000E+00  0.00000000000E+00  0.35724300421E+03  0.35724300421E+03  0.00000000000E+00 0. -1.
          1   -1    0    0  501    0 -0.00000000000E+00 -0.00000000000E+00 -0.94638100129E+03  0.94638100129E+03  0.00000000000E+00 0. -1.
         25    2    1    2    0    0  0.54674991686E+02 -0.46394635545E+02 -0.92568740300E+02  0.17127714780E+03  0.12500029102E+03 0.  0.
          2    1    1    2  501    0  0.15698918054E+02  0.27182207248E+02 -0.80996492334E+03  0.81057294889E+03  0.00000000000E+00 0. -1.
          1    1    1    2  502    0 -0.70373909741E+02  0.19212428296E+02  0.31339566657E+03  0.32177390882E+03  0.00000000000E+00 0. -1.
         22    1    3    3    0    0  0.78127795380E+01  0.40840602986E+02 -0.11076634628E+02  0.43031223676E+02  0.00000000000E+00 0. -1.
         22    1    3    3    0    0  0.46862212148E+02 -0.87235238530E+02 -0.81492105672E+02  0.12824592413E+03  0.00000000000E+00 0. -1.
</event>
<event>
 7    1  0.6058736E-006  0.1833189E+03  0.7818608E-02  0.1293943E+00
          2   -1    0    0  502    0  0.00000000000E+00  0.00000000000E+00  0.22396799586E+03  0.22396799586E+03  0.00000000000E+00 0. -1.
          1   -1    0    0  501    0 -0.00000000000E+00 -0.00000000000E+00 -0.12678227647E+04  0.12678227647E+04  0.00000000000E+00 0. -1.
         25    2    1    2    0    0 -0.16622809480E+03 -0.41202288618E+01  0.46749388930E+01  0.20807982660E+03  0.12500641341E+03 0.  0.
          2    1    1    2  501    0 -0.28076684835E+02 -0.38903540537E+02 -0.10810036781E+04  0.10820678064E+04  0.00000000000E+00 0. -1.
          1    1    1    2  502    0  0.19430477964E+03  0.43023769398E+02  0.32473970366E+02  0.20164312752E+03  0.00000000000E+00 0. -1.
         22    1    3    3    0    0 -0.17765142339E+03  0.81336730882E+01  0.27307246285E+02  0.17992184572E+03  0.00000000000E+00 0.  1.
         22    1    3    3    0    0  0.11423328583E+02 -0.12253901950E+02 -0.22632307392E+02  0.28157980872E+02  0.00000000000E+00 0.  1.
</event>
<event>
 7    1  0.6058736E-006  0.1140694E+03  0.7818608E-02  0.1298173E+00
          2   -1    0    0  502    0  0.00000000000E+00  0.00000000000E+00  0.17979567565E+04  0.17979567565E+04  0.00000000000E+00 0. -1.
          1   -1    0    0  501    0 -0.00000000000E+00 -0.00000000000E+00 -0.25674424667E+03  0.25674424667E+03  0.00000000000E+00 0. -1.
         25    2    1    2    0    0 -0.16655357493E+03 -0.77774524353E+02  0.54816824040E+03  0.59152489671E+03  0.12499725469E+03 0.  0.
          2    1    1    2  501    0  0.94265779680E+02  0.61321754620E+02 -0.22041975152E+03  0.24744951338E+03  0.00000000000E+00 0. -1.
          1    1    1    2  502    0  0.72287795247E+02  0.16452769733E+02  0.12134640210E+04  0.12157265931E+04  0.00000000000E+00 0. -1.
         22    1    3    3    0    0  0.19221403842E+02 -0.59032656788E+01  0.84886960803E+02  0.87235927379E+02  0.00000000000E+00 0.  1.
         22    1    3    3    0    0 -0.18577497877E+03 -0.71871258674E+02  0.46328127960E+03  0.50428896933E+03  0.00000000000E+00 0.  1.
</event>
<event>
 7    1  0.6058736E-006  0.8078322E+02  0.7818608E-02  0.1397090E+00
          2   -1    0    0  502    0  0.00000000000E+00  0.00000000000E+00  0.20966925413E+04  0.20966925413E+04  0.00000000000E+00 0. -1.
          1   -1    0    0  501    0 -0.00000000000E+00 -0.00000000000E+00 -0.18274164259E+02  0.18274164259E+02  0.00000000000E+00 0. -1.
         25    2    1    2    0    0 -0.10723235474E+03 -0.33956509195E+02  0.15583548364E+04  0.15674007329E+04  0.12499375640E+03 0.  0.
          2    1    1    2  501    0  0.63988542452E+02  0.45765078215E+02  0.11098761602E+03  0.13604126896E+03  0.00000000000E+00 0. -1.
          1    1    1    2  502    0  0.43243812287E+02 -0.11808569020E+02  0.40907592464E+03  0.41152470366E+03  0.00000000000E+00 0. -1.
         22    1    3    3    0    0 -0.23251154113E+02 -0.47496880987E+02  0.21698168140E+03  0.22333297995E+03  0.00000000000E+00 0. -1.
         22    1    3    3    0    0 -0.83981200627E+02  0.13540371792E+02  0.13413731550E+04  0.13440677530E+04  0.00000000000E+00 0. -1.
</event>
<event>
 7    1  0.6096312E-006  0.7626549E+02  0.7818608E-02  0.1346112E+00
          2   -1    0    0  502    0  0.00000000000E+00  0.00000000000E+00  0.27942974855E+04  0.27942974855E+04  0.00000000000E+00 0. -1.
          1   -1    0    0  501    0 -0.00000000000E+00 -0.00000000000E+00 -0.34762741691E+03  0.34762741691E+03  0.00000000000E+00 0. -1.
         25    2    1    2    0    0 -0.34812625608E+02 -0.13211007474E+03  0.46073596258E+02  0.19081978759E+03  0.12499769723E+03 0.  0.
          2    1    1    2  501    0 -0.78206559891E+01  0.73657506319E+02 -0.26977228867E+03  0.27975646308E+03  0.00000000000E+00 0. -1.
          1    1    1    2  502    0  0.42633281597E+02  0.58452568417E+02  0.26703687610E+04  0.26713486518E+04  0.00000000000E+00 0. -1.
         22    1    3    3    0    0  0.12086616857E+02 -0.13712880842E+03  0.39364067384E+02  0.14317795293E+03  0.00000000000E+00 0.  1.
         22    1    3    3    0    0 -0.46899242465E+02  0.50187336786E+01  0.67095288741E+01  0.47641834655E+02  0.00000000000E+00 0.  1.
</event>
<event>
 7    1  0.6058736E-006  0.6751063E+02  0.7818608E-02  0.1412978E+00
          2   -1    0    0  502    0  0.00000000000E+00  0.00000000000E+00  0.89483731047E+03  0.89483731047E+03  0.00000000000E+00 0. -1.
          1   -1    0    0  501    0 -0.00000000000E+00 -0.00000000000E+00 -0.18546694210E+03  0.18546694210E+03  0.00000000000E+00 0. -1.
         25    2    1    2    0    0  0.37549624330E+02  0.47099206763E+02  0.40485780258E+03  0.42797582137E+03  0.12500061522E+03 0.  0.
          2    1    1    2  501    0  0.50805914386E+01 -0.67691148119E+02 -0.16605053307E+03  0.17938975298E+03  0.00000000000E+00 0. -1.
          1    1    1    2  502    0 -0.42630215768E+02  0.20591941356E+02  0.47056309886E+03  0.47293867822E+03  0.00000000000E+00 0. -1.
         22    1    3    3    0    0 -0.93791047438E+01 -0.26595076198E+02  0.23766045910E+03  0.23932772406E+03  0.00000000000E+00 0.  1.
         22    1    3    3    0    0  0.46928729073E+02  0.73694282961E+02  0.16719734347E+03  0.18864809731E+03  0.00000000000E+00 0.  1.
</event>
<event>
 7    1  0.6058736E-006  0.1231022E+03  0.7818608E-02  0.1333599E+00
          2   -1    0    0  502    0  0.00000000000E+00  0.00000000000E+00  0.18123422061E+03  0.18123422061E+03  0.00000000000E+00 0. -1.
          1   -1    0    0  501    0 -0.00000000000E+00 -0.00000000000E+00 -0.69277152773E+03  0.69277152773E+03  0.00000000000E+00 0. -1.
         25    2    1    2    0    0  0.48278243377E+02  0.57902755066E+02 -0.49128721055E+03  0.51251291912E+03  0.12499140445E+03 0.  0.
          2    1    1    2  501    0  0.31326729914E+02  0.38911646124E+02 -0.16361028263E+03  0.17106666769E+03  0.00000000000E+00 0. -1.
          1    1    1    2  502    0 -0.79604973291E+02 -0.96814401190E+02  0.14336018606E+03  0.19042616154E+03  0.00000000000E+00 0. -1.
         22    1    3    3    0    0  0.55819469937E+02  0.89866272101E+02 -0.29276512477E+03  0.31129275348E+03  0.00000000000E+00 0. -1.
         22    1    3    3    0    0 -0.75412265600E+01 -0.31963517035E+02 -0.19852208577E+03  0.20122016564E+03  0.00000000000E+00 0. -1.
</event>
<event>
 7    1  0.6058736E-006  0.3159730E+02  0.7818608E-02  0.1586522E+00
          2   -1    0    0  502    0  0.00000000000E+00  0.00000000000E+00  0.17852054828E+04  0.17852054828E+04  0.00000000000E+00 0. -1.
          1   -1    0    0  501    0 -0.00000000000E+00 -0.00000000000E+00 -0.10625485561E+03  0.10625485561E+03  0.00000000000E+00 0. -1.
         25    2    1    2    0    0  0.15875150032E+02 -0.45321079843E+02  0.31400362102E+03  0.34136423835E+03  0.12500099415E+03 0.  0.
          2    1    1    2  501    0 -0.26292509767E+02  0.15571140559E+02 -0.89877535372E+02  0.94930120893E+02  0.00000000000E+00 0. -1.
          1    1    1    2  502    0  0.10417359735E+02  0.29749939284E+02  0.14548245416E+04  0.14551659792E+04  0.00000000000E+00 0. -1.
         22    1    3    3    0    0 -0.46885974315E+02 -0.52799416248E+02  0.15941723541E+03  0.17435575095E+03  0.00000000000E+00 0. -1.
         22    1    3    3    0    0  0.62761124347E+02  0.74783364052E+01  0.15458638561E+03  0.16700848739E+03  0.00000000000E+00 0. -1.
</event>
<event>
 7    1  0.6058736E-006  0.5365258E+02  0.7818608E-02  0.1543439E+00
          2   -1    0    0  502    0  0.00000000000E+00  0.00000000000E+00  0.12865638948E+03  0.12865638948E+03  0.00000000000E+00 0. -1.
          1   -1    0    0  501    0 -0.00000000000E+00 -0.00000000000E+00 -0.49648013032E+03  0.49648013032E+03  0.00000000000E+00 0. -1.
         25    2    1    2    0    0 -0.67154538777E+02 -0.29862742170E+02  0.53995808026E+01  0.14510299510E+03  0.12499683303E+03 0.  0.
          2    1    1    2  501    0  0.22778859690E+02  0.61935924132E+01 -0.41437678851E+03  0.41504862353E+03  0.00000000000E+00 0. -1.
          1    1    1    2  502    0  0.44375679087E+02  0.23669149756E+02  0.41153466872E+02  0.64984901171E+02  0.00000000000E+00 0. -1.
         22    1    3    3    0    0 -0.72054054027E+02  0.23584800607E+02 -0.29201135880E+02  0.81244912814E+02  0.00000000000E+00 0.  1.
         22    1    3    3    0    0  0.48995152502E+01 -0.53447542777E+02  0.34600716683E+02  0.63858082288E+02  0.00000000000E+00 0.  1.
</event>
<event>
 7    1  0.6058736E-006  0.4414005E+02  0.7818608E-02  0.1500906E+00
          2   -1    0    0  502    0  0.00000000000E+00  0.00000000000E+00  0.64190584265E+02  0.64190584265E+02  0.00000000000E+00 0. -1.
          1   -1    0    0  501    0 -0.00000000000E+00 -0.00000000000E+00 -0.22651469797E+04  0.22651469797E+04  0.00000000000E+00 0. -1.
         25    2    1    2    0    0 -0.78583971956E+01 -0.43240193247E+02 -0.15131351666E+04  0.15189252869E+04  0.12499810490E+03 0.  0.
          2    1    1    2  501    0 -0.31010849109E+02  0.22138621689E+02 -0.74058460428E+03  0.74156412227E+03  0.00000000000E+00 0. -1.
          1    1    1    2  502    0  0.38869246305E+02  0.21101571558E+02  0.52763375417E+02  0.68848154774E+02  0.00000000000E+00 0. -1.
         22    1    3    3    0    0  0.17904957225E+02  0.39016241038E+02 -0.67675450566E+03  0.67811467724E+03  0.00000000000E+00 0. -1.
         22    1    3    3    0    0 -0.25763354421E+02 -0.82256434285E+02 -0.83638066092E+03  0.84081060970E+03  0.00000000000E+00 0. -1.
</event>
<event>
 7    1  0.6058736E-006  0.4424569E+02  0.7818608E-02  0.1566452E+00
          2   -1    0    0  502    0  0.00000000000E+00  0.00000000000E+00  0.12823528629E+04  0.12823528629E+04  0.00000000000E+00 0. -1.
          1   -1    0    0  501    0 -0.00000000000E+00 -0.00000000000E+00 -0.20190244359E+02  0.20190244359E+02  0.00000000000E+00 0. -1.
         25    2    1    2    0    0 -0.27976504753E+02 -0.12381807026E+02  0.79168425779E+03  0.80207555988E+03  0.12500098302E+03 0.  0.
          2    1    1    2  501    0  0.44642918299E+02 -0.58683963311E+01  0.19927898630E+02  0.49239713378E+02  0.00000000000E+00 0. -1.
          1    1    1    2  502    0 -0.16666413546E+02  0.18250203357E+02  0.45055046214E+03  0.45122783402E+03  0.00000000000E+00 0. -1.
         22    1    3    3    0    0  0.48611903818E+02 -0.16553612428E+02  0.35728057565E+03  0.36095228080E+03  0.00000000000E+00 0. -1.
         22    1    3    3    0    0 -0.76588408571E+02  0.41718054018E+01  0.43440368214E+03  0.44112327908E+03  0.00000000000E+00 0. -1.
</event>
<event>
 7    1  0.6058736E-006  0.7952203E+02  0.7818608E-02  0.1362776E+00
          2   -1    0    0  502    0  0.00000000000E+00  0.00000000000E+00  0.18743070168E+03  0.18743070168E+03  0.00000000000E+00 0. -1.
          1   -1    0    0  501    0 -0.00000000000E+00 -0.00000000000E+00 -0.36131603785E+03  0.36131603785E+03  0.00000000000E+00 0. -1.
         25    2    1    2    0    0 -0.27296899018E+02  0.76620594524E+01 -0.75758098893E+02  0.14888940895E+03  0.12499975480E+03 0.  0.
          2    1    1    2  501    0 -0.39670864719E+02  0.45342721626E+02 -0.23275421687E+03  0.24042517626E+03  0.00000000000E+00 0. -1.
          1    1    1    2  502    0  0.66967763737E+02 -0.53004781079E+02  0.13462697959E+03  0.15943215432E+03  0.00000000000E+00 0. -1.
         22    1    3    3    0    0 -0.10858988452E+02 -0.21083754424E+02 -0.10319544680E+03  0.10588551634E+03  0.00000000000E+00 0. -1.
         22    1    3    3    0    0 -0.16437910566E+02  0.28745813876E+02  0.27437347909E+02  0.43003892608E+02  0.00000000000E+00 0. -1.
</event>
<event>
 7    1  0.6058736E-006  0.1482073E+03  0.7818608E-02  0.1391316E+00
          2   -1    0    0  502    0  0.00000000000E+00  0.00000000000E+00  0.12009119835E+03  0.12009119835E+03  0.00000000000E+00 0. -1.
          1   -1    0    0  501    0 -0.00000000000E+00 -0.00000000000E+00 -0.16623831582E+04  0.16623831582E+04  0.00000000000E+00 0. -1.
         25    2    1    2    0    0  0.17024750305E+03 -0.18812672973E+02 -0.48184714461E+03  0.52644172703E+03  0.12500436886E+03 0.  0.
          2    1    1    2  501    0 -0.25521715924E+02  0.18262022627E+01 -0.11037252618E+04  0.11040218053E+04  0.00000000000E+00 0. -1.
          1    1    1    2  502    0 -0.14472578713E+03  0.16986470710E+02  0.43280446520E+02  0.15201082428E+03  0.00000000000E+00 0. -1.
         22    1    3    3    0    0  0.77304223906E+01 -0.11331772636E+02 -0.20405753836E+03  0.20451808590E+03  0.00000000000E+00 0.  1.
         22    1    3    3    0    0  0.16251708066E+03 -0.74809003364E+01 -0.27778960625E+03  0.32192364113E+03  0.00000000000E+00 0.  1.
</event>
<event>
 7    1  0.6058736E-006  0.1015323E+03  0.7818608E-02  0.1369373E+00
          2   -1    0    0  502    0  0.00000000000E+00  0.00000000000E+00  0.99816827573E+03  0.99816827573E+03  0.00000000000E+00 0. -1.
          1   -1    0    0  501    0 -0.00000000000E+00 -0.00000000000E+00 -0.12586066256E+03  0.12586066256E+03  0.00000000000E+00 0. -1.
         25    2    1    2    0    0  0.52507359755E+02  0.69076915532E+02  0.19527251440E+03  0.24755695803E+03  0.12499779797E+03 0.  0.
          2    1    1    2  501    0  0.39854077761E+02 -0.20164282764E+02 -0.90993701196E+02  0.10136468552E+03  0.00000000000E+00 0. -1.
          1    1    1    2  502    0 -0.92361437516E+02 -0.48912632769E+02  0.76802879997E+03  0.77510729474E+03  0.00000000000E+00 0. -1.
         22    1    3    3    0    0 -0.79777141549E+01  0.40544303657E+02  0.17176985663E+03  0.17667022423E+03  0.00000000000E+00 0.  1.
         22    1    3    3    0    0  0.60485073909E+02  0.28532611876E+02  0.23502657774E+02  0.70886733799E+02  0.00000000000E+00 0.  1.
</event>
<event>
 7    1  0.6058736E-006  0.1630376E+03  0.7818608E-02  0.1287748E+00
          2   -1    0    0  502    0  0.00000000000E+00  0.00000000000E+00  0.88175166544E+03  0.88175166544E+03  0.00000000000E+00 0. -1.
          1   -1    0    0  501    0 -0.00000000000E+00 -0.00000000000E+00 -0.13242506379E+04  0.13242506379E+04  0.00000000000E+00 0. -1.
         25    2    1    2    0    0 -0.12393523708E+03 -0.48340215052E+02 -0.85695031271E+02  0.20165643236E+03  0.12499983578E+03 0.  0.
          2    1    1    2  501    0  0.12925257852E+03  0.10525524958E+03 -0.11736873624E+04  0.11854648545E+04  0.00000000000E+00 0. -1.
          1    1    1    2  502    0 -0.53173414328E+01 -0.56915034528E+02  0.81688342122E+03  0.81888101647E+03  0.00000000000E+00 0. -1.
         22    1    3    3    0    0 -0.10356859222E+03 -0.68662731559E+02 -0.14793315268E+02  0.12513938699E+03  0.00000000000E+00 0. -1.
         22    1    3    3    0    0 -0.20366644864E+02  0.20322516508E+02 -0.70901716003E+02  0.76517045372E+02  0.00000000000E+00 0. -1.
</event>
<event>
 7    1  0.6058736E-006  0.1174839E+03  0.7818608E-02  0.1324705E+00
          2   -1    0    0  502    0  0.00000000000E+00  0.00000000000E+00  0.43312672849E+04  0.43312672849E+04  0.00000000000E+00 0. -1.
          1   -1    0    0  501    0 -0.00000000000E+00 -0.00000000000E+00 -0.49778022180E+03  0.49778022180E+03  0.00000000000E+00 0. -1.
         25    2    1    2    0    0  0.15392895422E+03 -0.28300617113E+02  0.28043793991E+04  0.28115235126E+04  0.12500239956E+03 0.  0.
          2    1    1    2  501    0 -0.10386776575E+03  0.54729579631E+02 -0.48669966540E+03  0.50065996839E+03  0.00000000000E+00 0. -1.
          1    1    1    2  502    0 -0.50061188477E+02 -0.26428962518E+02  0.15158073294E+04  0.15168640257E+04  0.00000000000E+00 0. -1.
         22    1    3    3    0    0  0.60786181892E+02  0.47494552552E+02  0.86649183258E+03  0.86991884010E+03  0.00000000000E+00 0. -1.
         22    1    3    3    0    0  0.93142772332E+02 -0.75795169665E+02  0.19378875666E+04  0.19416046725E+04  0.00000000000E+00 0. -1.
</event>
<event>
 7    1  0.6058736E-006  0.9671793E+02  0.7818608E-02  0.1355649E+00
          2   -1    0    0  502    0  0.00000000000E+00  0.00000000000E+00  0.61458914366E+03  0.61458914366E+03  0.00000000000E+00 0. -1.
          1   -1    0    0  501    0 -0.00000000000E+00 -0.00000000000E+00 -0.12147199117E+03  0.12147199117E+03  0.00000000000E+00 0. -1.
         25    2    1    2    0    0 -0.83118642263E+02  0.10087819408E+03  0.49400237922E+02  0.18747985340E+03  0.12499277256E+03 0.  0.
          2    1    1    2  501    0  0.34939247648E+02 -0.79779260696E+02 -0.13686723004E+02  0.88163529024E+02  0.00000000000E+00 0. -1.
          1    1    1    2  502    0  0.48179394615E+02 -0.21098933388E+02  0.45740363758E+03  0.46041775240E+03  0.00000000000E+00 0. -1.
         22    1    3    3    0    0  0.60300525137E+01 -0.10434462136E+01  0.51690808860E+02  0.52051801448E+02  0.00000000000E+00 0. -1.
         22    1    3    3    0    0 -0.89148694777E+02  0.10192164030E+03 -0.22905709388E+01  0.13542805196E+03  0.00000000000E+00 0. -1.
</event>
<event>
 7    1  0.7422858E-006  0.7802720E+02  0.7818608E-02  0.1398489E+00
          2   -1    0    0  502    0  0.00000000000E+00  0.00000000000E+00  0.74873116061E+03  0.74873116061E+03  0.00000000000E+00 0. -1.
          1   -1    0    0  501    0 -0.00000000000E+00 -0.00000000000E+00 -0.14338844683E+04  0.14338844683E+04  0.00000000000E+00 0. -1.
         25    2    1    2    0    0 -0.39527675224E+02 -0.88531869524E+02 -0.49451876570E+03  0.51920530046E+03  0.12500002148E+03 0.  0.
          2    1    1    2  501    0  0.44632184105E+02  0.10703618189E+02 -0.92438621119E+03  0.92552496819E+03  0.00000000000E+00 0. -1.
          1    1    1    2  502    0 -0.51045088809E+01  0.77828251335E+02  0.73375166924E+03  0.73788536022E+03  0.00000000000E+00 0. -1.
         22    1    3    3    0    0 -0.68525473888E+02 -0.25458976884E+02 -0.36507361695E+03  0.37232062240E+03  0.00000000000E+00 0.  1.
         22    1    3    3    0    0  0.28997798664E+02 -0.63072892639E+02 -0.12944514875E+03  0.14688467806E+03  0.00000000000E+00 0.  1.
</event>
<event>
 7    1  0.6058736E-006  0.4512969E+02  0.7818608E-02  0.1478833E+00
          2   -1    0    0  502    0  0.00000000000E+00  0.00000000000E+00  0.26848164221E+04  0.26848164221E+04  0.00000000000E+00 0. -1.
          1   -1    0    0  501    0 -0.00000000000E+00 -0.00000000000E+00 -0.62904427194E+02  0.62904427194E+02  0.00000000000E+00 0. -1.
         25    2    1    2    0    0  0.84342338487E+02  0.18566134688E+02  0.76685423814E+03  0.78175964953E+03  0.12499758265E+03 0.  0.
          2    1    1    2  501    0 -0.43339972497E+02 -0.32664919176E+01 -0.46644607645E+02  0.63755333956E+02  0.00000000000E+00 0. -1.
          1    1    1    2  502    0 -0.41002365990E+02 -0.15299642770E+02  0.19017023644E+04  0.19022058658E+04  0.00000000000E+00 0. -1.
         22    1    3    3    0    0  0.48096455290E+02 -0.52563963908E+02  0.32066856578E+03  0.32848830784E+03  0.00000000000E+00 0. -1.
         22    1    3    3    0    0  0.36245883197E+02  0.71130098596E+02  0.44618567236E+03  0.45327134169E+03  0.00000000000E+00 0. -1.
</event>
<event>
 7    1  0.6058736E-006  0.1043574E+03  0.7818608E-02  0.1336129E+00
          2   -1    0    0  502    0  0.00000000000E+00  0.00000000000E+00  0.12742576648E+04  0.12742576648E+04  0.00000000000E+00 0. -1.
          1   -1    0    0  501    0 -0.00000000000E+00 -0.00000000000E+00 -0.17145777050E+04  0.17145777050E+04  0.00000000000E+00 0. -1.
         25    2    1    2    0    0  0.68964699569E+02 -0.51127612576E+01 -0.12700051853E+02  0.14341965543E+03  0.12500254451E+03 0.  0.
          2    1    1    2  501    0 -0.94747906637E+02 -0.46439494064E+02 -0.16341282578E+04  0.16375313601E+04  0.00000000000E+00 0. -1.
          1    1    1    2  502    0  0.25783207068E+02  0.51552255322E+02  0.12065082695E+04  0.12078843542E+04  0.00000000000E+00 0. -1.
         22    1    3    3    0    0 -0.24558559362E+02 -0.36470870807E+02 -0.78191960240E+01  0.44658561125E+02  0.00000000000E+00 0. -1.
         22    1    3    3    0    0  0.93523258930E+02  0.31358109549E+02 -0.48808558289E+01  0.98761094309E+02  0.00000000000E+00 0. -1.
</event>
<event>
 7    1  0.6058736E-006  0.4704062E+02  0.7818608E-02  0.1580559E+00
          2   -1    0    0  502    0  0.00000000000E+00  0.00000000000E+00  0.10726248657E+04  0.10726248657E+04  0.00000000000E+00 0. -1.
          1   -1    0    0  501    0 -0.00000000000E+00 -0.00000000000E+00 -0.74697245740E+03  0.74697245740E+03  0.00000000000E+00 0. -1.
         25    2    1    2    0    0  0.62699854319E+02 -0.53655854087E+01 -0.40273355059E+01  0.14000429589E+03  0.12499968879E+03 0.  0.
          2    1    1    2  501    0 -0.16472842578E+02  0.13490004081E+02 -0.67424030687E+03  0.67457640498E+03  0.00000000000E+00 0. -1.
          1    1    1    2  502    0 -0.46227011741E+02 -0.81244186723E+01  0.10039200506E+04  0.10050166222E+04  0.00000000000E+00 0. -1.
         22    1    3    3    0    0 -0.15092525664E+02  0.20388256281E+02  0.39708011250E+02  0.47118907909E+02  0.00000000000E+00 0.  1.
         22    1    3    3    0    0  0.77792379983E+02 -0.25753841689E+02 -0.43735346756E+02  0.92885387984E+02  0.00000000000E+00 0.  1.
</event>
<event>
 7    1  0.6058736E-006  0.7149466E+02  0.7818608E-02  0.1473182E+00
          2   -1    0    0  502    0  0.00000000000E+00  0.00000000000E+00  0.74274227189E+02  0.74274227189E+02  0.00000000000E+00 0. -1.
          1   -1    0    0  501    0 -0.00000000000E+00 -0.00000000000E+00 -0.25510698268E+04  0.25510698268E+04  0.00000000000E+00 0. -1.
         25    2    1    2    0    0 -0.40802409353E+02 -0.15904736220E+02 -0.14435269261E+03  0.19590271768E+03  0.12498951031E+03 0.  0.
          2    1    1    2  501    0  0.68815527963E+02  0.21460887556E+02 -0.23761434064E+04  0.23772365541E+04  0.00000000000E+00 0. -1.
          1    1    1    2  502    0 -0.28013118610E+02 -0.55561513353E+01  0.43700499404E+02  0.52204782158E+02  0.00000000000E+00 0. -1.
         22    1    3    3    0    0 -0.60937125085E+02 -0.29657017062E+02 -0.22161086391E+02  0.71302073074E+02  0.00000000000E+00 0.  1.
         22    1    3    3    0    0  0.20134715732E+02  0.13752280841E+02 -0.12219160622E+03  0.12460064460E+03  0.00000000000E+00 0.  1.
</event>
<event>
 7    1  0.6058736E-006  0.6636669E+02  0.7818608E-02  0.1494329E+00
          2   -1    0    0  502    0  0.00000000000E+00  0.00000000000E+00  0.76746502503E+03  0.76746502503E+03  0.00000000000E+00 0. -1.
          1   -1    0    0  501    0 -0.00000000000E+00 -0.00000000000E+00 -0.56331576054E+03  0.56331576054E+03  0.00000000000E+00 0. -1.
         25    2    1    2    0    0  0.26291314970E+02 -0.35921633770E+02 -0.19904174178E+03  0.23921920799E+03  0.12500646978E+03 0.  0.
          2    1    1    2  501    0 -0.47470838681E+02  0.51877333571E+02 -0.34035484748E+03  0.34754303398E+03  0.00000000000E+00 0. -1.
          1    1    1    2  502    0  0.21179523711E+02 -0.15955699801E+02  0.74354585375E+03  0.74401854359E+03  0.00000000000E+00 0. -1.
         22    1    3    3    0    0  0.55483266672E+02  0.26373139930E+02 -0.71174677288E+02  0.94020051464E+02  0.00000000000E+00 0. -1.
         22    1    3    3    0    0 -0.29191951702E+02 -0.62294773699E+02 -0.12786706450E+03  0.14519915653E+03  0.00000000000E+00 0. -1.
</event>
<event>
 7    1  0.6058736E-006  0.6211891E+02  0.7818608E-02  0.1390031E+00
          2   -1    0    0  502    0  0.00000000000E+00  0.00000000000E+00  0.15216220721E+04  0.15216220721E+04  0.00000000000E+00 0. -1.
          1   -1    0    0  501    0 -0.00000000000E+00 -0.00000000000E+00 -0.19000145469E+03  0.19000145469E+03  0.00000000000E+00 0. -1.
         25    2    1    2    0    0 -0.17586878252E+02 -0.21232041248E+02  0.47746747897E+03  0.49432762381E+03  0.12499803329E+03 0.  0.
          2    1    1    2  501    0  0.55755499977E+02 -0.27777301995E+02 -0.17526481866E+03  0.18600540569E+03  0.00000000000E+00 0. -1.
          1    1    1    2  502    0 -0.38168621725E+02  0.49009343243E+02  0.10294179571E+04  0.10312904973E+04  0.00000000000E+00 0. -1.
         22    1    3    3    0    0  0.15425555771E+02  0.47431105033E+02  0.23234878961E+03  0.23764178405E+03  0.00000000000E+00 0.  1.
         22    1    3    3    0    0 -0.33012434023E+02 -0.68663146281E+02  0.24511868936E+03  0.25668583976E+03  0.00000000000E+00 0.  1.
</event>
<event>
 7    1  0.6058736E-006  0.1564916E+03  0.7818608E-02  0.1286354E+00
          2   -1    0    0  502    0  0.00000000000E+00  0.00000000000E+00  0.17844082080E+03  0.17844082080E+03  0.00000000000E+00 0. -1.
          1   -1    0    0  501    0 -0.00000000000E+00 -0.00000000000E+00 -0.36219549359E+03  0.36219549359E+03  0.00000000000E+00 0. -1.
         25    2    1    2    0    0  0.28600069733E+02  0.10765427422E+03 -0.18794730973E+01  0.16744013514E+03  0.12500103875E+03 0.  0.
          2    1    1    2  501    0 -0.46331753041E+02 -0.16533012747E+03 -0.23619474389E+03  0.29200794412E+03  0.00000000000E+00 0. -1.
          1    1    1    2  502    0  0.17731683308E+02  0.57675853250E+02  0.54319544196E+02  0.81188235125E+02  0.00000000000E+00 0. -1.
         22    1    3    3    0    0 -0.63499442745E+01  0.14050384081E+02  0.51780111613E+02  0.54026984403E+02  0.00000000000E+00 0. -1.
         22    1    3    3    0    0  0.34950014008E+02  0.93603890141E+02 -0.53659584710E+02  0.11341315074E+03  0.00000000000E+00 0. -1.
</event>
<event>
 7    1  0.6058736E-006  0.9413918E+02  0.7818608E-02  0.1340247E+00
          2   -1    0    0  502    0  0.00000000000E+00  0.00000000000E+00  0.83499464615E+02  0.83499464615E+02  0.00000000000E+00 0. -1.
          1   -1    0    0  501    0 -0.00000000000E+00 -0.00000000000E+00 -0.81935169479E+03  0.81935169479E+03  0.00000000000E+00 0. -1.
         25    2    1    2    0    0  0.90793037561E+02  0.42305133753E+02 -0.33401758227E+03  0.37043829027E+03  0.12499472639E+03 0.  0.
          2    1    1    2  501    0 -0.45487011489E+02  0.41614870454E+02 -0.42887595456E+03  0.43328449090E+03  0.00000000000E+00 0. -1.
          1    1    1    2  502    0 -0.45306026073E+02 -0.83920004207E+02  0.27041306653E+02  0.99128378228E+02  0.00000000000E+00 0. -1.
         22    1    3    3    0    0  0.28504064850E+02  0.79274166947E+02 -0.14064536426E+03  0.16394509369E+03  0.00000000000E+00 0. -1.
         22    1    3    3    0    0  0.62288972712E+02 -0.36969033195E+02 -0.19337221801E+03  0.20649319658E+03  0.00000000000E+00 0. -1.
</event>
<event>
 7    1  0.6058736E-006  0.4832790E+02  0.7818608E-02  0.1481921E+00
          2   -1    0    0  502    0  0.00000000000E+00  0.00000000000E+00  0.94305044658E+02  0.94305044658E+02  0.00000000000E+00 0. -1.
          1   -1    0    0  501    0 -0.00000000000E+00 -0.00000000000E+00 -0.77194272436E+03  0.77194272436E+03  0.00000000000E+00 0. -1.
         25    2    1    2    0    0  0.32530307428E+02 -0.73678822610E+02 -0.34270999433E+03  0.37358034094E+03  0.12500136450E+03 0.  0.
          2    1    1    2  501    0 -0.30887740529E+02  0.34001416618E+02 -0.40742494835E+03  0.41000638701E+03  0.00000000000E+00 0. -1.
          1    1    1    2  502    0 -0.16425668997E+01  0.39677405992E+02  0.72497262973E+02  0.82661041070E+02  0.00000000000E+00 0. -1.
         22    1    3    3    0    0  0.71331613423E+01  0.35590782380E+02 -0.75293034753E+02  0.83586044669E+02  0.00000000000E+00 0. -1.
         22    1    3    3    0    0  0.25397146086E+02 -0.10926960499E+03 -0.26741695957E+03  0.28999429628E+03  0.00000000000E+00 0. -1.
</event>
<event>
 7    1  0.6058736E-006  0.8947129E+02  0.7818608E-02  0.1482600E+00
          2   -1    0    0  502    0  0.00000000000E+00  0.00000000000E+00  0.46825319551E+02  0.46825319551E+02  0.00000000000E+00 0. -1.
          1   -1    0    0  501    0 -0.00000000000E+00 -0.00000000000E+00 -0.60493250247E+03  0.60493250247E+03  0.00000000000E+00 0. -1.
         25    2    1    2    0    0  0.98755818567E+01  0.92722352976E+02 -0.31907281176E+03  0.35514416041E+03  0.12499981445E+03 0.  0.
          2    1    1    2  501    0 -0.29206113274E+02 -0.83663765109E+02 -0.25499836942E+03  0.26995701704E+03  0.00000000000E+00 0. -1.
          1    1    1    2  502    0  0.19330531417E+02 -0.90585878670E+01  0.15963998260E+02  0.26656644565E+02  0.00000000000E+00 0. -1.
         22    1    3    3    0    0 -0.30777873027E+02  0.31435092127E+02 -0.22162148639E+02  0.49260565541E+02  0.00000000000E+00 0. -1.
         22    1    3    3    0    0  0.40653454884E+02  0.61287260849E+02 -0.29691066312E+03  0.30588359487E+03  0.00000000000E+00 0. -1.
</event>
<event>
 7    1  0.6058736E-006  0.8132611E+02  0.7818608E-02  0.1373410E+00
          2   -1    0    0  502    0  0.00000000000E+00  0.00000000000E+00  0.99764611457E+03  0.99764611457E+03  0.00000000000E+00 0. -1.
          1   -1    0    0  501    0 -0.00000000000E+00 -0.00000000000E+00 -0.13751487822E+04  0.13751487822E+04  0.00000000000E+00 0. -1.
         25    2    1    2    0    0 -0.23551729249E+02  0.12366574584E+03  0.65455461134E+03  0.67817133840E+03  0.12500689720E+03 0.  0.
          2    1    1    2  501    0  0.38145898495E+02 -0.71744724635E+02 -0.13599246011E+04  0.13623499314E+04  0.00000000000E+00 0. -1.
          1    1    1    2  502    0 -0.14594169246E+02 -0.51921021204E+02  0.32786732213E+03  0.33227362691E+03  0.00000000000E+00 0. -1.
         22    1    3    3    0    0 -0.60398525552E+02  0.16254465728E+02  0.27323555857E+03  0.28030315734E+03  0.00000000000E+00 0.  1.
         22    1    3    3    0    0  0.36846796303E+02  0.10741128011E+03  0.38131905277E+03  0.39786818106E+03  0.00000000000E+00 0.  1.
</event>
<event>
 7    1  0.6058736E-006  0.9033783E+02  0.7818608E-02  0.1345448E+00
          2   -1    0    0  502    0  0.00000000000E+00  0.00000000000E+00  0.28121849435E+04  0.28121849435E+04  0.00000000000E+00 0. -1.
          1   -1    0    0  501    0 -0.00000000000E+00 -0.00000000000E+00 -0.21864233866E+03  0.21864233866E+03  0.00000000000E+00 0. -1.
         25    2    1    2    0    0 -0.32384169906E+02 -0.49380134851E+02  0.45382953139E+02  0.14547024838E+03  0.12495938760E+03 0.  0.
          2    1    1    2  501    0 -0.73254060232E+01  0.96246415893E+02 -0.15440562967E+03  0.18209374679E+03  0.00000000000E+00 0. -1.
          1    1    1    2  502    0  0.39709575929E+02 -0.46866281042E+02  0.27025652814E+04  0.27032632870E+04  0.00000000000E+00 0. -1.
         22    1    3    3    0    0 -0.18319571146E+02  0.38309109558E+02 -0.59706037941E+01  0.42881728880E+02  0.00000000000E+00 0.  1.
         22    1    3    3    0    0 -0.14064598759E+02 -0.87689244409E+02  0.51353556933E+02  0.10258851950E+03  0.00000000000E+00 0.  1.
</event>
<event>
 7    1  0.6058736E-006  0.1143399E+03  0.7818608E-02  0.1291094E+00
          2   -1    0    0  502    0  0.00000000000E+00  0.00000000000E+00  0.19278950251E+03  0.19278950251E+03  0.00000000000E+00 0. -1.
          1   -1    0    0  501    0 -0.00000000000E+00 -0.00000000000E+00 -0.21485718770E+03  0.21485718770E+03  0.00000000000E+00 0. -1.
         25    2    1    2    0    0 -0.60840355029E+02  0.35768203527E+02 -0.69235078900E+02  0.15937337274E+03  0.12500185041E+03 0.  0.
          2    1    1    2  501    0 -0.35053374818E+00  0.78990966147E+02 -0.43078886319E+02  0.89974919023E+02  0.00000000000E+00 0. -1.
          1    1    1    2  502    0  0.61190888777E+02 -0.11475916967E+03  0.90246280030E+02  0.15829839845E+03  0.00000000000E+00 0. -1.
         22    1    3    3    0    0  0.28996825647E+02  0.42416668398E+02 -0.38452762126E+02  0.64176355230E+02  0.00000000000E+00 0.  1.
         22    1    3    3    0    0 -0.89837180676E+02 -0.66484648707E+01 -0.30782316774E+02  0.95197017511E+02  0.00000000000E+00 0.  1.
</event>
<event>
 7    1  0.6058736E-006  0.5315271E+02  0.7818608E-02  0.1533253E+00
          2   -1    0    0  502    0  0.00000000000E+00  0.00000000000E+00  0.10169682451E+04  0.10169682451E+04  0.00000000000E+00 0. -1.
          1   -1    0    0  501    0 -0.00000000000E+00 -0.00000000000E+00 -0.14981876511E+03  0.14981876511E+03  0.00000000000E+00 0. -1.
         25    2    1    2    0    0 -0.10758449241E+02 -0.67189369748E+02  0.99755311182E+02  0.17380177143E+03  0.12500311199E+03 0.  0.
          2    1    1    2  501    0 -0.14694302704E+02  0.20797656624E+02 -0.11055145187E+03  0.11344641274E+03  0.00000000000E+00 0. -1.
          1    1    1    2  502    0  0.25452751944E+02  0.46391713124E+02  0.87794562065E+03  0.87953882600E+03  0.00000000000E+00 0. -1.
         22    1    3    3    0    0  0.27282933681E+02 -0.62465706029E+02  0.13320313645E+01  0.68176955106E+02  0.00000000000E+00 0. -1.
         22    1    3    3    0    0 -0.38041382922E+02 -0.47236637193E+01  0.98423279818E+02  0.10562481633E+03  0.00000000000E+00 0. -1.
</event>
<event>
 7    1  0.6058736E-006  0.5341466E+02  0.7818608E-02  0.1509072E+00
          2   -1    0    0  502    0  0.00000000000E+00  0.00000000000E+00  0.27772317352E+04  0.27772317352E+04  0.00000000000E+00 0. -1.
          1   -1    0    0  501    0 -0.00000000000E+00 -0.00000000000E+00 -0.24411263528E+02  0.24411263528E+02  0.00000000000E+00 0. -1.
         25    2    1    2    0    0 -0.36316370716E+02  0.19444772671E+02  0.96111897534E+03  0.97008861120E+03  0.12500100342E+03 0.  0.
          2    1    1    2  501    0  0.53938246063E+02  0.45615880871E+01  0.17192407460E+02  0.56795434223E+02  0.00000000000E+00 0. -1.
          1    1    1    2  502    0 -0.17621875347E+02 -0.24006360758E+02  0.17745090888E+04  0.17747589533E+04  0.00000000000E+00 0. -1.
         22    1    3    3    0    0  0.87427296692E+01  0.66048569268E+02  0.46287570703E+03  0.46764598681E+03  0.00000000000E+00 0.  1.
         22    1    3    3    0    0 -0.45059100385E+02 -0.46603796598E+02  0.49824326832E+03  0.50244262439E+03  0.00000000000E+00 0.  1.
</event>
<event>
 7    1  0.7135771E-006  0.9158674E+02  0.7818608E-02  0.1367189E+00
          2   -1    0    0  502    0  0.00000000000E+00  0.00000000000E+00  0.22846653835E+04  0.22846653835E+04  0.00000000000E+00 0. -1.
          1   -1    0    0  501    0 -0.00000000000E+00 -0.00000000000E+00 -0.11117602782E+04  0.11117602782E+04  0.00000000000E+00 0. -1.
         25    2    1    2    0    0 -0.54669390961E+02 -0.15041020291E+02 -0.37290390275E+02  0.14223354249E+03  0.12499933121E+03 0.  0.
          2    1    1    2  501    0  0.91136300897E+02 -0.19778634671E+02 -0.10195852673E+04  0.10238413632E+04  0.00000000000E+00 0. -1.
          1    1    1    2  502    0 -0.36466909936E+02  0.34819654962E+02  0.22297807629E+04  0.22303507560E+04  0.00000000000E+00 0. -1.
         22    1    3    3    0    0 -0.63987696940E+01 -0.26979763112E+02 -0.74912588508E+02  0.79879583050E+02  0.00000000000E+00 0.  1.
         22    1    3    3    0    0 -0.48270621268E+02  0.11938742821E+02  0.37622198233E+02  0.62353959438E+02  0.00000000000E+00 0.  1.
</event>
<event>
 7    1  0.6058736E-006  0.1185532E+03  0.7818608E-02  0.1346690E+00
          2   -1    0    0  502    0  0.00000000000E+00  0.00000000000E+00  0.18241242510E+03  0.18241242510E+03  0.00000000000E+00 0. -1.
          1   -1    0    0  501    0 -0.00000000000E+00 -0.00000000000E+00 -0.47753965093E+03  0.47753965093E+03  0.00000000000E+00 0. -1.
         25    2    1    2    0    0 -0.13013646210E+03  0.43706937628E+02 -0.17580617087E+03  0.25569120117E+03  0.12499754188E+03 0.  0.
          2    1    1    2  501    0  0.12964661825E+02 -0.44459640052E+02 -0.23505084681E+03  0.23956970308E+03  0.00000000000E+00 0. -1.
          1    1    1    2  502    0  0.11717180027E+03  0.75270242435E+00  0.11572979185E+03  0.16469117178E+03  0.00000000000E+00 0. -1.
         22    1    3    3    0    0 -0.31940283916E+02 -0.19079439525E+02 -0.12157255353E+03  0.12713808446E+03  0.00000000000E+00 0. -1.
         22    1    3    3    0    0 -0.98196178181E+02  0.62786377153E+02 -0.54233617336E+02  0.12855311671E+03  0.00000000000E+00 0. -1.
</event>
<event>
 7    1  0.6058736E-006  0.4204888E+02  0.7818608E-02  0.1587941E+00
          2   -1    0    0  502    0  0.00000000000E+00  0.00000000000E+00  0.80990084922E+03  0.80990084922E+03  0.00000000000E+00 0. -1.
          1   -1    0    0  501    0 -0.00000000000E+00 -0.00000000000E+00 -0.15878131702E+04  0.15878131702E+04  0.00000000000E+00 0. -1.
         25    2    1    2    0    0 -0.16600614234E+02 -0.18066555020E+02 -0.62710039318E+03  0.63990722237E+03  0.12499747722E+03 0.  0.
          2    1    1    2  501    0 -0.22592536909E+02  0.27868600002E+01 -0.95362285684E+03  0.95389451324E+03  0.00000000000E+00 0. -1.
          1    1    1    2  502    0  0.39193151143E+02  0.15279695020E+02  0.80281092907E+03  0.80391228377E+03  0.00000000000E+00 0. -1.
         22    1    3    3    0    0  0.65428443849E+00 -0.70121129815E+02 -0.41206250037E+03  0.41798672844E+03  0.00000000000E+00 0.  1.
         22    1    3    3    0    0 -0.17254898672E+02  0.52054574795E+02 -0.21503789281E+03  0.22192049394E+03  0.00000000000E+00 0.  1.
</event>
<event>
 7    1  0.6471649E-006  0.8935185E+02  0.7818608E-02  0.1328250E+00
          2   -1    0    0  502    0  0.00000000000E+00  0.00000000000E+00  0.27465866280E+04  0.27465866280E+04  0.00000000000E+00 0. -1.
          1   -1    0    0  501    0 -0.00000000000E+00 -0.00000000000E+00 -0.42804124809E+03  0.42804124809E+03  0.00000000000E+00 0. -1.
         25    2    1    2    0    0 -0.67828317764E+02 -0.14438489018E+03  0.19933859335E+00  0.20266712127E+03  0.12500498032E+03 0.  0.
          2    1    1    2  501    0  0.40045505396E+02  0.59998252145E+02 -0.32207061864E+03  0.33004986920E+03  0.00000000000E+00 0. -1.
          1    1    1    2  502    0  0.27782812368E+02  0.84386638034E+02  0.26404166600E+04  0.26419108856E+04  0.00000000000E+00 0. -1.
         22    1    3    3    0    0  0.28298610056E+02 -0.85210349408E+02  0.10665117857E+00  0.89786559974E+02  0.00000000000E+00 0. -1.
         22    1    3    3    0    0 -0.96126927820E+02 -0.59174540771E+02  0.92687414776E-01  0.11288056130E+03  0.00000000000E+00 0. -1.
</event>
<event>
 7    1  0.6058736E-006  0.8360986E+02  0.7818608E-02  0.1331730E+00
          2   -1    0    0  502    0  0.00000000000E+00  0.00000000000E+00  0.27738650004E+03  0.27738650004E+03  0.00000000000E+00 0. -1.
          1   -1    0    0  501    0 -0.00000000000E+00 -0.00000000000E+00 -0.38754454899E+03  0.38754454899E+03  0.00000000000E+00 0. -1.
         25    2    1    2    0    0 -0.42018426021E+02  0.24232926366E+02  0.10101294597E+03  0.16787193016E+03  0.12499834733E+03 0.  0.
          2    1    1    2  501    0 -0.15285510133E+00 -0.85968943765E+02 -0.33858540421E+03  0.34932901196E+03  0.00000000000E+00 0. -1.
          1    1    1    2  502    0  0.42171281122E+02  0.61736017400E+02  0.12741440928E+03  0.14773010691E+03  0.00000000000E+00 0. -1.
         22    1    3    3    0    0 -0.13632354691E+02  0.73538540510E+02  0.72781558928E+02  0.10435953888E+03  0.00000000000E+00 0. -1.
         22    1    3    3    0    0 -0.28386071330E+02 -0.49305614144E+02  0.28231387042E+02  0.63512391279E+02  0.00000000000E+00 0. -1.
</event>
<event>
 7    1  0.6058736E-006  0.3548765E+02  0.7818608E-02  0.1547000E+00
          2   -1    0    0  502    0  0.00000000000E+00  0.00000000000E+00  0.27145133699E+02  0.27145133699E+02  0.00000000000E+00 0. -1.
          1   -1    0    0  501    0 -0.00000000000E+00 -0.00000000000E+00 -0.21131185501E+04  0.21131185501E+04  0.00000000000E+00 0. -1.
         25    2    1    2    0    0  0.45827262990E+01  0.27182699521E+01 -0.93756705162E+03  0.94587835322E+03  0.12500196968E+03 0.  0.
          2    1    1    2  501    0  0.49085665168E+01 -0.36913133675E+02 -0.11572204864E+04  0.11578194711E+04  0.00000000000E+00 0. -1.
          1    1    1    2  502    0 -0.94912928158E+01  0.34194863723E+02  0.88141215894E+01  0.36565859538E+02  0.00000000000E+00 0. -1.
         22    1    3    3    0    0  0.87675450797E+00  0.63543180292E+02 -0.52585526608E+03  0.52968128655E+03  0.00000000000E+00 0.  1.
         22    1    3    3    0    0  0.37059717910E+01 -0.60824910340E+02 -0.41171178554E+03  0.41619706667E+03  0.00000000000E+00 0.  1.
</event>
<event>
 7    1  0.6058736E-006  0.6777813E+02  0.7818608E-02  0.1374667E+00
          2   -1    0    0  502    0  0.00000000000E+00  0.00000000000E+00  0.15095848940E+04  0.15095848940E+04  0.00000000000E+00 0. -1.
          1   -1    0    0  501    0 -0.00000000000E+00 -0.00000000000E+00 -0.38264175004E+02  0.38264175004E+02  0.00000000000E+00 0. -1.
         25    2    1    2    0    0  0.25061024777E+02  0.10579349185E+02  0.46633855117E+03  0.48356690766E+03  0.12500132912E+03 0.  0.
          2    1    1    2  501    0 -0.58134962214E+02  0.44267961145E+02  0.18040881004E+02  0.75264863004E+02  0.00000000000E+00 0. -1.
          1    1    1    2  502    0  0.33073937437E+02 -0.54847310330E+02  0.98694128683E+03  0.98901729835E+03  0.00000000000E+00 0. -1.
         22    1    3    3    0    0  0.26084268693E+02 -0.16061470427E+02  0.45248725649E+03  0.45352296214E+03  0.00000000000E+00 0. -1.
         22    1    3    3    0    0 -0.10232439156E+01  0.26640819612E+02  0.13851294680E+02  0.30043945513E+02  0.00000000000E+00 0. -1.
</event>
<event>
 7    1  0.6058736E-006  0.3285332E+02  0.7818608E-02  0.1597221E+00
          2   -1    0    0  502    0  0.00000000000E+00  0.00000000000E+00  0.12101397876E+04  0.12101397876E+04  0.00000000000E+00 0. -1.
          1   -1    0    0  501    0 -0.00000000000E+00 -0.00000000000E+00 -0.15296324036E+03  0.15296324036E+03  0.00000000000E+00 0. -1.
         25    2    1    2    0    0 -0.29299263080E+02  0.17274402058E+02  0.79768563962E+03  0.80813624766E+03  0.12499985338E+03 0.  0.
          2    1    1    2  501    0  0.31256513259E+02  0.10194260861E+02 -0.14543538973E+03  0.14910514801E+03  0.00000000000E+00 0. -1.
          1    1    1    2  502    0 -0.19572501792E+01 -0.27468662919E+02  0.40492629732E+03  0.40586163225E+03  0.00000000000E+00 0. -1.
         22    1    3    3    0    0 -0.84882824125E+00  0.69306403052E+02  0.47764479339E+03  0.48264753876E+03  0.00000000000E+00 0.  1.
         22    1    3    3    0    0 -0.28450434839E+02 -0.52032000994E+02  0.32004084623E+03  0.32548870891E+03  0.00000000000E+00 0.  1.
</event>
<event>
 7    1  0.6058736E-006  0.7065534E+02  0.7818608E-02  0.1360787E+00
          2   -1    0    0  502    0  0.00000000000E+00  0.00000000000E+00  0.27627718545E+04  0.27627718545E+04  0.00000000000E+00 0. -1.
          1   -1    0    0  501    0 -0.00000000000E+00 -0.00000000000E+00 -0.24230027358E+02  0.24230027358E+02  0.00000000000E+00 0. -1.
         25    2    1    2    0    0 -0.86437138268E+01 -0.41833475262E+02  0.99577438487E+03  0.10044984221E+04  0.12500280394E+03 0.  0.
          2    1    1    2  501    0  0.72654612417E+02  0.16212741565E+02  0.53122669413E+02  0.91452521562E+02  0.00000000000E+00 0. -1.
          1    1    1    2  502    0 -0.64010898590E+02  0.25620733697E+02  0.16896447729E+04  0.16910509382E+04  0.00000000000E+00 0. -1.
         22    1    3    3    0    0 -0.59831544042E+02 -0.16320942327E+01  0.64220117941E+03  0.64498436588E+03  0.00000000000E+00 0.  1.
         22    1    3    3    0    0  0.51187830215E+02 -0.40201381029E+02  0.35357320546E+03  0.35951405622E+03  0.00000000000E+00 0.  1.
</event>
<event>
 7    1  0.6058736E-006  0.4028828E+02  0.7818608E-02  0.1556012E+00
          2   -1    0    0  502    0  0.00000000000E+00  0.00000000000E+00  0.50216528484E+03  0.50216528484E+03  0.00000000000E+00 0. -1.
          1   -1    0    0  501    0 -0.00000000000E+00 -0.00000000000E+00 -0.82814167163E+02  0.82814167163E+02  0.00000000000E+00 0. -1.
         25    2    1    2    0    0 -0.87727144755E+01 -0.57292190511E+02  0.49042450370E+02  0.14624790543E+03  0.12499572910E+03 0.  0.
          2    1    1    2  501    0 -0.11928276141E+02  0.36987837300E+02 -0.22464718994E+02  0.44889280227E+02  0.00000000000E+00 0. -1.
          1    1    1    2  502    0  0.20700990616E+02  0.20304353210E+02  0.39277338631E+03  0.39384226635E+03  0.00000000000E+00 0. -1.
         22    1    3    3    0    0  0.25192259392E+02 -0.13778789026E+02 -0.35265201000E+02  0.45476800260E+02  0.00000000000E+00 0.  1.
         22    1    3    3    0    0 -0.33964973867E+02 -0.43513401484E+02  0.84307651370E+02  0.10077110517E+03  0.00000000000E+00 0.  1.
</event>
<event>
 7    1  0.6058736E-006  0.9646197E+02  0.7818608E-02  0.1309125E+00
          2   -1    0    0  502    0  0.00000000000E+00  0.00000000000E+00  0.17996798649E+03  0.17996798649E+03  0.00000000000E+00 0. -1.
          1   -1    0    0  501    0 -0.00000000000E+00 -0.00000000000E+00 -0.91302189635E+03  0.91302189635E+03  0.00000000000E+00 0. -1.
         25    2    1    2    0    0 -0.97717924071E+02  0.13118111165E+03 -0.19629736525E+03  0.28445583896E+03  0.12500076790E+03 0.  0.
          2    1    1    2  501    0  0.32512999695E+02 -0.86057656496E+02 -0.65759640372E+03  0.66400003432E+03  0.00000000000E+00 0. -1.
          1    1    1    2  502    0  0.65204924376E+02 -0.45123455152E+02  0.12083985911E+03  0.14453400955E+03  0.00000000000E+00 0. -1.
         22    1    3    3    0    0 -0.78206841549E+02  0.12668318794E+03 -0.21196944547E+03  0.25902892886E+03  0.00000000000E+00 0. -1.
         22    1    3    3    0    0 -0.19511082522E+02  0.44979237051E+01  0.15672080221E+02  0.25426910101E+02  0.00000000000E+00 0. -1.
</event>
<event>
 7    1  0.6058736E-006  0.1181454E+03  0.7818608E-02  0.1399121E+00
          2   -1    0    0  502    0  0.00000000000E+00  0.00000000000E+00  0.27890731979E+04  0.27890731979E+04  0.00000000000E+00 0. -1.
          1   -1    0    0  501    0 -0.00000000000E+00 -0.00000000000E+00 -0.15963830391E+02  0.15963830391E+02  0.00000000000E+00 0. -1.
         25    2    1    2    0    0  0.80572184315E+02  0.49168402999E+02  0.52948302799E+03  0.55216600245E+03  0.12500243436E+03 0.  0.
          2    1    1    2  501    0  0.30113058362E+02  0.16962384940E+01  0.75157538085E+02  0.80983510914E+02  0.00000000000E+00 0. -1.
          1    1    1    2  502    0 -0.11068524268E+03 -0.50864641493E+02  0.21684688015E+04  0.21718875150E+04  0.00000000000E+00 0. -1.
         22    1    3    3    0    0  0.31341931904E+02  0.68541179904E+02  0.45264215210E+03  0.45887376030E+03  0.00000000000E+00 0. -1.
         22    1    3    3    0    0  0.49230252411E+02 -0.19372776905E+02  0.76840875894E+02  0.93292242151E+02  0.00000000000E+00 0. -1.
</event>
<event>
 7    1  0.6058736E-006  0.1298037E+03  0.7818608E-02  0.1405432E+00
          2   -1    0    0  502    0  0.00000000000E+00  0.00000000000E+00  0.18730120677E+04  0.18730120677E+04  0.00000000000E+00 0. -1.
          1   -1    0    0  501    0 -0.00000000000E+00 -0.00000000000E+00 -0.16384080734E+03  0.16384080734E+03  0.00000000000E+00 0. -1.
         25    2    1    2    0    0  0.11786009160E+02 -0.11003300847E+03  0.45820729007E+03  0.48767549232E+03  0.12500916833E+03 0.  0.
          2    1    1    2  501    0 -0.31476972747E+02  0.12719176924E+03 -0.12017263954E+03  0.17779203939E+03  0.00000000000E+00 0. -1.
          1    1    1    2  502    0  0.19690963588E+02 -0.17158760766E+02  0.13711366099E+04  0.13713853434E+04  0.00000000000E+00 0. -1.
         22    1    3    3    0    0  0.86168788913E+01 -0.13803031531E+03  0.39365174304E+03  0.41723891639E+03  0.00000000000E+00 0. -1.
         22    1    3    3    0    0  0.31691302684E+01  0.27997306838E+02  0.64555547027E+02  0.70436575931E+02  0.00000000000E+00 0. -1.
</event>
<event>
 7    1  0.6058736E-006  0.1903149E+03  0.7818608E-02  0.1238940E+00
          2   -1    0    0  502    0  0.00000000000E+00  0.00000000000E+00  0.15377225094E+04  0.15377225094E+04  0.00000000000E+00 0. -1.
          1   -1    0    0  501    0 -0.00000000000E+00 -0.00000000000E+00 -0.45785764061E+03  0.45785764061E+03  0.00000000000E+00 0. -1.
         25    2    1    2    0    0  0.32240913990E+02 -0.12703430214E+03 -0.37834188016E+02  0.18502262584E+03  0.12499902334E+03 0.  0.
          2    1    1    2  501    0  0.68807638553E+02 -0.38653013359E+02 -0.33539796794E+03  0.34455818589E+03  0.00000000000E+00 0. -1.
          1    1    1    2  502    0 -0.10104855254E+03  0.16568731550E+03  0.14530970247E+04  0.14659993383E+04  0.00000000000E+00 0. -1.
         22    1    3    3    0    0 -0.39564525163E+02 -0.63701853462E+01 -0.20758038422E+01  0.40127794286E+02  0.00000000000E+00 0. -1.
         22    1    3    3    0    0  0.71805439152E+02 -0.12066411679E+03 -0.35758384174E+02  0.14489483156E+03  0.00000000000E+00 0. -1.
</event>
<event>
 7    1  0.6058736E-006  0.2000867E+03  0.7818608E-02  0.1321216E+00
          2   -1    0    0  502    0  0.00000000000E+00  0.00000000000E+00  0.11928979858E+04  0.11928979858E+04  0.00000000000E+00 0. -1.
          1   -1    0    0  501    0 -0.00000000000E+00 -0.00000000000E+00 -0.11842956576E+03  0.11842956576E+03  0.00000000000E+00 0. -1.
         25    2    1    2    0    0  0.15326813340E+03  0.10226309720E+03  0.10195932617E+03  0.24488647663E+03  0.12499928190E+03 0.  0.
          2    1    1    2  501    0  0.30175299830E+02 -0.16279278171E+02 -0.28839888097E+02  0.44802932528E+02  0.00000000000E+00 0. -1.
          1    1    1    2  502    0 -0.18344343323E+03 -0.85983819026E+02  0.10013489820E+04  0.10216381424E+04  0.00000000000E+00 0. -1.
         22    1    3    3    0    0  0.69493904035E+02  0.11611873689E+03  0.79911084158E+02  0.15715834412E+03  0.00000000000E+00 0.  1.
         22    1    3    3    0    0  0.83774229369E+02 -0.13855639692E+02  0.22048242015E+02  0.87728132509E+02  0.00000000000E+00 0.  1.
</event>
<event>
 7    1  0.6058736E-006  0.1947340E+03  0.7818608E-02  0.1272995E+00
          2   -1    0    0  502    0  0.00000000000E+00  0.00000000000E+00  0.29625936566E+03  0.29625936566E+03  0.00000000000E+00 0. -1.
          1   -1    0    0  501    0 -0.00000000000E+00 -0.00000000000E+00 -0.12720387093E+04  0.12720387093E+04  0.00000000000E+00 0. -1.
         25    2    1    2    0    0 -0.18389382777E+03  0.18508056556E+02 -0.17734856689E+03  0.28502358264E+03  0.12500576161E+03 0.  0.
          2    1    1    2  501    0 -0.10437302352E+02 -0.54068808227E+02 -0.99971949019E+03  0.10012349536E+04  0.00000000000E+00 0. -1.
          1    1    1    2  502    0  0.19433113012E+03  0.35560751672E+02  0.20128871348E+03  0.28203953866E+03  0.00000000000E+00 0. -1.
         22    1    3    3    0    0  0.38517078961E+01  0.84129628137E+01 -0.65715052097E+02  0.66363255414E+02  0.00000000000E+00 0.  1.
         22    1    3    3    0    0 -0.18774553566E+03  0.10095093742E+02 -0.11163351480E+03  0.21866032723E+03  0.00000000000E+00 0.  1.
</event>
<event>
 7    1  0.6058736E-006  0.2010050E+03  0.7818608E-02  0.1204541E+00
          2   -1    0    0  502    0  0.00000000000E+00  0.00000000000E+00  0.68530235476E+03  0.68530235476E+03  0.00000000000E+00 0. -1.
          1   -1    0    0  501    0 -0.00000000000E+00 -0.00000000000E+00 -0.14432410993E+04  0.14432410993E+04  0.00000000000E+00 0. -1.
         25    2    1    2    0    0 -0.52132829285E+00  0.17366875243E+03  0.16847648799E+03  0.27234521963E+03  0.12500593704E+03 0.  0.
          2    1    1    2  501    0  0.10762670817E+03 -0.17186692929E+03 -0.13776134151E+04  0.13924584271E+04  0.00000000000E+00 0. -1.
          1    1    1    2  502    0 -0.10710537988E+03 -0.18018231370E+01  0.45119818258E+03  0.46373980735E+03  0.00000000000E+00 0. -1.
         22    1    3    3    0    0  0.56788551089E+02  0.85354578704E+02  0.11567254383E+03  0.15456545874E+03  0.00000000000E+00 0. -1.
         22    1    3    3    0    0 -0.57309879382E+02  0.88314173724E+02  0.52803944159E+02  0.11777976088E+03  0.00000000000E+00 0. -1.
</event>
<event>
 7    1  0.6058736E-006  0.7727388E+02  0.7818608E-02  0.1358833E+00
          2   -1    0    0  502    0  0.00000000000E+00  0.00000000000E+00  0.12654444165E+03  0.12654444165E+03  0.00000000000E+00 0. -1.
          1   -1    0    0  501    0 -0.00000000000E+00 -0.00000000000E+00 -0.18036613734E+04  0.18036613734E+04  0.00000000000E+00 0. -1.
         25    2    1    2    0    0  0.10784193431E+03  0.82983042530E+02 -0.14089888476E+04  0.14210477025E+04  0.12494371419E+03 0.  0.
          2    1    1    2  501    0 -0.37641618990E+02 -0.51866765595E+02 -0.37339831727E+03  0.37885796309E+03  0.00000000000E+00 0. -1.
          1    1    1    2  502    0 -0.70200315318E+02 -0.31116276935E+02  0.10527023319E+03  0.13030014949E+03  0.00000000000E+00 0. -1.
         22    1    3    3    0    0  0.55197047508E+02  0.10772434998E+03 -0.77494028946E+03  0.78433647235E+03  0.00000000000E+00 0. -1.
         22    1    3    3    0    0  0.52644886799E+02 -0.24741307453E+02 -0.63404855819E+03  0.63671123010E+03  0.00000000000E+00 0. -1.
</event>
<event>
 7    1  0.6058736E-006  0.7035688E+02  0.7818608E-02  0.1454876E+00
          2   -1    0    0  502    0  0.00000000000E+00  0.00000000000E+00  0.26927776728E+03  0.26927776728E+03  0.00000000000E+00 0. -1.
          1   -1    0    0  501    0 -0.00000000000E+00 -0.00000000000E+00 -0.13811736345E+04  0.13811736345E+04  0.00000000000E+00 0. -1.
         25    2    1    2    0    0 -0.89426978582E+02 -0.49061259216E+02 -0.35096459180E+03  0.38626877979E+03  0.12499293534E+03 0.  0.
          2    1    1    2  501    0  0.31721742874E+02  0.95328879230E+01 -0.10074187139E+04  0.10079630996E+04  0.00000000000E+00 0. -1.
          1    1    1    2  502    0  0.57705235708E+02  0.39528371293E+02  0.24648743847E+03  0.25621952246E+03  0.00000000000E+00 0. -1.
         22    1    3    3    0    0 -0.71668719051E+02  0.30062324943E+02 -0.20586468284E+03  0.22004639582E+03  0.00000000000E+00 0. -1.
         22    1    3    3    0    0 -0.17758259531E+02 -0.79123584159E+02 -0.14509990896E+03  0.16622238397E+03  0.00000000000E+00 0. -1.
</event>
<event>
 7    1  0.6058736E-006  0.9778805E+02  0.7818608E-02  0.1336564E+00
          2   -1    0    0  502    0  0.00000000000E+00  0.00000000000E+00  0.12125981780E+04  0.12125981780E+04  0.00000000000E+00 0. -1.
          1   -1    0    0  501    0 -0.00000000000E+00 -0.00000000000E+00 -0.32778528100E+03  0.32778528100E+03  0.00000000000E+00 0. -1.
         25    2    1    2    0    0 -0.31956288605E+01 -0.44642319207E+02  0.49655290965E+03  0.51399689299E+03  0.12499946084E+03 0.  0.
          2    1    1    2  501    0 -0.35756596137E+02  0.91948979171E+02 -0.31006295148E+03  0.32538005904E+03  0.00000000000E+00 0. -1.
          1    1    1    2  502    0  0.38952224997E+02 -0.47306659965E+02  0.69832293881E+03  0.70100650694E+03  0.00000000000E+00 0. -1.
         22    1    3    3    0    0  0.74600593462E+01 -0.23198055319E+02  0.91858573964E+01  0.26041932189E+02  0.00000000000E+00 0.  1.
         22    1    3    3    0    0 -0.10655688207E+02 -0.21444263888E+02  0.48736705226E+03  0.48795496080E+03  0.00000000000E+00 0.  1.
</event>
<event>
 7    1  0.6058736E-006  0.4689784E+02  0.7818608E-02  0.1520640E+00
          2   -1    0    0  502    0  0.00000000000E+00  0.00000000000E+00  0.22586643629E+04  0.22586643629E+04  0.00000000000E+00 0. -1.
          1   -1    0    0  501    0 -0.00000000000E+00 -0.00000000000E+00 -0.17726124077E+03  0.17726124077E+03  0.00000000000E+00 0. -1.
         25    2    1    2    0    0 -0.46558455973E+02 -0.58600942732E+02  0.78129256113E+03  0.79476064338E+03  0.12499861550E+03 0.  0.
          2    1    1    2  501    0  0.12015358452E+02  0.28984585655E+02 -0.16872863541E+03  0.17162117425E+03  0.00000000000E+00 0. -1.
          1    1    1    2  502    0  0.34543097521E+02  0.29616357077E+02  0.14688391964E+04  0.14695437861E+04  0.00000000000E+00 0. -1.
         22    1    3    3    0    0 -0.78836592655E+02 -0.53870012540E+02  0.70959118564E+03  0.71598661812E+03  0.00000000000E+00 0. -1.
         22    1    3    3    0    0  0.32278136682E+02 -0.47309301924E+01  0.71701375490E+02  0.78774025258E+02  0.00000000000E+00 0. -1.
</event>
<event>
 7    1  0.6058736E-006  0.8717489E+02  0.7818608E-02  0.1366312E+00
          2   -1    0    0  502    0  0.00000000000E+00  0.00000000000E+00  0.34647095753E+03  0.34647095753E+03  0.00000000000E+00 0. -1.
          1   -1    0    0  501    0 -0.00000000000E+00 -0.00000000000E+00 -0.15966911520E+04  0.15966911520E+04  0.00000000000E+00 0. -1.
         25    2    1    2    0    0  0.52145496046E+01  0.52586726061E+02  0.13585494517E+03  0.19202662082E+03  0.12500040677E+03 0.  0.
          2    1    1    2  501    0  0.31225099899E+00  0.53359153514E+02 -0.15526928390E+04  0.15536094584E+04  0.00000000000E+00 0. -1.
          1    1    1    2  502    0 -0.55268006036E+01 -0.10594587958E+03  0.16661769937E+03  0.19752603035E+03  0.00000000000E+00 0. -1.
         22    1    3    3    0    0  0.29856935671E+02 -0.32198978175E+02  0.25795572431E+02  0.50927618836E+02  0.00000000000E+00 0. -1.
         22    1    3    3    0    0 -0.24642386067E+02  0.84785704236E+02  0.11005937274E+03  0.14109900199E+03  0.00000000000E+00 0. -1.
</event>
<event>
 7    1  0.6058736E-006  0.7265088E+02  0.7818608E-02  0.1403343E+00
          2   -1    0    0  502    0  0.00000000000E+00  0.00000000000E+00  0.10574214628E+04  0.10574214628E+04  0.00000000000E+00 0. -1.
          1   -1    0    0  501    0 -0.00000000000E+00 -0.00000000000E+00 -0.50591764805E+03  0.50591764805E+03  0.00000000000E+00 0. -1.
         25    2    1    2    0    0 -0.22072384830E+02 -0.91759979482E+02  0.15041370590E+03  0.21715348232E+03  0.12499707179E+03 0.  0.
          2    1    1    2  501    0  0.41854649911E+02  0.22328022025E+02 -0.46985989783E+03  0.47224853189E+03  0.00000000000E+00 0. -1.
          1    1    1    2  502    0 -0.19782265081E+02  0.69431957457E+02  0.87095000668E+03  0.87393709663E+03  0.00000000000E+00 0. -1.
         22    1    3    3    0    0 -0.39592015237E+02 -0.88697405006E+02  0.16676727503E+03  0.19299243857E+03  0.00000000000E+00 0.  1.
         22    1    3    3    0    0  0.17519630407E+02 -0.30625744758E+01 -0.16353569126E+02  0.24161043752E+02  0.00000000000E+00 0.  1.
</event>
<event>
 7    1  0.6058736E-006  0.1159302E+03  0.7818608E-02  0.1430493E+00
          2   -1    0    0  502    0  0.00000000000E+00  0.00000000000E+00  0.91943779504E+03  0.91943779504E+03  0.00000000000E+00 0. -1.
          1   -1    0    0  501    0 -0.00000000000E+00 -0.00000000000E+00 -0.72692597380E+03  0.72692597380E+03  0.00000000000E+00 0. -1.
         25    2    1    2    0    0  0.20208270340E+02 -0.11670937511E+03  0.30723989222E+03  0.35220745298E+03  0.12499714450E+03 0.  0.
          2    1    1    2  501    0  0.22351313697E+02  0.90217210216E+01 -0.69854824111E+03  0.69896396032E+03  0.00000000000E+00 0. -1.
          1    1    1    2  502    0 -0.42559584038E+02  0.10768765409E+03  0.58382017013E+03  0.59519235553E+03  0.00000000000E+00 0. -1.
         22    1    3    3    0    0  0.52115042061E+02 -0.56856132005E+02  0.25553430002E+03  0.26692016755E+03  0.00000000000E+00 0.  1.
         22    1    3    3    0    0 -0.31906771721E+02 -0.59853243106E+02  0.51705592201E+02  0.85287285435E+02  0.00000000000E+00 0.  1.
</event>
<event>
 7    1  0.6058736E-006  0.8528335E+02  0.7818608E-02  0.1322036E+00
          2   -1    0    0  502    0  0.00000000000E+00  0.00000000000E+00  0.75017642987E+02  0.75017642987E+02  0.00000000000E+00 0. -1.
          1   -1    0    0  501    0 -0.00000000000E+00 -0.00000000000E+00 -0.39039247547E+04  0.39039247547E+04  0.00000000000E+00 0. -1.
         25    2    1    2    0    0  0.60377628430E+02  0.30442043949E+02 -0.15936815615E+03  0.21352754912E+03  0.12499451581E+03 0.  0.
          2    1    1    2  501    0  0.12010042958E+02 -0.84433456694E+02 -0.36740092770E+04  0.36749989684E+04  0.00000000000E+00 0. -1.
          1    1    1    2  502    0 -0.72387671388E+02  0.53991412745E+02  0.44703214735E+01  0.90415880205E+02  0.00000000000E+00 0. -1.
         22    1    3    3    0    0  0.32000872672E+02  0.92889315015E+01 -0.17256585942E+03  0.17575356594E+03  0.00000000000E+00 0.  1.
         22    1    3    3    0    0  0.28376755758E+02  0.21153112447E+02  0.13197703274E+02  0.37773983180E+02  0.00000000000E+00 0.  1.
</event>
<event>
 7    1  0.6058736E-006  0.8199840E+02  0.7818608E-02  0.1411334E+00
          2   -1    0    0  502    0  0.00000000000E+00  0.00000000000E+00  0.66546615907E+03  0.66546615907E+03  0.00000000000E+00 0. -1.
          1   -1    0    0  501    0 -0.00000000000E+00 -0.00000000000E+00 -0.46074645276E+03  0.46074645276E+03  0.00000000000E+00 0. -1.
         25    2    1    2    0    0 -0.40375514833E+02  0.15664997737E+02 -0.15222401524E+03  0.20167159538E+03  0.12499482876E+03 0.  0.
          2    1    1    2  501    0 -0.34436848588E+02  0.19307190786E+02 -0.27974586369E+03  0.28251798599E+03  0.00000000000E+00 0. -1.
          1    1    1    2  502    0  0.74812363422E+02 -0.34972188523E+02  0.63668958523E+03  0.64202303046E+03  0.00000000000E+00 0. -1.
         22    1    3    3    0    0 -0.24782462214E+02 -0.52586322833E+02 -0.44559721648E+02  0.73246573816E+02  0.00000000000E+00 0. -1.
         22    1    3    3    0    0 -0.15593052620E+02  0.68251320570E+02 -0.10766429359E+03  0.12842502156E+03  0.00000000000E+00 0. -1.
</event>
<event>
 7    1  0.6058736E-006  0.4618680E+02  0.7818608E-02  0.1493236E+00
          2   -1    0    0  502    0  0.00000000000E+00  0.00000000000E+00  0.76692326587E+03  0.76692326587E+03  0.00000000000E+00 0. -1.
          1   -1    0    0  501    0 -0.00000000000E+00 -0.00000000000E+00 -0.94285444358E+03  0.94285444358E+03  0.00000000000E+00 0. -1.
         25    2    1    2    0    0  0.33418321937E+02 -0.41240585559E+02  0.20058271950E+03  0.24223183156E+03  0.12500105087E+03 0.  0.
          2    1    1    2  501    0 -0.45943313982E+02  0.49485988673E+01 -0.92077428382E+03  0.92193305531E+03  0.00000000000E+00 0. -1.
          1    1    1    2  502    0  0.12524992044E+02  0.36291986692E+02  0.54426038661E+03  0.54561282258E+03  0.00000000000E+00 0. -1.
         22    1    3    3    0    0  0.42606700246E+02  0.36082365499E+02  0.10523131982E+03  0.11912555845E+03  0.00000000000E+00 0.  1.
         22    1    3    3    0    0 -0.91883783087E+01 -0.77322951059E+02  0.95351399688E+02  0.12310627311E+03  0.00000000000E+00 0.  1.
</event>
<event>
 7    1  0.6058736E-006  0.1413471E+03  0.7818608E-02  0.1344427E+00
          2   -1    0    0  502    0  0.00000000000E+00  0.00000000000E+00  0.13734914710E+04  0.13734914710E+04  0.00000000000E+00 0. -1.
          1   -1    0    0  501    0 -0.00000000000E+00 -0.00000000000E+00 -0.13000168238E+04  0.13000168238E+04  0.00000000000E+00 0. -1.
         25    2    1    2    0    0 -0.63140765660E+02 -0.10931377770E+03  0.24071424308E+03  0.29917125270E+03  0.12499533325E+03 0.  0.
          2    1    1    2  501    0  0.10136057130E+03  0.98928127367E+02 -0.12664840635E+04  0.12743793089E+04  0.00000000000E+00 0. -1.
          1    1    1    2  502    0 -0.38219805642E+02  0.10385650337E+02  0.10992444676E+04  0.10999577332E+04  0.00000000000E+00 0. -1.
         22    1    3    3    0    0 -0.44842228122E+01 -0.20540491284E+02  0.17027147755E+03  0.17156455375E+03  0.00000000000E+00 0.  1.
         22    1    3    3    0    0 -0.58656542848E+02 -0.88773286420E+02  0.70442765537E+02  0.12760669895E+03  0.00000000000E+00 0.  1.
</event>
<event>
 7    1  0.6058736E-006  0.8022022E+02  0.7818608E-02  0.1463088E+00
          2   -1    0    0  502    0  0.00000000000E+00  0.00000000000E+00  0.83005571501E+03  0.83005571501E+03  0.00000000000E+00 0. -1.
          1   -1    0    0  501    0 -0.00000000000E+00 -0.00000000000E+00 -0.20314384898E+02  0.20314384898E+02  0.00000000000E+00 0. -1.
         25    2    1    2    0    0 -0.60069155872E+02  0.23519141856E+02  0.39226933518E+03  0.41672640800E+03  0.12499685708E+03 0.  0.
          2    1    1    2  501    0 -0.26114981861E+02 -0.81794475446E+01  0.66305935723E+02  0.71731253661E+02  0.00000000000E+00 0. -1.
          1    1    1    2  502    0  0.86184137732E+02 -0.15339694312E+02  0.35116605921E+03  0.36191243824E+03  0.00000000000E+00 0. -1.
         22    1    3    3    0    0 -0.92188566536E+02  0.37926776502E+02  0.33486585095E+03  0.34938848051E+03  0.00000000000E+00 0.  1.
         22    1    3    3    0    0  0.32119410665E+02 -0.14407634646E+02  0.57403484225E+02  0.67337927491E+02  0.00000000000E+00 0.  1.
</event>
<event>
 7    1  0.6058736E-006  0.1498012E+03  0.7818608E-02  0.1233599E+00
          2   -1    0    0  502    0  0.00000000000E+00  0.00000000000E+00  0.54520908758E+03  0.54520908758E+03  0.00000000000E+00 0. -1.
          1   -1    0    0  501    0 -0.00000000000E+00 -0.00000000000E+00 -0.21690309947E+03  0.21690309947E+03  0.00000000000E+00 0. -1.
         25    2    1    2    0    0 -0.88997269621E+02  0.93071060144E+02  0.11819093278E+03  0.21488817797E+03  0.12500038481E+03 0.  0.
          2    1    1    2  501    0  0.16075001954E+03 -0.15200269268E+02 -0.11959084316E+03  0.20093179622E+03  0.00000000000E+00 0. -1.
          1    1    1    2  502    0 -0.71752749915E+02 -0.77870790876E+02  0.32970589848E+03  0.34629221286E+03  0.00000000000E+00 0. -1.
         22    1    3    3    0    0 -0.69204555276E+02  0.89386709826E+02  0.14341674705E+03  0.18261330099E+03  0.00000000000E+00 0.  1.
         22    1    3    3    0    0 -0.19792714345E+02  0.36843503179E+01 -0.25225814270E+02  0.32274876979E+02  0.00000000000E+00 0.  1.
</event>
<event>
 7    1  0.6058736E-006  0.1076869E+03  0.7818608E-02  0.1322165E+00
          2   -1    0    0  502    0  0.00000000000E+00  0.00000000000E+00  0.35624667976E+04  0.35624667976E+04  0.00000000000E+00 0. -1.
          1   -1    0    0  501    0 -0.00000000000E+00 -0.00000000000E+00 -0.11003593471E+03  0.11003593471E+03  0.00000000000E+00 0. -1.
         25    2    1    2    0    0  0.11998161756E+02  0.83760104005E+02  0.21212272078E+03  0.26034713515E+03  0.12499948480E+03 0.  0.
          2    1    1    2  501    0 -0.75157999968E+02 -0.84847645841E+02 -0.48106407409E+02  0.12313437537E+03  0.00000000000E+00 0. -1.
          1    1    1    2  502    0  0.63159838212E+02  0.10875418361E+01  0.32884145495E+04  0.32890212218E+04  0.00000000000E+00 0. -1.
         22    1    3    3    0    0 -0.21628435640E+02  0.10755913458E+03  0.15162069102E+03  0.18715125061E+03  0.00000000000E+00 0. -1.
         22    1    3    3    0    0  0.33626597396E+02 -0.23799030572E+02  0.60502029758E+02  0.73195884539E+02  0.00000000000E+00 0. -1.
</event>
<event>
 7    1  0.6058736E-006  0.1026444E+03  0.7818608E-02  0.1371844E+00
          2   -1    0    0  502    0  0.00000000000E+00  0.00000000000E+00  0.58229173654E+03  0.58229173654E+03  0.00000000000E+00 0. -1.
          1   -1    0    0  501    0 -0.00000000000E+00 -0.00000000000E+00 -0.21579033191E+03  0.21579033191E+03  0.00000000000E+00 0. -1.
         25    2    1    2    0    0 -0.76786992884E+02 -0.11918682216E+03  0.21203631937E+03  0.28405090959E+03  0.12499511051E+03 0.  0.
          2    1    1    2  501    0  0.63193604566E+02  0.78089235913E+02 -0.16417173867E+03  0.19246745231E+03  0.00000000000E+00 0. -1.
          1    1    1    2  502    0  0.13593388319E+02  0.41097586250E+02  0.31863682393E+03  0.32156370655E+03  0.00000000000E+00 0. -1.
         22    1    3    3    0    0 -0.47771286331E+02 -0.44933389367E+02  0.19049841286E+03  0.20147146344E+03  0.00000000000E+00 0.  1.
         22    1    3    3    0    0 -0.29015706554E+02 -0.74253432796E+02  0.21537906506E+02  0.82579446144E+02  0.00000000000E+00 0.  1.
</event>
<event>
 7    1  0.6058736E-006  0.1473382E+03  0.7818608E-02  0.1273782E+00
          2   -1    0    0  502    0  0.00000000000E+00  0.00000000000E+00  0.75104347127E+03  0.75104347127E+03  0.00000000000E+00 0. -1.
          1   -1    0    0  501    0 -0.00000000000E+00 -0.00000000000E+00 -0.11819041351E+04  0.11819041351E+04  0.00000000000E+00 0. -1.
         25    2    1    2    0    0  0.67864039026E+02 -0.54301494783E+02 -0.40660951643E+02  0.15758526528E+03  0.12500249084E+03 0.  0.
          2    1    1    2  501    0  0.71858342692E+02 -0.73386587273E+01 -0.10731336868E+04  0.10755618937E+04  0.00000000000E+00 0. -1.
          1    1    1    2  502    0 -0.13972238172E+03  0.61640153510E+02  0.68293397464E+03  0.69980044741E+03  0.00000000000E+00 0. -1.
         22    1    3    3    0    0  0.29036460923E+02  0.43205850738E+01 -0.74115699339E+02  0.79717754652E+02  0.00000000000E+00 0.  1.
         22    1    3    3    0    0  0.38827578104E+02 -0.58622079857E+02  0.33454747696E+02  0.77867510629E+02  0.00000000000E+00 0.  1.
</event>
<event>
 7    1  0.6058736E-006  0.9146408E+02  0.7818608E-02  0.1387870E+00
          2   -1    0    0  502    0  0.00000000000E+00  0.00000000000E+00  0.20438772652E+04  0.20438772652E+04  0.00000000000E+00 0. -1.
          1   -1    0    0  501    0 -0.00000000000E+00 -0.00000000000E+00 -0.21532802962E+03  0.21532802962E+03  0.00000000000E+00 0. -1.
         25    2    1    2    0    0 -0.91125627807E+02  0.90909696072E+02  0.12557273430E+03  0.21900167810E+03  0.12499908211E+03 0.  0.
          2    1    1    2  501    0  0.53281905419E+02 -0.71293832640E+02 -0.15660683109E+03  0.18013181718E+03  0.00000000000E+00 0. -1.
          1    1    1    2  502    0  0.37843722389E+02 -0.19615863432E+02  0.18595833323E+04  0.18600717995E+04  0.00000000000E+00 0. -1.
         22    1    3    3    0    0 -0.51533981325E+02 -0.19943783934E+02  0.69004537190E+02  0.88403234679E+02  0.00000000000E+00 0. -1.
         22    1    3    3    0    0 -0.39591646482E+02  0.11085348001E+03  0.56568197108E+02  0.13059844342E+03  0.00000000000E+00 0. -1.
</event>
<event>
 7    1  0.6058736E-006  0.7359732E+02  0.7818608E-02  0.1477700E+00
          2   -1    0    0  502    0  0.00000000000E+00  0.00000000000E+00  0.54497942921E+03  0.54497942921E+03  0.00000000000E+00 0. -1.
          1   -1    0    0  501    0 -0.00000000000E+00 -0.00000000000E+00 -0.57999305075E+03  0.57999305075E+03  0.00000000000E+00 0. -1.
         25    2    1    2    0    0  0.59685083195E+02 -0.45017309628E+02  0.44935777046E+03  0.47237616927E+03  0.12501188782E+03 0.  0.
          2    1    1    2  501    0 -0.70700735872E+02  0.20513535486E+02 -0.56388319948E+03  0.56866832323E+03  0.00000000000E+00 0. -1.
          1    1    1    2  502    0  0.11015652677E+02  0.24503774142E+02  0.79511807472E+02  0.83927987457E+02  0.00000000000E+00 0. -1.
         22    1    3    3    0    0 -0.73120045696E+01  0.14059813401E+02  0.17512173678E+01  0.15943980869E+02  0.00000000000E+00 0.  1.
         22    1    3    3    0    0  0.66997087765E+02 -0.59077123028E+02  0.44760655309E+03  0.45643218840E+03  0.00000000000E+00 0.  1.
</event>
<event>
 7    1  0.6058736E-006  0.4447618E+02  0.7818608E-02  0.1591855E+00
          2   -1    0    0  502    0  0.00000000000E+00  0.00000000000E+00  0.62730608363E+02  0.62730608363E+02  0.00000000000E+00 0. -1.
          1   -1    0    0  501    0 -0.00000000000E+00 -0.00000000000E+00 -0.15926787491E+04  0.15926787491E+04  0.00000000000E+00 0. -1.
         25    2    1    2    0    0  0.11912623805E+02  0.25337128859E+02 -0.10953763206E+03  0.16854429629E+03  0.12499922508E+03 0.  0.
          2    1    1    2  501    0 -0.34200466419E+01 -0.44558528152E+02 -0.14499362623E+04  0.14506248047E+04  0.00000000000E+00 0. -1.
          1    1    1    2  502    0 -0.84925771636E+01  0.19221399293E+02  0.29525753683E+02  0.36240256459E+02  0.00000000000E+00 0. -1.
         22    1    3    3    0    0 -0.98922515207E+00 -0.11419815105E+02 -0.12580685603E+03  0.12632796907E+03  0.00000000000E+00 0. -1.
         22    1    3    3    0    0  0.12901848958E+02  0.36756943964E+02  0.16269223968E+02  0.42216327228E+02  0.00000000000E+00 0. -1.
</event>
<event>
 7    1  0.6058736E-006  0.8134053E+02  0.7818608E-02  0.1395215E+00
          2   -1    0    0  502    0  0.00000000000E+00  0.00000000000E+00  0.25476830733E+03  0.25476830733E+03  0.00000000000E+00 0. -1.
          1   -1    0    0  501    0 -0.00000000000E+00 -0.00000000000E+00 -0.39965906788E+03  0.39965906788E+03  0.00000000000E+00 0. -1.
         25    2    1    2    0    0  0.10851788902E+03 -0.57369340581E+02  0.92180438406E+02  0.19796381292E+03  0.12500025810E+03 0.  0.
          2    1    1    2  501    0 -0.75541367440E+02  0.26471674273E+02 -0.33722076564E+03  0.34659066997E+03  0.00000000000E+00 0. -1.
          1    1    1    2  502    0 -0.32976521580E+02  0.30897666308E+02  0.10014956669E+03  0.10987289232E+03  0.00000000000E+00 0. -1.
         22    1    3    3    0    0 -0.23545541237E+02  0.97439583588E+00  0.36029697588E+02  0.43052073906E+02  0.00000000000E+00 0.  1.
         22    1    3    3    0    0  0.13206343026E+03 -0.58343736417E+02  0.56150740819E+02  0.15491173902E+03  0.00000000000E+00 0.  1.
</event>
<event>
 7    1  0.6058736E-006  0.4393937E+02  0.7818608E-02  0.1523895E+00
          2   -1    0    0  502    0  0.00000000000E+00  0.00000000000E+00  0.22456086272E+04  0.22456086272E+04  0.00000000000E+00 0. -1.
          1   -1    0    0  501    0 -0.00000000000E+00 -0.00000000000E+00 -0.16847835205E+03  0.16847835205E+03  0.00000000000E+00 0. -1.
         25    2    1    2    0    0 -0.59754812595E+02  0.38141435615E+02  0.87158928327E+03  0.88335613814E+03  0.12499912538E+03 0.  0.
          2    1    1    2  501    0  0.32288338395E+02 -0.55981134428E+01 -0.16060861841E+03  0.16391767439E+03  0.00000000000E+00 0. -1.
          1    1    1    2  502    0  0.27466474199E+02 -0.32543322172E+02  0.13661496102E+04  0.13668131667E+04  0.00000000000E+00 0. -1.
         22    1    3    3    0    0  0.37966045430E+02  0.83299699077E+01  0.17137624912E+03  0.17572884728E+03  0.00000000000E+00 0.  1.
         22    1    3    3    0    0 -0.97720858024E+02  0.29811465707E+02  0.70021303415E+03  0.70762729086E+03  0.00000000000E+00 0.  1.
</event>
<event>
 7    1  0.6058736E-006  0.1055101E+03  0.7818608E-02  0.1300974E+00
          2   -1    0    0  502    0  0.00000000000E+00  0.00000000000E+00  0.91389120781E+02  0.91389120781E+02  0.00000000000E+00 0. -1.
          1   -1    0    0  501    0 -0.00000000000E+00 -0.00000000000E+00 -0.40733611054E+03  0.40733611054E+03  0.00000000000E+00 0. -1.
         25    2    1    2    0    0 -0.86737771458E+01  0.80675768045E+02 -0.17120167464E+03  0.22697650810E+03  0.12499803147E+03 0.  0.
          2    1    1    2  501    0  0.80362068478E+02 -0.11168139698E+03 -0.13548025274E+03  0.19309504231E+03  0.00000000000E+00 0. -1.
          1    1    1    2  502    0 -0.71688291333E+02  0.31005628935E+02 -0.92650623835E+01  0.78653680911E+02  0.00000000000E+00 0. -1.
         22    1    3    3    0    0 -0.41367905970E+02 -0.10458925589E+02 -0.19276243203E+02  0.46821643723E+02  0.00000000000E+00 0.  1.
         22    1    3    3    0    0  0.32694128825E+02  0.91134693634E+02 -0.15192543144E+03  0.18015486438E+03  0.00000000000E+00 0.  1.
</event>
<event>
 7    1  0.6058736E-006  0.1215506E+03  0.7818608E-02  0.1276624E+00
          2   -1    0    0  502    0  0.00000000000E+00  0.00000000000E+00  0.38357769459E+03  0.38357769459E+03  0.00000000000E+00 0. -1.
          1   -1    0    0  501    0 -0.00000000000E+00 -0.00000000000E+00 -0.19141441496E+03  0.19141441496E+03  0.00000000000E+00 0. -1.
         25    2    1    2    0    0  0.15009866608E+03  0.37939192938E+02  0.35026171280E+02  0.20204197985E+03  0.12500054812E+03 0.  0.
          2    1    1    2  501    0 -0.79711277909E+02 -0.85951591219E+02 -0.65699457710E+02  0.13437999331E+03  0.00000000000E+00 0. -1.
          1    1    1    2  502    0 -0.70387388170E+02  0.48012398281E+02  0.22283656606E+03  0.23857013638E+03  0.00000000000E+00 0. -1.
         22    1    3    3    0    0  0.14884070026E+03 -0.11106490614E+02  0.19164568533E+02  0.15047986203E+03  0.00000000000E+00 0. -1.
         22    1    3    3    0    0  0.12579658154E+01  0.49045683552E+02  0.15861602747E+02  0.51562117826E+02  0.00000000000E+00 0. -1.
</event>
<event>
 7    1  0.6058736E-006  0.8266328E+02  0.7818608E-02  0.1460137E+00
          2   -1    0    0  502    0  0.00000000000E+00  0.00000000000E+00  0.37207483776E+03  0.37207483776E+03  0.00000000000E+00 0. -1.
          1   -1    0    0  501    0 -0.00000000000E+00 -0.00000000000E+00 -0.10629776372E+03  0.10629776372E+03  0.00000000000E+00 0. -1.
         25    2    1    2    0    0  0.55944207150E+02 -0.43812554018E+02  0.24148699006E+03  0.28105197210E+03  0.12499980180E+03 0.  0.
          2    1    1    2  501    0 -0.78670182089E+02  0.28992520310E+02 -0.63665778607E+02  0.10527533020E+03  0.00000000000E+00 0. -1.
          1    1    1    2  502    0  0.22725974939E+02  0.14820033709E+02  0.87955862592E+02  0.92045299176E+02  0.00000000000E+00 0. -1.
         22    1    3    3    0    0 -0.10536664541E+02 -0.37564564537E+02  0.19697597834E+03  0.20080252452E+03  0.00000000000E+00 0.  1.
         22    1    3    3    0    0  0.66480871691E+02 -0.62479894813E+01  0.44511011723E+02  0.80249447586E+02  0.00000000000E+00 0.  1.
</event>
<event>
 7    1  0.6058736E-006  0.1329427E+03  0.7818608E-02  0.1307852E+00
          2   -1    0    0  502    0  0.00000000000E+00  0.00000000000E+00  0.55816469965E+03  0.55816469965E+03  0.00000000000E+00 0. -1.
          1   -1    0    0  501    0 -0.00000000000E+00 -0.00000000000E+00 -0.74765206582E+03  0.74765206582E+03  0.00000000000E+00 0. -1.
         25    2    1    2    0    0  0.73350671326E+02 -0.45942927192E+02 -0.23583547379E+03  0.28059597052E+03  0.12499861770E+03 0.  0.
          2    1    1    2  501    0  0.56928442028E+02  0.12130269437E+02 -0.47919439504E+03  0.48271654124E+03  0.00000000000E+00 0. -1.
          1    1    1    2  502    0 -0.13027911335E+03  0.33812657755E+02  0.52554250266E+03  0.54250425372E+03  0.00000000000E+00 0. -1.
         22    1    3    3    0    0  0.29491833383E+02  0.42629023499E+02 -0.63947106992E+02  0.82317886108E+02  0.00000000000E+00 0.  1.
         22    1    3    3    0    0  0.43858837943E+02 -0.88571950690E+02 -0.17188836680E+03  0.19827808441E+03  0.00000000000E+00 0.  1.
</event>
<event>
 7    1  0.6058736E-006  0.1121838E+03  0.7818608E-02  0.1347423E+00
          2   -1    0    0  502    0  0.00000000000E+00  0.00000000000E+00  0.10486716102E+03  0.10486716102E+03  0.00000000000E+00 0. -1.
          1   -1    0    0  501    0 -0.00000000000E+00 -0.00000000000E+00 -0.11384674037E+04  0.11384674037E+04  0.00000000000E+00 0. -1.
         25    2    1    2    0    0  0.63446323696E+02  0.22460664068E+02 -0.87027039723E+03  0.88177442105E+03  0.12500259154E+03 0.  0.
          2    1    1    2  501    0  0.48601411867E+02 -0.17947077453E+01 -0.22624001953E+03  0.23140843685E+03  0.00000000000E+00 0. -1.
          1    1    1    2  502    0 -0.11204773556E+03 -0.20665956323E+02  0.62910174052E+02  0.13015170685E+03  0.00000000000E+00 0. -1.
         22    1    3    3    0    0 -0.20169776589E+01  0.63225051683E+02 -0.32753964691E+03  0.33359210971E+03  0.00000000000E+00 0.  1.
         22    1    3    3    0    0  0.65463301355E+02 -0.40764387615E+02 -0.54273075032E+03  0.54818231134E+03  0.00000000000E+00 0.  1.
</event>
<event>
 7    1  0.6058736E-006  0.6711445E+02  0.7818608E-02  0.1420138E+00
          2   -1    0    0  502    0  0.00000000000E+00  0.00000000000E+00  0.97570579703E+03  0.97570579703E+03  0.00000000000E+00 0. -1.
          1   -1    0    0  501    0 -0.00000000000E+00 -0.00000000000E+00 -0.24655475288E+03  0.24655475288E+03  0.00000000000E+00 0. -1.
         25    2    1    2    0    0 -0.88402417124E+02 -0.29406655784E+02  0.42952561873E+03  0.45694243358E+03  0.12499756678E+03 0.  0.
          2    1    1    2  501    0  0.66215406423E+02 -0.98108024661E+01 -0.22705360593E+03  0.23671517032E+03  0.00000000000E+00 0. -1.
          1    1    1    2  502    0  0.22187010701E+02  0.39217458250E+02  0.52667903135E+03  0.52860294602E+03  0.00000000000E+00 0. -1.
         22    1    3    3    0    0 -0.12015534466E+03 -0.20385570125E+02  0.31498563028E+03  0.33774076687E+03  0.00000000000E+00 0.  1.
         22    1    3    3    0    0  0.31752927534E+02 -0.90210856585E+01  0.11453998845E+03  0.11920166671E+03  0.00000000000E+00 0.  1.
</event>
<event>
 7    1  0.6058736E-006  0.4164189E+02  0.7818608E-02  0.1563672E+00
          2   -1    0    0  502    0  0.00000000000E+00  0.00000000000E+00  0.35048541511E+04  0.35048541511E+04  0.00000000000E+00 0. -1.
          1   -1    0    0  501    0 -0.00000000000E+00 -0.00000000000E+00 -0.36306395499E+03  0.36306395499E+03  0.00000000000E+00 0. -1.
         25    2    1    2    0    0 -0.82387330291E+01 -0.40988479696E+02  0.56046701004E+03  0.57575693303E+03  0.12499937758E+03 0.  0.
          2    1    1    2  501    0 -0.23139538402E+02  0.13369391418E+02 -0.35476765359E+03  0.35577277425E+03  0.00000000000E+00 0. -1.
          1    1    1    2  502    0  0.31378271431E+02  0.27619088278E+02  0.29360908397E+04  0.29363883988E+04  0.00000000000E+00 0. -1.
         22    1    3    3    0    0  0.31381188646E+02  0.33715054761E+02  0.23597358542E+03  0.24042673923E+03  0.00000000000E+00 0.  1.
         22    1    3    3    0    0 -0.39619921676E+02 -0.74703534457E+02  0.32449342462E+03  0.33533019380E+03  0.00000000000E+00 0.  1.
</event>
<event>
 7    1  0.6058736E-006  0.1082206E+03  0.7818608E-02  0.1392555E+00
          2   -1    0    0  502    0  0.00000000000E+00  0.00000000000E+00  0.20012198484E+04  0.20012198484E+04  0.00000000000E+00 0. -1.
          1   -1    0    0  501    0 -0.00000000000E+00 -0.00000000000E+00 -0.12488170430E+04  0.12488170430E+04  0.00000000000E+00 0. -1.
         25    2    1    2    0    0  0.20427578983E+01  0.14226939675E+03  0.13890388375E+03  0.23487064119E+03  0.12500070023E+03 0.  0.
          2    1    1    2  501    0  0.16203132356E+01 -0.10776830174E+03 -0.11982487909E+04  0.12030863631E+04  0.00000000000E+00 0. -1.
          1    1    1    2  502    0 -0.36630711339E+01 -0.34501095003E+02  0.18117477125E+04  0.18120798871E+04  0.00000000000E+00 0. -1.
         22    1    3    3    0    0  0.41409413564E+02  0.44505940158E+02  0.35420397914E+00  0.60791806204E+02  0.00000000000E+00 0.  1.
         22    1    3    3    0    0 -0.39366655666E+02  0.97763456589E+02  0.13854967978E+03  0.17407883498E+03  0.00000000000E+00 0.  1.
</event>
<event>
 7    1  0.6058736E-006  0.2031857E+03  0.7818608E-02  0.1186260E+00
          2   -1    0    0  502    0  0.00000000000E+00  0.00000000000E+00  0.47959375758E+03  0.47959375758E+03  0.00000000000E+00 0. -1.
          1   -1    0    0  501    0 -0.00000000000E+00 -0.00000000000E+00 -0.45807074513E+03  0.45807074513E+03  0.00000000000E+00 0. -1.
         25    2    1    2    0    0  0.19056506486E+03  0.10223962854E+03 -0.17473264241E+03  0.30482896952E+03  0.12498487407E+03 0.  0.
          2    1    1    2  501    0 -0.20896186786E+03  0.25891737232E+02 -0.15305612336E+03  0.26031062440E+03  0.00000000000E+00 0. -1.
          1    1    1    2  502    0  0.18396803002E+02 -0.12813136577E+03  0.34931177823E+03  0.37252490878E+03  0.00000000000E+00 0. -1.
         22    1    3    3    0    0  0.15352818871E+03  0.92693195862E+02 -0.19211771809E+03  0.26281581172E+03  0.00000000000E+00 0.  1.
         22    1    3    3    0    0  0.37036876149E+02  0.95464326769E+01  0.17385075678E+02  0.42013157797E+02  0.00000000000E+00 0.  1.
</event>
<event>
 7    1  0.6058736E-006  0.8185343E+02  0.7818608E-02  0.1450488E+00
          2   -1    0    0  502    0  0.00000000000E+00  0.00000000000E+00  0.79156383064E+03  0.79156383064E+03  0.00000000000E+00 0. -1.
          1   -1    0    0  501    0 -0.00000000000E+00 -0.00000000000E+00 -0.15392102234E+04  0.15392102234E+04  0.00000000000E+00 0. -1.
         25    2    1    2    0    0  0.54247721737E+02  0.32102825265E+02  0.63344630158E+02  0.15365762970E+03  0.12499887317E+03 0.  0.
          2    1    1    2  501    0  0.26512732588E+02 -0.12712156089E+02 -0.14913835327E+04  0.14916733441E+04  0.00000000000E+00 0. -1.
          1    1    1    2  502    0 -0.80760454325E+02 -0.19390669176E+02  0.68039250972E+03  0.68544308029E+03  0.00000000000E+00 0. -1.
         22    1    3    3    0    0  0.13646242636E+02  0.76859309663E+02  0.46758248191E+02  0.90993995372E+02  0.00000000000E+00 0.  1.
         22    1    3    3    0    0  0.40601479101E+02 -0.44756484398E+02  0.16586381968E+02  0.62663634332E+02  0.00000000000E+00 0.  1.
</event>
<event>
 7    1  0.6058736E-006  0.3751789E+02  0.7818608E-02  0.1542175E+00
          2   -1    0    0  502    0  0.00000000000E+00  0.00000000000E+00  0.81160080575E+03  0.81160080575E+03  0.00000000000E+00 0. -1.
          1   -1    0    0  501    0 -0.00000000000E+00 -0.00000000000E+00 -0.36303453494E+02  0.36303453494E+02  0.00000000000E+00 0. -1.
         25    2    1    2    0    0 -0.20095764195E+02  0.41951084134E+02  0.20147366446E+03  0.24161765617E+03  0.12499488432E+03 0.  0.
          2    1    1    2  501    0  0.33369868280E+02 -0.66983427285E+01  0.29408341317E+01  0.34162324419E+02  0.00000000000E+00 0. -1.
          1    1    1    2  502    0 -0.13274104085E+02 -0.35252741405E+02  0.57088285367E+03  0.57212427865E+03  0.00000000000E+00 0. -1.
         22    1    3    3    0    0 -0.55677479313E+02  0.40886991716E+02  0.48118205965E+02  0.84184853386E+02  0.00000000000E+00 0.  1.
         22    1    3    3    0    0  0.35581715119E+02  0.10640924181E+01  0.15335545849E+03  0.15743280279E+03  0.00000000000E+00 0.  1.
</event>
<event>
 7    1  0.6058736E-006  0.6296242E+02  0.7818608E-02  0.1516613E+00
          2   -1    0    0  502    0  0.00000000000E+00  0.00000000000E+00  0.27693991167E+03  0.27693991167E+03  0.00000000000E+00 0. -1.
          1   -1    0    0  501    0 -0.00000000000E+00 -0.00000000000E+00 -0.78128617557E+03  0.78128617557E+03  0.00000000000E+00 0. -1.
         25    2    1    2    0    0 -0.74945452477E+02  0.65517458250E+01 -0.30955755708E+03  0.34221490832E+03  0.12500166444E+03 0.  0.
          2    1    1    2  501    0  0.16748743175E+02  0.17203290007E+02 -0.45128589055E+03  0.45192414031E+03  0.00000000000E+00 0. -1.
          1    1    1    2  502    0  0.58196709302E+02 -0.23755035832E+02  0.25649718373E+03  0.26408703861E+03  0.00000000000E+00 0. -1.
         22    1    3    3    0    0 -0.21697233036E+02 -0.31953859985E+02 -0.25174738333E+03  0.25469307824E+03  0.00000000000E+00 0. -1.
         22    1    3    3    0    0 -0.53248219441E+02  0.38505605810E+02 -0.57810173750E+02  0.87521830085E+02  0.00000000000E+00 0. -1.
</event>
<event>
 7    1  0.6058736E-006  0.8699455E+02  0.7818608E-02  0.1379864E+00
          2   -1    0    0  502    0  0.00000000000E+00  0.00000000000E+00  0.16700409617E+04  0.16700409617E+04  0.00000000000E+00 0. -1.
          1   -1    0    0  501    0 -0.00000000000E+00 -0.00000000000E+00 -0.42675681487E+03  0.42675681487E+03  0.00000000000E+00 0. -1.
         25    2    1    2    0    0  0.54083196203E+02  0.34360803287E+02 -0.83473384250E+02  0.16337167871E+03  0.12496736619E+03 0.  0.
          2    1    1    2  501    0 -0.92142720363E+02 -0.54068065493E+01 -0.29595231942E+03  0.31001175759E+03  0.00000000000E+00 0. -1.
          1    1    1    2  502    0  0.38059524160E+02 -0.28953996738E+02  0.16227098505E+04  0.16234143403E+04  0.00000000000E+00 0. -1.
         22    1    3    3    0    0  0.87165583184E+01  0.71365244992E+02 -0.15291416504E+02  0.73503768614E+02  0.00000000000E+00 0. -1.
         22    1    3    3    0    0  0.45366637885E+02 -0.37004441706E+02 -0.68181967746E+02  0.89867910094E+02  0.00000000000E+00 0. -1.
</event>
<event>
 7    1  0.6058736E-006  0.1205524E+03  0.7818608E-02  0.1376558E+00
          2   -1    0    0  502    0  0.00000000000E+00  0.00000000000E+00  0.86200962970E+03  0.86200962970E+03  0.00000000000E+00 0. -1.
          1   -1    0    0  501    0 -0.00000000000E+00 -0.00000000000E+00 -0.17142812663E+04  0.17142812663E+04  0.00000000000E+00 0. -1.
         25    2    1    2    0    0 -0.17591073834E+02 -0.84125668185E+02 -0.21278287132E+03  0.26132265785E+03  0.12500562889E+03 0.  0.
          2    1    1    2  501    0 -0.27542465946E+01 -0.35347966894E+02 -0.14726308238E+04  0.14730575711E+04  0.00000000000E+00 0. -1.
          1    1    1    2  502    0  0.20345320428E+02  0.11947363508E+03  0.83314205853E+03  0.84191066701E+03  0.00000000000E+00 0. -1.
         22    1    3    3    0    0  0.34366949231E+02 -0.35918975142E+02 -0.17309195828E+03  0.18008910572E+03  0.00000000000E+00 0.  1.
         22    1    3    3    0    0 -0.51958023064E+02 -0.48206693043E+02 -0.39690913034E+02  0.81233552134E+02  0.00000000000E+00 0.  1.
</event>
<event>
 7    1  0.6623225E-006  0.1486767E+03  0.7818608E-02  0.1207379E+00
          2   -1    0    0  502    0  0.00000000000E+00  0.00000000000E+00  0.28670629003E+04  0.28670629003E+04  0.00000000000E+00 0. -1.
          1   -1    0    0  501    0 -0.00000000000E+00 -0.00000000000E+00 -0.12572745528E+04  0.12572745528E+04  0.00000000000E+00 0. -1.
         25    2    1    2    0    0  0.57358064947E+02  0.12304939050E+03 -0.85527306811E+02  0.20339602039E+03  0.12499568305E+03 0.  0.
          2    1    1    2  501    0 -0.15384003040E+03 -0.20955235408E+02 -0.11056286978E+04  0.11164769116E+04  0.00000000000E+00 0. -1.
          1    1    1    2  502    0  0.96481965455E+02 -0.10209415510E+03  0.28009443521E+04  0.28044645211E+04  0.00000000000E+00 0. -1.
         22    1    3    3    0    0 -0.20874906317E+02  0.19961443127E+00  0.15620759801E+02  0.26073160461E+02  0.00000000000E+00 0. -1.
         22    1    3    3    0    0  0.78232971264E+02  0.12284977607E+03 -0.10114806661E+03  0.17732285993E+03  0.00000000000E+00 0. -1.
</event>
<event>
 7    1  0.6058736E-006  0.7507086E+02  0.7818608E-02  0.1481690E+00
          2   -1    0    0  502    0  0.00000000000E+00  0.00000000000E+00  0.40643755400E+03  0.40643755400E+03  0.00000000000E+00 0. -1.
          1   -1    0    0  501    0 -0.00000000000E+00 -0.00000000000E+00 -0.96446995660E+02  0.96446995660E+02  0.00000000000E+00 0. -1.
         25    2    1    2    0    0  0.89253155543E+02 -0.23132776279E+02  0.17287554684E+03  0.23240237299E+03  0.12499462854E+03 0.  0.
          2    1    1    2  501    0 -0.24474029600E+02 -0.75309968021E+01 -0.57578728807E+02  0.63015903141E+02  0.00000000000E+00 0. -1.
          1    1    1    2  502    0 -0.64779125943E+02  0.30663773081E+02  0.19469374032E+03  0.20746627354E+03  0.00000000000E+00 0. -1.
         22    1    3    3    0    0  0.93090223532E+02 -0.60118845715E+02  0.94438831752E+02  0.14559793360E+03  0.00000000000E+00 0.  1.
         22    1    3    3    0    0 -0.38370679886E+01  0.36986069436E+02  0.78436715083E+02  0.86804439380E+02  0.00000000000E+00 0.  1.
</event>
<event>
 7    1  0.6058736E-006  0.9779716E+02  0.7818608E-02  0.1430543E+00
          2   -1    0    0  502    0  0.00000000000E+00  0.00000000000E+00  0.78351992072E+03  0.78351992072E+03  0.00000000000E+00 0. -1.
          1   -1    0    0  501    0 -0.00000000000E+00 -0.00000000000E+00 -0.79175360429E+03  0.79175360429E+03  0.00000000000E+00 0. -1.
         25    2    1    2    0    0 -0.74868659305E+02 -0.40212808892E+02 -0.27103591260E+02  0.15356291898E+03  0.12499831712E+03 0.  0.
          2    1    1    2  501    0  0.42042001859E+01 -0.28250535592E+02 -0.69776683192E+03  0.69835114361E+03  0.00000000000E+00 0. -1.
          1    1    1    2  502    0  0.70664459119E+02  0.68463344484E+02  0.71663673961E+03  0.72335946242E+03  0.00000000000E+00 0. -1.
         22    1    3    3    0    0 -0.10378844408E+03 -0.37555246529E+02 -0.45281351272E+02  0.11930146034E+03  0.00000000000E+00 0.  1.
         22    1    3    3    0    0  0.28919784776E+02 -0.26575623638E+01  0.18177760012E+02  0.34261458642E+02  0.00000000000E+00 0.  1.
</event>
<event>
 7    1  0.6058736E-006  0.2464865E+02  0.7818608E-02  0.1668984E+00
          2   -1    0    0  502    0  0.00000000000E+00  0.00000000000E+00  0.60550748573E+03  0.60550748573E+03  0.00000000000E+00 0. -1.
          1   -1    0    0  501    0 -0.00000000000E+00 -0.00000000000E+00 -0.10375495155E+04  0.10375495155E+04  0.00000000000E+00 0. -1.
         25    2    1    2    0    0  0.14142946868E+02 -0.76904688101E+00 -0.33831877516E+03  0.36095052279E+03  0.12500028759E+03 0.  0.
          2    1    1    2  501    0 -0.76448611789E+01 -0.23022959898E+02 -0.68744489404E+03  0.68787279560E+03  0.00000000000E+00 0. -1.
          1    1    1    2  502    0 -0.64980856887E+01  0.23792006779E+02  0.59372163942E+03  0.59423368284E+03  0.00000000000E+00 0. -1.
         22    1    3    3    0    0 -0.52750065088E+02 -0.19518127428E+02 -0.15794744165E+03  0.16766311756E+03  0.00000000000E+00 0. -1.
         22    1    3    3    0    0  0.66893011956E+02  0.18749080547E+02 -0.18037133351E+03  0.19328740523E+03  0.00000000000E+00 0. -1.
</event>
<event>
 7    1  0.1640115E-005  0.7426193E+02  0.7818608E-02  0.1376841E+00
          2   -1    0    0  502    0  0.00000000000E+00  0.00000000000E+00  0.21157147128E+04  0.21157147128E+04  0.00000000000E+00 0. -1.
          1   -1    0    0  501    0 -0.00000000000E+00 -0.00000000000E+00 -0.14699415834E+04  0.14699415834E+04  0.00000000000E+00 0. -1.
         25    2    1    2    0    0  0.72010719483E+02 -0.80821408071E+02 -0.21129847003E+03  0.26830908542E+03  0.12500031263E+03 0.  0.
          2    1    1    2  501    0 -0.15958277811E+01  0.57400082974E+02 -0.12288075323E+04  0.12301484738E+04  0.00000000000E+00 0. -1.
          1    1    1    2  502    0 -0.70414891702E+02  0.23421325097E+02  0.20858791317E+04  0.20871987370E+04  0.00000000000E+00 0. -1.
         22    1    3    3    0    0  0.87123569871E+02 -0.35881007239E+02 -0.19766638726E+03  0.21897480166E+03  0.00000000000E+00 0. -1.
         22    1    3    3    0    0 -0.15112850388E+02 -0.44940400832E+02 -0.13632082769E+02  0.49334283763E+02  0.00000000000E+00 0. -1.
</event>
<event>
 7    1  0.6058736E-006  0.8936893E+02  0.7818608E-02  0.1422352E+00
          2   -1    0    0  502    0  0.00000000000E+00  0.00000000000E+00  0.10046372707E+04  0.10046372707E+04  0.00000000000E+00 0. -1.
          1   -1    0    0  501    0 -0.00000000000E+00 -0.00000000000E+00 -0.11435960106E+03  0.11435960106E+03  0.00000000000E+00 0. -1.
         25    2    1    2    0    0  0.63968210503E+02 -0.57041480017E+01  0.14873440032E+03  0.20462344465E+03  0.12499745198E+03 0.  0.
          2    1    1    2  501    0  0.22871328058E+02 -0.24158992059E+02 -0.80559127107E+02  0.87158060469E+02  0.00000000000E+00 0. -1.
          1    1    1    2  502    0 -0.86839538561E+02  0.29863140061E+02  0.82210239643E+03  0.82721536664E+03  0.00000000000E+00 0. -1.
         22    1    3    3    0    0  0.88997741654E+02 -0.24004314324E+02  0.58411939172E+02  0.10912726407E+03  0.00000000000E+00 0. -1.
         22    1    3    3    0    0 -0.25029531151E+02  0.18300166322E+02  0.90322461151E+02  0.95496180581E+02  0.00000000000E+00 0. -1.
</event>
<event>
 7    1  0.6058736E-006  0.6094198E+02  0.7818608E-02  0.1400396E+00
          2   -1    0    0  502    0  0.00000000000E+00  0.00000000000E+00  0.63633846110E+03  0.63633846110E+03  0.00000000000E+00 0. -1.
          1   -1    0    0  501    0 -0.00000000000E+00 -0.00000000000E+00 -0.28110483696E+03  0.28110483696E+03  0.00000000000E+00 0. -1.
         25    2    1    2    0    0 -0.29764697028E+02  0.17685418060E+02 -0.17425287721E+03  0.21722670218E+03  0.12499865488E+03 0.  0.
          2    1    1    2  501    0  0.84325935846E+02 -0.37014613992E+02 -0.58686703901E+02  0.10920198863E+03  0.00000000000E+00 0. -1.
          1    1    1    2  502    0 -0.54561238817E+02  0.19329195932E+02  0.58817320525E+03  0.59101460724E+03  0.00000000000E+00 0. -1.
         22    1    3    3    0    0 -0.73322113577E+02  0.24865652667E+02 -0.14467301806E+03  0.16408752292E+03  0.00000000000E+00 0.  1.
         22    1    3    3    0    0  0.43557416549E+02 -0.71802346070E+01 -0.29579859152E+02  0.53139179264E+02  0.00000000000E+00 0.  1.
</event>
<event>
 7    1  0.6058736E-006  0.6733800E+02  0.7818608E-02  0.1457593E+00
          2   -1    0    0  502    0  0.00000000000E+00  0.00000000000E+00  0.75656796195E+03  0.75656796195E+03  0.00000000000E+00 0. -1.
          1   -1    0    0  501    0 -0.00000000000E+00 -0.00000000000E+00 -0.21629130629E+03  0.21629130629E+03  0.00000000000E+00 0. -1.
         25    2    1    2    0    0 -0.15992505108E+02  0.88919498599E+02  0.44551652356E+03  0.47145802522E+03  0.12500103730E+03 0.  0.
          2    1    1    2  501    0  0.31989068943E+02 -0.58998925333E+02 -0.19677153991E+03  0.20790193034E+03  0.00000000000E+00 0. -1.
          1    1    1    2  502    0 -0.15996563835E+02 -0.29920573266E+02  0.29153167200E+03  0.29349931267E+03  0.00000000000E+00 0. -1.
         22    1    3    3    0    0 -0.65144117981E+02  0.57945098948E+02  0.34004345478E+03  0.35104264946E+03  0.00000000000E+00 0.  1.
         22    1    3    3    0    0  0.49151612873E+02  0.30974399652E+02  0.10547306878E+03  0.12041537576E+03  0.00000000000E+00 0.  1.
</event>
<event>
 7    1  0.6058736E-006  0.1004112E+03  0.7818608E-02  0.1374488E+00
          2   -1    0    0  502    0  0.00000000000E+00  0.00000000000E+00  0.11012705383E+03  0.11012705383E+03  0.00000000000E+00 0. -1.
          1   -1    0    0  501    0 -0.00000000000E+00 -0.00000000000E+00 -0.28101541334E+04  0.28101541334E+04  0.00000000000E+00 0. -1.
         25    2    1    2    0    0  0.73490163718E+02  0.73597454503E+02 -0.52528509759E+03  0.54987513835E+03  0.12498337713E+03 0.  0.
          2    1    1    2  501    0 -0.38066434330E+02  0.20627875151E+02 -0.22464155696E+04  0.22468327650E+04  0.00000000000E+00 0. -1.
          1    1    1    2  502    0 -0.35423729388E+02 -0.94225329654E+02  0.71673587536E+02  0.12357328393E+03  0.00000000000E+00 0. -1.
         22    1    3    3    0    0  0.34939206017E+02  0.10549574259E+03 -0.39418347779E+03  0.40954940359E+03  0.00000000000E+00 0.  1.
         22    1    3    3    0    0  0.38550957702E+02 -0.31898288086E+02 -0.13110161980E+03  0.14032573476E+03  0.00000000000E+00 0.  1.
</event>
<event>
 7    1  0.6058736E-006  0.8941912E+02  0.7818608E-02  0.1427202E+00
          2   -1    0    0  502    0  0.00000000000E+00  0.00000000000E+00  0.43735054538E+03  0.43735054538E+03  0.00000000000E+00 0. -1.
          1   -1    0    0  501    0 -0.00000000000E+00 -0.00000000000E+00 -0.94842674357E+03  0.94842674357E+03  0.00000000000E+00 0. -1.
         25    2    1    2    0    0  0.11766868343E+03  0.21716881309E+02  0.46193642733E+02  0.17910068847E+03  0.12500264792E+03 0.  0.
          2    1    1    2  501    0 -0.88401646091E+02 -0.86778478350E+01 -0.87893881200E+03  0.88341586544E+03  0.00000000000E+00 0. -1.
          1    1    1    2  502    0 -0.29267037341E+02 -0.13039033474E+02  0.32166897107E+03  0.32326073504E+03  0.00000000000E+00 0. -1.
         22    1    3    3    0    0  0.90525719360E+02 -0.30654287046E+02  0.66813763886E+02  0.11661333639E+03  0.00000000000E+00 0. -1.
         22    1    3    3    0    0  0.27142964072E+02  0.52371168354E+02 -0.20620121152E+02  0.62487352078E+02  0.00000000000E+00 0. -1.
</event>
<event>
 7    1  0.6058736E-006  0.6502049E+02  0.7818608E-02  0.1432647E+00
          2   -1    0    0  502    0  0.00000000000E+00  0.00000000000E+00  0.21059576037E+04  0.21059576037E+04  0.00000000000E+00 0. -1.
          1   -1    0    0  501    0 -0.00000000000E+00 -0.00000000000E+00 -0.15392931363E+03  0.15392931363E+03  0.00000000000E+00 0. -1.
         25    2    1    2    0    0 -0.40729714093E+02 -0.41994690213E+02 -0.24331550209E+02  0.14014145463E+03  0.12500055741E+03 0.  0.
          2    1    1    2  501    0  0.84322002183E+01  0.69281387522E+02 -0.54434758478E+02  0.88510765380E+02  0.00000000000E+00 0. -1.
          1    1    1    2  502    0  0.32297513875E+02 -0.27286697309E+02  0.20307945988E+04  0.20312346973E+04  0.00000000000E+00 0. -1.
         22    1    3    3    0    0 -0.65149593115E+02  0.13266526461E+02 -0.40175309618E+02  0.77682209741E+02  0.00000000000E+00 0.  1.
         22    1    3    3    0    0  0.24419879022E+02 -0.55261216673E+02  0.15843759409E+02  0.62459244887E+02  0.00000000000E+00 0.  1.
</event>
<event>
 7    1  0.6058736E-006  0.1092526E+03  0.7818608E-02  0.1262755E+00
          2   -1    0    0  502    0  0.00000000000E+00  0.00000000000E+00  0.36635481476E+03  0.36635481476E+03  0.00000000000E+00 0. -1.
          1   -1    0    0  501    0 -0.00000000000E+00 -0.00000000000E+00 -0.65864127099E+03  0.65864127099E+03  0.00000000000E+00 0. -1.
         25    2    1    2    0    0  0.12598683930E+03  0.30143195948E+02 -0.17150379771E+03  0.24863688524E+03  0.12500180852E+03 0.  0.
          2    1    1    2  501    0 -0.42074477467E+02 -0.10082592733E+03 -0.43240157477E+03  0.44599019175E+03  0.00000000000E+00 0. -1.
          1    1    1    2  502    0 -0.83912361834E+02  0.70682731378E+02  0.31161891624E+03  0.33036900875E+03  0.00000000000E+00 0. -1.
         22    1    3    3    0    0  0.12048037877E+02  0.45484163184E+02 -0.10681676395E+03  0.11672097232E+03  0.00000000000E+00 0.  1.
         22    1    3    3    0    0  0.11393880142E+03 -0.15340967236E+02 -0.64687033751E+02  0.13191591292E+03  0.00000000000E+00 0.  1.
</event>
<event>
 7    1  0.6058736E-006  0.1198149E+03  0.7818608E-02  0.1417909E+00
          2   -1    0    0  502    0  0.00000000000E+00  0.00000000000E+00  0.16400616491E+04  0.16400616491E+04  0.00000000000E+00 0. -1.
          1   -1    0    0  501    0 -0.00000000000E+00 -0.00000000000E+00 -0.19740054867E+03  0.19740054867E+03  0.00000000000E+00 0. -1.
         25    2    1    2    0    0  0.42932813185E+02 -0.92268037190E+02  0.76361597245E+03  0.78044366028E+03  0.12500534533E+03 0.  0.
          2    1    1    2  501    0 -0.67560909053E+02  0.99530752667E+02 -0.16963017119E+03  0.20795490409E+03  0.00000000000E+00 0. -1.
          1    1    1    2  502    0  0.24628095869E+02 -0.72627154774E+01  0.84867529919E+03  0.84906363343E+03  0.00000000000E+00 0. -1.
         22    1    3    3    0    0  0.84900828713E+02 -0.80177299437E+02  0.52083591116E+03  0.53376642496E+03  0.00000000000E+00 0.  1.
         22    1    3    3    0    0 -0.41968015528E+02 -0.12090737753E+02  0.24278006128E+03  0.24667723531E+03  0.00000000000E+00 0.  1.
</event>
<event>
 7    1  0.6058736E-006  0.5607505E+02  0.7818608E-02  0.1559631E+00
          2   -1    0    0  502    0  0.00000000000E+00  0.00000000000E+00  0.86270327239E+03  0.86270327239E+03  0.00000000000E+00 0. -1.
          1   -1    0    0  501    0 -0.00000000000E+00 -0.00000000000E+00 -0.20544176161E+03  0.20544176161E+03  0.00000000000E+00 0. -1.
         25    2    1    2    0    0  0.71384658982E+02 -0.22631714007E+02  0.21831670120E+03  0.26247966022E+03  0.12500170396E+03 0.  0.
          2    1    1    2  501    0 -0.20228521537E+02  0.23043665627E+01 -0.18157292968E+03  0.18271078781E+03  0.00000000000E+00 0. -1.
          1    1    1    2  502    0 -0.51156137445E+02  0.20327347444E+02  0.62051773926E+03  0.62295458597E+03  0.00000000000E+00 0. -1.
         22    1    3    3    0    0  0.17584817637E+02 -0.90687759886E+01  0.20429676119E+03  0.20525261300E+03  0.00000000000E+00 0. -1.
         22    1    3    3    0    0  0.53799841345E+02 -0.13562938018E+02  0.14019940008E+02  0.57227047227E+02  0.00000000000E+00 0. -1.
</event>
<event>
 7    1  0.6058736E-006  0.8359974E+02  0.7818608E-02  0.1373491E+00
          2   -1    0    0  502    0  0.00000000000E+00  0.00000000000E+00  0.32838017090E+03  0.32838017090E+03  0.00000000000E+00 0. -1.
          1   -1    0    0  501    0 -0.00000000000E+00 -0.00000000000E+00 -0.36084641971E+03  0.36084641971E+03  0.00000000000E+00 0. -1.
         25    2    1    2    0    0 -0.62209177045E+02 -0.35660911487E+01  0.12657686547E+03  0.18849269298E+03  0.12500037488E+03 0.  0.
          2    1    1    2  501    0 -0.17791449370E+02 -0.49320407316E+02 -0.31408381648E+03  0.31843002689E+03  0.00000000000E+00 0. -1.
          1    1    1    2  502    0  0.80000626415E+02  0.52886498465E+02  0.15504070221E+03  0.18230387075E+03  0.00000000000E+00 0. -1.
         22    1    3    3    0    0 -0.32354309033E+02 -0.57887097059E+02  0.10232025811E+03  0.12193093348E+03  0.00000000000E+00 0.  1.
         22    1    3    3    0    0 -0.29854868012E+02  0.54321005910E+02  0.24256607354E+02  0.66561759498E+02  0.00000000000E+00 0.  1.
</event>
<event>
 7    1  0.6058736E-006  0.8733462E+02  0.7818608E-02  0.1414803E+00
          2   -1    0    0  502    0  0.00000000000E+00  0.00000000000E+00  0.88857223511E+03  0.88857223511E+03  0.00000000000E+00 0. -1.
          1   -1    0    0  501    0 -0.00000000000E+00 -0.00000000000E+00 -0.18933394961E+04  0.18933394961E+04  0.00000000000E+00 0. -1.
         25    2    1    2    0    0  0.14369060069E+02 -0.10695372903E+03  0.12405213195E+03  0.20654166934E+03  0.12499983877E+03 0.  0.
          2    1    1    2  501    0 -0.28731767419E+02  0.21826947043E+02 -0.18493420396E+04  0.18496940043E+04  0.00000000000E+00 0. -1.
          1    1    1    2  502    0  0.14362707350E+02  0.85126781986E+02  0.72052264660E+03  0.72567605764E+03  0.00000000000E+00 0. -1.
         22    1    3    3    0    0  0.35455509063E+02 -0.12827945087E+02  0.10036975534E+03  0.10721817516E+03  0.00000000000E+00 0. -1.
         22    1    3    3    0    0 -0.21086448994E+02 -0.94125783942E+02  0.23682376613E+02  0.99323494179E+02  0.00000000000E+00 0. -1.
</event>
<event>
 7    1  0.6058736E-006  0.5294433E+02  0.7818608E-02  0.1488299E+00
          2   -1    0    0  502    0  0.00000000000E+00  0.00000000000E+00  0.87047621230E+03  0.87047621230E+03  0.00000000000E+00 0. -1.
          1   -1    0    0  501    0 -0.00000000000E+00 -0.00000000000E+00 -0.91577893264E+02  0.91577893264E+02  0.00000000000E+00 0. -1.
         25    2    1    2    0    0 -0.29952374015E+02  0.64268922781E+02  0.13704992326E+03  0.19858432987E+03  0.12500166182E+03 0.  0.
          2    1    1    2  501    0 -0.25340200088E+01 -0.52179385977E+02 -0.49075777080E+02  0.71676645251E+02  0.00000000000E+00 0. -1.
          1    1    1    2  502    0  0.32486394024E+02 -0.12089536803E+02  0.69092417285E+03  0.69179313044E+03  0.00000000000E+00 0. -1.
         22    1    3    3    0    0 -0.31026481777E+02  0.23997528326E+02  0.15095394512E+03  0.15596671916E+03  0.00000000000E+00 0.  1.
         22    1    3    3    0    0  0.10741077620E+01  0.40271394454E+02 -0.13904021860E+02  0.42617610710E+02  0.00000000000E+00 0.  1.
</event>
<event>
 7    1  0.6058736E-006  0.1010886E+03  0.7818608E-02  0.1463417E+00
          2   -1    0    0  502    0  0.00000000000E+00  0.00000000000E+00  0.52745852348E+03  0.52745852348E+03  0.00000000000E+00 0. -1.
          1   -1    0    0  501    0 -0.00000000000E+00 -0.00000000000E+00 -0.92555960419E+03  0.92555960419E+03  0.00000000000E+00 0. -1.
         25    2    1    2    0    0 -0.10939878985E+03 -0.53988544965E+02 -0.37944119450E+01  0.17470554360E+03  0.12499908478E+03 0.  0.
          2    1    1    2  501    0  0.89596503992E+02  0.45199561688E+02 -0.83303095161E+03  0.83905369330E+03  0.00000000000E+00 0. -1.
          1    1    1    2  502    0  0.19802285856E+02  0.87889832773E+01  0.43872428285E+03  0.43925889076E+03  0.00000000000E+00 0. -1.
         22    1    3    3    0    0  0.43900271754E+01 -0.34566941101E+02 -0.40640601151E+02  0.53533206681E+02  0.00000000000E+00 0. -1.
         22    1    3    3    0    0 -0.11378881702E+03 -0.19421603864E+02  0.36846189206E+02  0.12117233692E+03  0.00000000000E+00 0. -1.
</event>
<event>
 7    1  0.6058736E-006  0.4898390E+02  0.7818608E-02  0.1542923E+00
          2   -1    0    0  502    0  0.00000000000E+00  0.00000000000E+00  0.81451829162E+03  0.81451829162E+03  0.00000000000E+00 0. -1.
          1   -1    0    0  501    0 -0.00000000000E+00 -0.00000000000E+00 -0.27476816304E+03  0.27476816304E+03  0.00000000000E+00 0. -1.
         25    2    1    2    0    0  0.57227615739E+02  0.44074978445E+02 -0.22318852056E+02  0.14608562127E+03  0.12500109542E+03 0.  0.
          2    1    1    2  501    0 -0.13724107103E+02 -0.22014824392E+02 -0.18888811990E+03  0.19066128460E+03  0.00000000000E+00 0. -1.
          1    1    1    2  502    0 -0.43503508636E+02 -0.22060154053E+02  0.75095710053E+03  0.75253954879E+03  0.00000000000E+00 0. -1.
         22    1    3    3    0    0  0.82423284431E+02  0.25523603311E+02  0.24571083115E+02  0.89715050397E+02  0.00000000000E+00 0.  1.
         22    1    3    3    0    0 -0.25195668691E+02  0.18551375134E+02 -0.46889935171E+02  0.56370570873E+02  0.00000000000E+00 0.  1.
</event>
<event>
 7    1  0.6058736E-006  0.1963439E+03  0.7818608E-02  0.1243220E+00
          2   -1    0    0  502    0  0.00000000000E+00  0.00000000000E+00  0.12454079443E+04  0.12454079443E+04  0.00000000000E+00 0. -1.
          1   -1    0    0  501    0 -0.00000000000E+00 -0.00000000000E+00 -0.11060999345E+04  0.11060999345E+04  0.00000000000E+00 0. -1.
         25    2    1    2    0    0 -0.11187353453E+03  0.74663945694E+02  0.28532821810E+02  0.18582181013E+03  0.12500092274E+03 0.  0.
          2    1    1    2  501    0  0.14697209787E+03 -0.13895703374E+03 -0.10163008559E+04  0.10362322542E+04  0.00000000000E+00 0. -1.
          1    1    1    2  502    0 -0.35098563344E+02  0.64293088043E+02  0.11270760439E+04  0.11294538145E+04  0.00000000000E+00 0. -1.
         22    1    3    3    0    0 -0.39237206989E+02 -0.21890381799E+02 -0.27455205481E+02  0.52654871908E+02  0.00000000000E+00 0.  1.
         22    1    3    3    0    0 -0.72636327538E+02  0.96554327493E+02  0.55988027291E+02  0.13316693822E+03  0.00000000000E+00 0.  1.
</event>
<event>
 7    1  0.6058736E-006  0.6654893E+02  0.7818608E-02  0.1496184E+00
          2   -1    0    0  502    0  0.00000000000E+00  0.00000000000E+00  0.49888591463E+03  0.49888591463E+03  0.00000000000E+00 0. -1.
          1   -1    0    0  501    0 -0.00000000000E+00 -0.00000000000E+00 -0.13389138149E+04  0.13389138149E+04  0.00000000000E+00 0. -1.
         25    2    1    2    0    0 -0.47570898947E+02 -0.46419954704E+01 -0.19120551914E+03  0.23338655630E+03  0.12500078225E+03 0.  0.
          2    1    1    2  501    0 -0.17582100861E+02  0.19299251022E+02 -0.11241319721E+04  0.11244350947E+04  0.00000000000E+00 0. -1.
          1    1    1    2  502    0  0.65152999808E+02 -0.14657255552E+02  0.47530959104E+03  0.47997807852E+03  0.00000000000E+00 0. -1.
         22    1    3    3    0    0 -0.73747260522E+02  0.17715059255E+02 -0.18285954179E+03  0.19796488018E+03  0.00000000000E+00 0.  1.
         22    1    3    3    0    0  0.26176361576E+02 -0.22357054725E+02 -0.83459773481E+01  0.35421676121E+02  0.00000000000E+00 0.  1.
</event>
<event>
 7    1  0.6058736E-006  0.6830449E+02  0.7818608E-02  0.1376609E+00
          2   -1    0    0  502    0  0.00000000000E+00  0.00000000000E+00  0.23713838560E+03  0.23713838560E+03  0.00000000000E+00 0. -1.
          1   -1    0    0  501    0 -0.00000000000E+00 -0.00000000000E+00 -0.26227366048E+04  0.26227366048E+04  0.00000000000E+00 0. -1.
         25    2    1    2    0    0  0.14379092360E+02 -0.12205730797E+03  0.16068822097E+03  0.23779457609E+03  0.12498324419E+03 0.  0.
          2    1    1    2  501    0  0.14584054676E+02  0.66617564287E+02 -0.25576059959E+04  0.25585150038E+04  0.00000000000E+00 0. -1.
          1    1    1    2  502    0 -0.28963147036E+02  0.55439743687E+02  0.11319555740E+02  0.63565410472E+02  0.00000000000E+00 0. -1.
         22    1    3    3    0    0  0.44641142891E+01  0.21152050685E+02 -0.91827770708E+00  0.21637485956E+02  0.00000000000E+00 0.  1.
         22    1    3    3    0    0  0.99149780707E+01 -0.14320935866E+03  0.16160649868E+03  0.21615709013E+03  0.00000000000E+00 0.  1.
</event>
<event>
 7    1  0.7387726E-006  0.5789233E+02  0.7818608E-02  0.1440294E+00
          2   -1    0    0  502    0  0.00000000000E+00  0.00000000000E+00  0.21499294251E+04  0.21499294251E+04  0.00000000000E+00 0. -1.
          1   -1    0    0  501    0 -0.00000000000E+00 -0.00000000000E+00 -0.25328324275E+04  0.25328324275E+04  0.00000000000E+00 0. -1.
         25    2    1    2    0    0 -0.99266704004E+02  0.88408610590E+01 -0.25273753192E+03  0.29905335051E+03  0.12499842823E+03 0.  0.
          2    1    1    2  501    0  0.56951901661E+02  0.59850839091E+01 -0.22563373418E+04  0.22570639203E+04  0.00000000000E+00 0. -1.
          1    1    1    2  502    0  0.42314802343E+02 -0.14825944968E+02  0.21261718713E+04  0.21266445818E+04  0.00000000000E+00 0. -1.
         22    1    3    3    0    0 -0.79053281389E+02  0.56592733812E+02 -0.21158957726E+03  0.23285684019E+03  0.00000000000E+00 0.  1.
         22    1    3    3    0    0 -0.20213422615E+02 -0.47751872753E+02 -0.41147954664E+02  0.66196510318E+02  0.00000000000E+00 0.  1.
</event>
<event>
 7    1  0.6058736E-006  0.1004172E+03  0.7818608E-02  0.1349296E+00
          2   -1    0    0  502    0  0.00000000000E+00  0.00000000000E+00  0.69678213896E+03  0.69678213896E+03  0.00000000000E+00 0. -1.
          1   -1    0    0  501    0 -0.00000000000E+00 -0.00000000000E+00 -0.23089302088E+03  0.23089302088E+03  0.00000000000E+00 0. -1.
         25    2    1    2    0    0 -0.88167366583E+02  0.10613200180E+03  0.30349030217E+03  0.35604651830E+03  0.12500109340E+03 0.  0.
          2    1    1    2  501    0  0.13006236772E+02 -0.51863683183E+02 -0.19510571096E+03  0.20229988205E+03  0.00000000000E+00 0. -1.
          1    1    1    2  502    0  0.75161129811E+02 -0.54268318615E+02  0.35750452688E+03  0.36932875948E+03  0.00000000000E+00 0. -1.
         22    1    3    3    0    0  0.62345092684E+01  0.99775023484E+01  0.15532837353E+03  0.15577330735E+03  0.00000000000E+00 0.  1.
         22    1    3    3    0    0 -0.94401875852E+02  0.96154499449E+02  0.14816192864E+03  0.20027321096E+03  0.00000000000E+00 0.  1.
</event>
<event>
 7    1  0.6058736E-006  0.2279724E+02  0.7818608E-02  0.1719669E+00
          2   -1    0    0  502    0  0.00000000000E+00  0.00000000000E+00  0.74243726304E+02  0.74243726304E+02  0.00000000000E+00 0. -1.
          1   -1    0    0  501    0 -0.00000000000E+00 -0.00000000000E+00 -0.14635844413E+04  0.14635844413E+04  0.00000000000E+00 0. -1.
         25    2    1    2    0    0  0.39381848882E+02  0.23772967933E+01 -0.13160576382E+04  0.13225703329E+04  0.12501198759E+03 0.  0.
          2    1    1    2  501    0 -0.18685962621E+02  0.71359953410E+01 -0.14172275707E+03  0.14312731221E+03  0.00000000000E+00 0. -1.
          1    1    1    2  502    0 -0.20695886262E+02 -0.95132921342E+01  0.68439680249E+02  0.72130522444E+02  0.00000000000E+00 0. -1.
         22    1    3    3    0    0  0.40237722523E+02  0.53443145082E+02 -0.10157617592E+04  0.10179622761E+04  0.00000000000E+00 0. -1.
         22    1    3    3    0    0 -0.85587364077E+00 -0.51065848289E+02 -0.30029587900E+03  0.30460805690E+03  0.00000000000E+00 0. -1.
</event>
<event>
 7    1  0.6058736E-006  0.4804044E+02  0.7818608E-02  0.1578468E+00
          2   -1    0    0  502    0  0.00000000000E+00  0.00000000000E+00  0.21250817461E+04  0.21250817461E+04  0.00000000000E+00 0. -1.
          1   -1    0    0  501    0 -0.00000000000E+00 -0.00000000000E+00 -0.59463293559E+01  0.59463293559E+01  0.00000000000E+00 0. -1.
         25    2    1    2    0    0 -0.16448352471E+02 -0.28397005996E+02  0.16543603720E+04  0.16594049100E+04  0.12505789229E+03 0.  0.
          2    1    1    2  501    0  0.35140751398E+02  0.38227326319E+02  0.40313719668E+03  0.40646746516E+03  0.00000000000E+00 0. -1.
          1    1    1    2  502    0 -0.18692398927E+02 -0.98303203237E+01  0.61637848028E+02  0.65155700325E+02  0.00000000000E+00 0. -1.
         22    1    3    3    0    0  0.53720560230E+02 -0.23175861606E+02  0.68483497446E+03  0.68732958716E+03  0.00000000000E+00 0.  1.
         22    1    3    3    0    0 -0.70168912701E+02 -0.52211443900E+01  0.96952539758E+03  0.97207532280E+03  0.00000000000E+00 0.  1.
</event>
<event>
 7    1  0.6058736E-006  0.9247670E+02  0.7818608E-02  0.1310144E+00
          2   -1    0    0  502    0  0.00000000000E+00  0.00000000000E+00  0.22540372130E+04  0.22540372130E+04  0.00000000000E+00 0. -1.
          1   -1    0    0  501    0 -0.00000000000E+00 -0.00000000000E+00 -0.26607377632E+02  0.26607377632E+02  0.00000000000E+00 0. -1.
         25    2    1    2    0    0 -0.95650631259E+02 -0.13056587944E+03  0.74204261103E+03  0.76970696290E+03  0.12500032008E+03 0.  0.
          2    1    1    2  501    0  0.64754835685E+02  0.50228226292E+02  0.13582405413E+03  0.15863239625E+03  0.00000000000E+00 0. -1.
          1    1    1    2  502    0  0.30895795574E+02  0.80337653147E+02  0.13495631702E+04  0.13523052315E+04  0.00000000000E+00 0. -1.
         22    1    3    3    0    0 -0.29146155800E+02 -0.13228720244E+03  0.55121186153E+03  0.56761247222E+03  0.00000000000E+00 0.  1.
         22    1    3    3    0    0 -0.66504475459E+02  0.17213230027E+01  0.19083074950E+03  0.20209449068E+03  0.00000000000E+00 0.  1.
</event>
<event>
 7    1  0.6058736E-006  0.1028855E+03  0.7818608E-02  0.1384560E+00
          2   -1    0    0  502    0  0.00000000000E+00  0.00000000000E+00  0.13700105640E+04  0.13700105640E+04  0.00000000000E+00 0. -1.
          1   -1    0    0  501    0 -0.00000000000E+00 -0.00000000000E+00 -0.51269891197E+02  0.51269891197E+02  0.00000000000E+00 0. -1.
         25    2    1    2    0    0 -0.78255108177E+01 -0.82319459278E+02  0.68373635327E+03  0.69997294173E+03  0.12501594453E+03 0.  0.
          2    1    1    2  501    0 -0.26227005019E+02 -0.28756910672E+02 -0.28162486649E+02  0.48041038269E+02  0.00000000000E+00 0. -1.
          1    1    1    2  502    0  0.34052515837E+02  0.11107636995E+03  0.66316680623E+03  0.67326647524E+03  0.00000000000E+00 0. -1.
         22    1    3    3    0    0  0.54769913371E+02 -0.24381940367E+02  0.37105915424E+03  0.37587114597E+03  0.00000000000E+00 0.  1.
         22    1    3    3    0    0 -0.62595424188E+02 -0.57937518911E+02  0.31267719903E+03  0.32410179576E+03  0.00000000000E+00 0.  1.
</event>
<event>
 7    1  0.6058736E-006  0.9560252E+02  0.7818608E-02  0.1372935E+00
          2   -1    0    0  502    0  0.00000000000E+00  0.00000000000E+00  0.14020888446E+03  0.14020888446E+03  0.00000000000E+00 0. -1.
          1   -1    0    0  501    0 -0.00000000000E+00 -0.00000000000E+00 -0.49928891452E+03  0.49928891452E+03  0.00000000000E+00 0. -1.
         25    2    1    2    0    0 -0.22013112669E+02 -0.61365526353E+02 -0.49155488694E+01  0.14106617979E+03  0.12500079802E+03 0.  0.
          2    1    1    2  501    0 -0.52764437575E+01  0.98469754101E+02 -0.41248959965E+03  0.42411296036E+03  0.00000000000E+00 0. -1.
          1    1    1    2  502    0  0.27289556427E+02 -0.37104227748E+02  0.58325118455E+02  0.74318658825E+02  0.00000000000E+00 0. -1.
         22    1    3    3    0    0  0.18555188628E+02 -0.66116815799E+02 -0.46377008927E+02  0.82864680735E+02  0.00000000000E+00 0.  1.
         22    1    3    3    0    0 -0.40568301298E+02  0.47512894456E+01  0.41461460057E+02  0.58201499050E+02  0.00000000000E+00 0.  1.
</event>
<event>
 7    1  0.6058736E-006  0.1459159E+03  0.7818608E-02  0.1230955E+00
          2   -1    0    0  502    0  0.00000000000E+00  0.00000000000E+00  0.64874212075E+03  0.64874212075E+03  0.00000000000E+00 0. -1.
          1   -1    0    0  501    0 -0.00000000000E+00 -0.00000000000E+00 -0.17686117524E+03  0.17686117524E+03  0.00000000000E+00 0. -1.
         25    2    1    2    0    0  0.10757391035E+03  0.11312492741E+03  0.26051596341E+03  0.32842468709E+03  0.12499925003E+03 0.  0.
          2    1    1    2  501    0 -0.10361523330E+03  0.41735240265E+02 -0.99666974568E+02  0.14970455127E+03  0.00000000000E+00 0. -1.
          1    1    1    2  502    0 -0.39586770483E+01 -0.15486016768E+03  0.31103195667E+03  0.34747405764E+03  0.00000000000E+00 0. -1.
         22    1    3    3    0    0  0.10039220290E+03  0.15763486628E+02  0.14693642772E+03  0.17865440298E+03  0.00000000000E+00 0. -1.
         22    1    3    3    0    0  0.71817074493E+01  0.97361440786E+02  0.11357953569E+03  0.14977028411E+03  0.00000000000E+00 0. -1.
</event>
<event>
 7    1  0.6058736E-006  0.6828957E+02  0.7818608E-02  0.1401160E+00
          2   -1    0    0  502    0  0.00000000000E+00  0.00000000000E+00  0.26425214724E+03  0.26425214724E+03  0.00000000000E+00 0. -1.
          1   -1    0    0  501    0 -0.00000000000E+00 -0.00000000000E+00 -0.71847338416E+03  0.71847338416E+03  0.00000000000E+00 0. -1.
         25    2    1    2    0    0 -0.20115532633E+02  0.10028191489E+03 -0.15800050857E+02  0.16228094030E+03  0.12499745945E+03 0.  0.
          2    1    1    2  501    0  0.36856983643E+02 -0.35746650124E+02 -0.62252581115E+03  0.62463961272E+03  0.00000000000E+00 0. -1.
          1    1    1    2  502    0 -0.16741451011E+02 -0.64535264771E+02  0.18410462508E+03  0.19580497837E+03  0.00000000000E+00 0. -1.
         22    1    3    3    0    0  0.32533836302E+02  0.91802717727E+02 -0.37958919226E+02  0.10453262187E+03  0.00000000000E+00 0.  1.
         22    1    3    3    0    0 -0.52649368935E+02  0.84791971671E+01  0.22158868369E+02  0.57748318427E+02  0.00000000000E+00 0.  1.
</event>
<event>
 7    1  0.6058736E-006  0.1659859E+03  0.7818608E-02  0.1253078E+00
          2   -1    0    0  502    0  0.00000000000E+00  0.00000000000E+00  0.10295083877E+04  0.10295083877E+04  0.00000000000E+00 0. -1.
          1   -1    0    0  501    0 -0.00000000000E+00 -0.00000000000E+00 -0.20944140843E+03  0.20944140843E+03  0.00000000000E+00 0. -1.
         25    2    1    2    0    0  0.31266420922E+02  0.20007277951E+03  0.34385404099E+03  0.41817359536E+03  0.12500739248E+03 0.  0.
          2    1    1    2  501    0 -0.64565247964E+02 -0.44644712553E+02 -0.15291075249E+03  0.17188228481E+03  0.00000000000E+00 0. -1.
          1    1    1    2  502    0  0.33298827042E+02 -0.15542806696E+03  0.62912369073E+03  0.64889391592E+03  0.00000000000E+00 0. -1.
         22    1    3    3    0    0  0.59201416370E+02  0.66174462416E+02  0.73806143823E+02  0.11546087667E+03  0.00000000000E+00 0.  1.
         22    1    3    3    0    0 -0.27934995447E+02  0.13389831710E+03  0.27004789716E+03  0.30271271869E+03  0.00000000000E+00 0.  1.
</event>
<event>
 7    1  0.6058736E-006  0.4935498E+02  0.7818608E-02  0.1494683E+00
          2   -1    0    0  502    0  0.00000000000E+00  0.00000000000E+00  0.12186691960E+04  0.12186691960E+04  0.00000000000E+00 0. -1.
          1   -1    0    0  501    0 -0.00000000000E+00 -0.00000000000E+00 -0.10192939994E+03  0.10192939994E+03  0.00000000000E+00 0. -1.
         25    2    1    2    0    0  0.71893349124E+02 -0.34492545469E+02  0.43151598378E+03  0.45627711042E+03  0.12499747155E+03 0.  0.
          2    1    1    2  501    0 -0.35360645398E+02  0.38516881977E+01 -0.85250354255E+02  0.92373338391E+02  0.00000000000E+00 0. -1.
          1    1    1    2  502    0 -0.36532703726E+02  0.30640857271E+02  0.77047416654E+03  0.77194814715E+03  0.00000000000E+00 0. -1.
         22    1    3    3    0    0  0.53029953607E+02 -0.99425303178E+00  0.50202415879E+02  0.73030453092E+02  0.00000000000E+00 0. -1.
         22    1    3    3    0    0  0.18863395516E+02 -0.33498292437E+02  0.38131356790E+03  0.38324665733E+03  0.00000000000E+00 0. -1.
</event>
<event>
 7    1  0.6058736E-006  0.5557957E+02  0.7818608E-02  0.1517133E+00
          2   -1    0    0  502    0  0.00000000000E+00  0.00000000000E+00  0.13932734450E+03  0.13932734450E+03  0.00000000000E+00 0. -1.
          1   -1    0    0  501    0 -0.00000000000E+00 -0.00000000000E+00 -0.26680451975E+03  0.26680451975E+03  0.00000000000E+00 0. -1.
         25    2    1    2    0    0  0.73176666641E+02 -0.26640807283E+02  0.28365256079E+02  0.14998176053E+03  0.12500153434E+03 0.  0.
          2    1    1    2  501    0 -0.25618873787E+02  0.88495941310E+01 -0.19194363041E+03  0.19384787661E+03  0.00000000000E+00 0. -1.
          1    1    1    2  502    0 -0.47557792854E+02  0.17791213152E+02  0.36101199086E+02  0.62302227103E+02  0.00000000000E+00 0. -1.
         22    1    3    3    0    0  0.96603563268E+02 -0.36291515866E+02 -0.10349368863E+02  0.10371321997E+03  0.00000000000E+00 0.  1.
         22    1    3    3    0    0 -0.23426896627E+02  0.96507085829E+01  0.38714624942E+02  0.46268540566E+02  0.00000000000E+00 0.  1.
</event>
<event>
 7    1  0.6058736E-006  0.6099119E+02  0.7818608E-02  0.1432297E+00
          2   -1    0    0  502    0  0.00000000000E+00  0.00000000000E+00  0.94699339801E+03  0.94699339801E+03  0.00000000000E+00 0. -1.
          1   -1    0    0  501    0 -0.00000000000E+00 -0.00000000000E+00 -0.22944442503E+03  0.22944442503E+03  0.00000000000E+00 0. -1.
         25    2    1    2    0    0  0.16449178246E+02  0.78800923058E+01 -0.29252007778E+01  0.12634923429E+03  0.12499160326E+03 0.  0.
          2    1    1    2  501    0  0.25861937744E+02  0.37062504086E+02 -0.16060875284E+03  0.16684615825E+03  0.00000000000E+00 0. -1.
          1    1    1    2  502    0 -0.42311115990E+02 -0.44942596391E+02  0.88108292659E+03  0.88324243050E+03  0.00000000000E+00 0. -1.
         22    1    3    3    0    0  0.40181271070E+02  0.29464590424E+01  0.52311470324E+02  0.66028070494E+02  0.00000000000E+00 0. -1.
         22    1    3    3    0    0 -0.23732092824E+02  0.49336332634E+01 -0.55236671102E+02  0.60321163794E+02  0.00000000000E+00 0. -1.
</event>
<event>
 7    1  0.6058736E-006  0.1949741E+03  0.7818608E-02  0.1382983E+00
          2   -1    0    0  502    0  0.00000000000E+00  0.00000000000E+00  0.69155608566E+03  0.69155608566E+03  0.00000000000E+00 0. -1.
          1   -1    0    0  501    0 -0.00000000000E+00 -0.00000000000E+00 -0.79656931449E+03  0.79656931449E+03  0.00000000000E+00 0. -1.
         25    2    1    2    0    0 -0.17148614892E+03  0.10485058961E+03 -0.60852231319E+03  0.65293586540E+03  0.12499877303E+03 0.  0.
          2    1    1    2  501    0  0.16272085651E+02  0.12959912252E+02 -0.15092972263E+03  0.15235655966E+03  0.00000000000E+00 0. -1.
          1    1    1    2  502    0  0.15521406327E+03 -0.11781050186E+03  0.65443880699E+03  0.68283297510E+03  0.00000000000E+00 0. -1.
         22    1    3    3    0    0 -0.40127360424E+02 -0.12864760079E+02 -0.41623316119E+02  0.59230123680E+02  0.00000000000E+00 0.  1.
         22    1    3    3    0    0 -0.13135878850E+03  0.11771534968E+03 -0.56689899707E+03  0.59370574172E+03  0.00000000000E+00 0.  1.
</event>
<event>
 7    1  0.6058736E-006  0.5652888E+02  0.7818608E-02  0.1493488E+00
          2   -1    0    0  502    0  0.00000000000E+00  0.00000000000E+00  0.90655706252E+02  0.90655706252E+02  0.00000000000E+00 0. -1.
          1   -1    0    0  501    0 -0.00000000000E+00 -0.00000000000E+00 -0.13061775945E+04  0.13061775945E+04  0.00000000000E+00 0. -1.
         25    2    1    2    0    0  0.59773552140E+01 -0.55198123523E+02 -0.34358100220E+03  0.36980429583E+03  0.12499900210E+03 0.  0.
          2    1    1    2  501    0 -0.35499437232E+02  0.44757470311E+02 -0.94542593112E+03  0.94715026919E+03  0.00000000000E+00 0. -1.
          1    1    1    2  502    0  0.29522082018E+02  0.10440653212E+02  0.73485045093E+02  0.79878735710E+02  0.00000000000E+00 0. -1.
         22    1    3    3    0    0 -0.71657116983E+01  0.27917309823E+02 -0.19068275557E+02  0.34558974878E+02  0.00000000000E+00 0.  1.
         22    1    3    3    0    0  0.13143066912E+02 -0.83115433346E+02 -0.32451272665E+03  0.33524532096E+03  0.00000000000E+00 0.  1.
</event>
<event>
 7    1  0.6058736E-006  0.4913123E+02  0.7818608E-02  0.1538219E+00
          2   -1    0    0  502    0  0.00000000000E+00  0.00000000000E+00  0.64486993142E+03  0.64486993142E+03  0.00000000000E+00 0. -1.
          1   -1    0    0  501    0 -0.00000000000E+00 -0.00000000000E+00 -0.12901593549E+03  0.12901593549E+03  0.00000000000E+00 0. -1.
         25    2    1    2    0    0  0.71786799085E+01 -0.33466846319E+02 -0.95591809201E+01  0.12995293275E+03  0.12499929417E+03 0.  0.
          2    1    1    2  501    0 -0.23099397779E+02 -0.13326942493E+02 -0.55155309923E+02  0.61264163968E+02  0.00000000000E+00 0. -1.
          1    1    1    2  502    0  0.15920717871E+02  0.46793788812E+02  0.58056848677E+03  0.58266877020E+03  0.00000000000E+00 0. -1.
         22    1    3    3    0    0  0.52998848931E+02 -0.48014157674E+02 -0.30207655738E+02  0.77632079647E+02  0.00000000000E+00 0. -1.
         22    1    3    3    0    0 -0.45820169023E+02  0.14547311355E+02  0.20648474817E+02  0.52320853101E+02  0.00000000000E+00 0. -1.
</event>
<event>
 7    1  0.6058736E-006  0.9308196E+02  0.7818608E-02  0.1368329E+00
          2   -1    0    0  502    0  0.00000000000E+00  0.00000000000E+00  0.22593564150E+04  0.22593564150E+04  0.00000000000E+00 0. -1.
          1   -1    0    0  501    0 -0.00000000000E+00 -0.00000000000E+00 -0.63724137796E+02  0.63724137796E+02  0.00000000000E+00 0. -1.
         25    2    1    2    0    0  0.47122062486E+02  0.62619491291E+02  0.14458106234E+04  0.14533185852E+04  0.12499944860E+03 0.  0.
          2    1    1    2  501    0 -0.87262852578E+02 -0.34268853422E+02 -0.22065327914E+02  0.96312192639E+02  0.00000000000E+00 0. -1.
          1    1    1    2  502    0  0.40140790093E+02 -0.28350637869E+02  0.77188698179E+03  0.77344977494E+03  0.00000000000E+00 0. -1.
         22    1    3    3    0    0  0.63297853803E+02 -0.57662009936E+01  0.38756302981E+03  0.39274033335E+03  0.00000000000E+00 0. -1.
         22    1    3    3    0    0 -0.16175791317E+02  0.68385692285E+02  0.10582475936E+04  0.10605782519E+04  0.00000000000E+00 0. -1.
</event>
<event>
 7    1  0.6058736E-006  0.9094408E+02  0.7818608E-02  0.1405012E+00
          2   -1    0    0  502    0  0.00000000000E+00  0.00000000000E+00  0.44579792034E+03  0.44579792034E+03  0.00000000000E+00 0. -1.
          1   -1    0    0  501    0 -0.00000000000E+00 -0.00000000000E+00 -0.12359824553E+04  0.12359824553E+04  0.00000000000E+00 0. -1.
         25    2    1    2    0    0 -0.94821081090E+02 -0.42086734747E+02 -0.81965327815E+03  0.83559495423E+03  0.12500040198E+03 0.  0.
          2    1    1    2  501    0  0.61763685877E+02  0.59581731101E+02 -0.40303358193E+03  0.41206893080E+03  0.00000000000E+00 0. -1.
          1    1    1    2  502    0  0.33057395213E+02 -0.17494996354E+02  0.43250232506E+03  0.43411649066E+03  0.00000000000E+00 0. -1.
         22    1    3    3    0    0  0.28429890158E+02 -0.13772172753E+02 -0.98628541508E+02  0.10356408932E+03  0.00000000000E+00 0.  1.
         22    1    3    3    0    0 -0.12325097125E+03 -0.28314561994E+02 -0.72102473664E+03  0.73203086491E+03  0.00000000000E+00 0.  1.
</event>
<event>
 7    1  0.6058736E-006  0.4239848E+02  0.7818608E-02  0.1513248E+00
          2   -1    0    0  502    0  0.00000000000E+00  0.00000000000E+00  0.18873188468E+04  0.18873188468E+04  0.00000000000E+00 0. -1.
          1   -1    0    0  501    0 -0.00000000000E+00 -0.00000000000E+00 -0.50440027876E+03  0.50440027876E+03  0.00000000000E+00 0. -1.
         25    2    1    2    0    0 -0.68623439729E+02  0.35218321042E+02 -0.67144522296E+02  0.16151686623E+03  0.12501921686E+03 0.  0.
          2    1    1    2  501    0  0.35320189988E+02 -0.90934548170E+01 -0.38897298609E+03  0.39067914028E+03  0.00000000000E+00 0. -1.
          1    1    1    2  502    0  0.33303249741E+02 -0.26124866225E+02  0.18390360764E+04  0.18395231190E+04  0.00000000000E+00 0. -1.
         22    1    3    3    0    0 -0.78912514770E+02  0.50692986289E+02 -0.91399667534E+02  0.13096130372E+03  0.00000000000E+00 0. -1.
         22    1    3    3    0    0  0.10289075041E+02 -0.15474665247E+02  0.24255145239E+02  0.30555562509E+02  0.00000000000E+00 0. -1.
</event>
<event>
 7    1  0.6058736E-006  0.8466703E+02  0.7818608E-02  0.1347726E+00
          2   -1    0    0  502    0  0.00000000000E+00  0.00000000000E+00  0.13343168619E+04  0.13343168619E+04  0.00000000000E+00 0. -1.
          1   -1    0    0  501    0 -0.00000000000E+00 -0.00000000000E+00 -0.50946732975E+02  0.50946732975E+02  0.00000000000E+00 0. -1.
         25    2    1    2    0    0 -0.12710224325E+03 -0.64477616838E+02  0.31395100742E+03  0.36674507036E+03  0.12499747302E+03 0.  0.
          2    1    1    2  501    0  0.49620866358E+02  0.40852275624E+02  0.22435960249E+02  0.68077243732E+02  0.00000000000E+00 0. -1.
          1    1    1    2  502    0  0.77481376890E+02  0.23625341214E+02  0.94698316126E+03  0.95044128078E+03  0.00000000000E+00 0. -1.
         22    1    3    3    0    0 -0.75013483999E+02 -0.99355814736E+02  0.18007574619E+03  0.21891979141E+03  0.00000000000E+00 0.  1.
         22    1    3    3    0    0 -0.52088759249E+02  0.34878197898E+02  0.13387526123E+03  0.14782527896E+03  0.00000000000E+00 0.  1.
</event>
<event>
 7    1  0.6156182E-006  0.7808613E+02  0.7818608E-02  0.1494023E+00
          2   -1    0    0  502    0  0.00000000000E+00  0.00000000000E+00  0.14710601220E+04  0.14710601220E+04  0.00000000000E+00 0. -1.
          1   -1    0    0  501    0 -0.00000000000E+00 -0.00000000000E+00 -0.62252680404E+03  0.62252680404E+03  0.00000000000E+00 0. -1.
         25    2    1    2    0    0 -0.92598740588E+02 -0.11121416101E+02 -0.18896939850E+03  0.24501666727E+03  0.12500208405E+03 0.  0.
          2    1    1    2  501    0  0.14803877380E+02  0.17056772664E+02 -0.40416367199E+03  0.40479422184E+03  0.00000000000E+00 0. -1.
          1    1    1    2  502    0  0.77794863208E+02 -0.59353565636E+01  0.14416663885E+04  0.14437760369E+04  0.00000000000E+00 0. -1.
         22    1    3    3    0    0  0.23739881394E+02  0.37043743082E+01 -0.84854595858E+02  0.88190740987E+02  0.00000000000E+00 0. -1.
         22    1    3    3    0    0 -0.11633862198E+03 -0.14825790409E+02 -0.10411480264E+03  0.15682592628E+03  0.00000000000E+00 0. -1.
</event>
<event>
 7    1  0.6058736E-006  0.8964626E+02  0.7818608E-02  0.1317511E+00
          2   -1    0    0  502    0  0.00000000000E+00  0.00000000000E+00  0.14848495072E+04  0.14848495072E+04  0.00000000000E+00 0. -1.
          1   -1    0    0  501    0 -0.00000000000E+00 -0.00000000000E+00 -0.45194396955E+02  0.45194396955E+02  0.00000000000E+00 0. -1.
         25    2    1    2    0    0  0.61523312902E+02 -0.11143211111E+03  0.75451941741E+03  0.77532304467E+03  0.12499615565E+03 0.  0.
          2    1    1    2  501    0 -0.74185673627E+02  0.27458061341E+02  0.16618057956E+02  0.80830805726E+02  0.00000000000E+00 0. -1.
          1    1    1    2  502    0  0.12662360724E+02  0.83974049772E+02  0.66851763490E+03  0.67389005378E+03  0.00000000000E+00 0. -1.
         22    1    3    3    0    0  0.48889276449E+02 -0.69514320273E+02  0.17909739892E+03  0.19823793879E+03  0.00000000000E+00 0. -1.
         22    1    3    3    0    0  0.12634036453E+02 -0.41917790840E+02  0.57542201850E+03  0.57708510589E+03  0.00000000000E+00 0. -1.
</event>
<event>
 7    1  0.6058736E-006  0.7806018E+02  0.7818608E-02  0.1435795E+00
          2   -1    0    0  502    0  0.00000000000E+00  0.00000000000E+00  0.25438892816E+03  0.25438892816E+03  0.00000000000E+00 0. -1.
          1   -1    0    0  501    0 -0.00000000000E+00 -0.00000000000E+00 -0.46473917641E+03  0.46473917641E+03  0.00000000000E+00 0. -1.
         25    2    1    2    0    0 -0.68140391452E+02 -0.67976404687E+02 -0.22574732663E+03  0.27541026390E+03  0.12500021376E+03 0.  0.
          2    1    1    2  501    0  0.34334409218E+02 -0.20038754442E+01 -0.20611647418E+03  0.20896618890E+03  0.00000000000E+00 0. -1.
          1    1    1    2  502    0  0.33805982234E+02  0.69980280131E+02  0.22151355257E+03  0.23475165178E+03  0.00000000000E+00 0. -1.
         22    1    3    3    0    0 -0.24315602913E+02 -0.38550714224E+01 -0.18700146768E+03  0.18861510818E+03  0.00000000000E+00 0. -1.
         22    1    3    3    0    0 -0.43824788539E+02 -0.64121333265E+02 -0.38745858950E+02  0.86795155717E+02  0.00000000000E+00 0. -1.
</event>
<event>
 7    1  0.6058736E-006  0.9929149E+02  0.7818608E-02  0.1345252E+00
          2   -1    0    0  502    0  0.00000000000E+00  0.00000000000E+00  0.73356707724E+02  0.73356707724E+02  0.00000000000E+00 0. -1.
          1   -1    0    0  501    0 -0.00000000000E+00 -0.00000000000E+00 -0.93799112825E+03  0.93799112825E+03  0.00000000000E+00 0. -1.
         25    2    1    2    0    0  0.12663937280E+03 -0.66773536240E+02 -0.23001874804E+03  0.29837863823E+03  0.12499980568E+03 0.  0.
          2    1    1    2  501    0 -0.40493716611E+02  0.38655957098E+02 -0.61837888030E+03  0.62090777392E+03  0.00000000000E+00 0. -1.
          1    1    1    2  502    0 -0.86145656186E+02  0.28117579142E+02 -0.16236792185E+02  0.92061423827E+02  0.00000000000E+00 0. -1.
         22    1    3    3    0    0  0.53019646079E+02 -0.96895823427E+02 -0.13737124709E+03  0.17626895074E+03  0.00000000000E+00 0.  1.
         22    1    3    3    0    0  0.73619726718E+02  0.30122287187E+02 -0.92647500951E+02  0.12210968749E+03  0.00000000000E+00 0.  1.
</event>
<event>
 7    1  0.6058736E-006  0.1447954E+03  0.7818608E-02  0.1292166E+00
          2   -1    0    0  502    0  0.00000000000E+00  0.00000000000E+00  0.17663201658E+04  0.17663201658E+04  0.00000000000E+00 0. -1.
          1   -1    0    0  501    0 -0.00000000000E+00 -0.00000000000E+00 -0.24167737338E+04  0.24167737338E+04  0.00000000000E+00 0. -1.
         25    2    1    2    0    0  0.16587460492E+03  0.97547137260E+01 -0.22287673269E+03  0.30480778619E+03  0.12499683816E+03 0.  0.
          2    1    1    2  501    0 -0.13702242240E+03  0.44846975090E+02 -0.21499637378E+04  0.21547924422E+04  0.00000000000E+00 0. -1.
          1    1    1    2  502    0 -0.28852182522E+02 -0.54601688816E+02  0.17223869024E+04  0.17234936712E+04  0.00000000000E+00 0. -1.
         22    1    3    3    0    0  0.71444311123E+02  0.63191816493E+02 -0.74688043776E+02  0.12114371278E+03  0.00000000000E+00 0.  1.
         22    1    3    3    0    0  0.94430293799E+02 -0.53437102767E+02 -0.14818868891E+03  0.18366407341E+03  0.00000000000E+00 0.  1.
</event>
<event>
 7    1  0.6058736E-006  0.1023915E+03  0.7818608E-02  0.1301513E+00
          2   -1    0    0  502    0  0.00000000000E+00  0.00000000000E+00  0.90691178206E+03  0.90691178206E+03  0.00000000000E+00 0. -1.
          1   -1    0    0  501    0 -0.00000000000E+00 -0.00000000000E+00 -0.94643364915E+03  0.94643364915E+03  0.00000000000E+00 0. -1.
         25    2    1    2    0    0 -0.37025670576E+02  0.99668781262E+02  0.44465347111E+03  0.47396822566E+03  0.12499761329E+03 0.  0.
          2    1    1    2  501    0 -0.42799974002E+02 -0.93201084154E+02 -0.92533797414E+03  0.93100410646E+03  0.00000000000E+00 0. -1.
          1    1    1    2  502    0  0.79825644579E+02 -0.64676971079E+01  0.44116263593E+03  0.44837309908E+03  0.00000000000E+00 0. -1.
         22    1    3    3    0    0 -0.55807739284E+02  0.54388504358E+02  0.40044597207E+03  0.40795782835E+03  0.00000000000E+00 0.  1.
         22    1    3    3    0    0  0.18782068708E+02  0.45280276904E+02  0.44207499045E+02  0.66010397312E+02  0.00000000000E+00 0.  1.
</event>
<event>
 7    1  0.6058736E-006  0.1245325E+03  0.7818608E-02  0.1240988E+00
          2   -1    0    0  502    0  0.00000000000E+00  0.00000000000E+00  0.23132634248E+04  0.23132634248E+04  0.00000000000E+00 0. -1.
          1   -1    0    0  501    0 -0.00000000000E+00 -0.00000000000E+00 -0.20443481751E+04  0.20443481751E+04  0.00000000000E+00 0. -1.
         25    2    1    2    0    0  0.26560293891E+02 -0.14437158004E+03  0.16436624759E+03  0.25335905625E+03  0.12500378277E+03 0.  0.
          2    1    1    2  501    0  0.80815193081E+02  0.95130962760E+02 -0.19962431151E+04  0.20001418875E+04  0.00000000000E+00 0. -1.
          1    1    1    2  502    0 -0.10737548697E+03  0.49240617275E+02  0.21007921172E+04  0.21041106561E+04  0.00000000000E+00 0. -1.
         22    1    3    3    0    0  0.14139567288E+02 -0.75782233209E+02  0.25095246415E+01  0.77130875446E+02  0.00000000000E+00 0. -1.
         22    1    3    3    0    0  0.12420726603E+02 -0.68589346826E+02  0.16185672295E+03  0.17622818081E+03  0.00000000000E+00 0. -1.
</event>
<event>
 7    1  0.6058736E-006  0.6107966E+02  0.7818608E-02  0.1471821E+00
          2   -1    0    0  502    0  0.00000000000E+00  0.00000000000E+00  0.11509444138E+03  0.11509444138E+03  0.00000000000E+00 0. -1.
          1   -1    0    0  501    0 -0.00000000000E+00 -0.00000000000E+00 -0.48472772182E+03  0.48472772182E+03  0.00000000000E+00 0. -1.
         25    2    1    2    0    0 -0.35607182141E+01 -0.79255534004E+02 -0.16335319220E+03  0.22045523906E+03  0.12498851404E+03 0.  0.
          2    1    1    2  501    0  0.24927146421E+02  0.22760030165E+02 -0.28115077296E+03  0.28316980548E+03  0.00000000000E+00 0. -1.
          1    1    1    2  502    0 -0.21366428207E+02  0.56495503839E+02  0.74870684723E+02  0.96197118663E+02  0.00000000000E+00 0. -1.
         22    1    3    3    0    0  0.48937400231E+02 -0.23275130881E+02 -0.19835818673E+02  0.57706676921E+02  0.00000000000E+00 0.  1.
         22    1    3    3    0    0 -0.52498118445E+02 -0.55980403123E+02 -0.14351737353E+03  0.16274856214E+03  0.00000000000E+00 0.  1.
</event>
<event>
 7    1  0.6058736E-006  0.4616576E+02  0.7818608E-02  0.1509793E+00
          2   -1    0    0  502    0  0.00000000000E+00  0.00000000000E+00  0.54249794435E+02  0.54249794435E+02  0.00000000000E+00 0. -1.
          1   -1    0    0  501    0 -0.00000000000E+00 -0.00000000000E+00 -0.21859488110E+04  0.21859488110E+04  0.00000000000E+00 0. -1.
         25    2    1    2    0    0  0.20808741331E+02  0.40893689225E+02 -0.17279919503E+04  0.17331152405E+04  0.12500783498E+03 0.  0.
          2    1    1    2  501    0 -0.47037936879E+02 -0.18810356467E+02 -0.44812030074E+03  0.45097472318E+03  0.00000000000E+00 0. -1.
          1    1    1    2  502    0  0.26229195548E+02 -0.22083332758E+02  0.44413234498E+02  0.56108641788E+02  0.00000000000E+00 0. -1.
         22    1    3    3    0    0  0.67047272893E+02 -0.53316870881E+01 -0.79950127080E+03  0.80232539889E+03  0.00000000000E+00 0. -1.
         22    1    3    3    0    0 -0.46238531562E+02  0.46225376313E+02 -0.92849067954E+03  0.93078984159E+03  0.00000000000E+00 0. -1.
</event>
<event>
 7    1  0.6058736E-006  0.6772441E+02  0.7818608E-02  0.1501361E+00
          2   -1    0    0  502    0  0.00000000000E+00  0.00000000000E+00  0.20229986190E+03  0.20229986190E+03  0.00000000000E+00 0. -1.
          1   -1    0    0  501    0 -0.00000000000E+00 -0.00000000000E+00 -0.13358448486E+04  0.13358448486E+04  0.00000000000E+00 0. -1.
         25    2    1    2    0    0  0.69771496975E+02 -0.18862306039E+02 -0.25108781119E+03  0.28964342972E+03  0.12499751627E+03 0.  0.
          2    1    1    2  501    0 -0.23013311194E+01  0.24648920348E+02 -0.10590657483E+04  0.10593550512E+04  0.00000000000E+00 0. -1.
          1    1    1    2  502    0 -0.67470165856E+02 -0.57866143093E+01  0.17660857276E+03  0.18914622956E+03  0.00000000000E+00 0. -1.
         22    1    3    3    0    0  0.33052031139E+02 -0.59378862031E+02 -0.59234103257E+02  0.90149681126E+02  0.00000000000E+00 0. -1.
         22    1    3    3    0    0  0.36719465836E+02  0.40516555992E+02 -0.19185370793E+03  0.19949374859E+03  0.00000000000E+00 0. -1.
</event>
<event>
 7    1  0.6058736E-006  0.2229341E+03  0.7818608E-02  0.1218728E+00
          2   -1    0    0  502    0  0.00000000000E+00  0.00000000000E+00  0.70431269766E+03  0.70431269766E+03  0.00000000000E+00 0. -1.
          1   -1    0    0  501    0 -0.00000000000E+00 -0.00000000000E+00 -0.30036387934E+03  0.30036387934E+03  0.00000000000E+00 0. -1.
         25    2    1    2    0    0 -0.90513656860E+02 -0.18038923683E+03 -0.67564296051E+02  0.24682576962E+03  0.12500011041E+03 0.  0.
          2    1    1    2  501    0  0.17322059714E+03  0.18784203665E+03 -0.22871251638E+02  0.25654064036E+03  0.00000000000E+00 0. -1.
          1    1    1    2  502    0 -0.82706940280E+02 -0.74527998219E+01  0.49438436602E+03  0.50131016702E+03  0.00000000000E+00 0. -1.
         22    1    3    3    0    0 -0.24331406918E+02 -0.12130507749E+03 -0.92720610386E+02  0.15460934894E+03  0.00000000000E+00 0.  1.
         22    1    3    3    0    0 -0.66182249943E+02 -0.59084159338E+02  0.25156314335E+02  0.92216420680E+02  0.00000000000E+00 0.  1.
</event>
<event>
 7    1  0.6058736E-006  0.9652538E+02  0.7818608E-02  0.1310310E+00
          2   -1    0    0  502    0  0.00000000000E+00  0.00000000000E+00  0.11234944858E+04  0.11234944858E+04  0.00000000000E+00 0. -1.
          1   -1    0    0  501    0 -0.00000000000E+00 -0.00000000000E+00 -0.54656602132E+03  0.54656602132E+03  0.00000000000E+00 0. -1.
         25    2    1    2    0    0 -0.28929795084E+01 -0.12946282669E+03  0.93632504512E+02  0.20288290337E+03  0.12500173501E+03 0.  0.
          2    1    1    2  501    0 -0.56786625980E+02  0.54047591431E+02 -0.48642372677E+03  0.49270062410E+03  0.00000000000E+00 0. -1.
          1    1    1    2  502    0  0.59679605488E+02  0.75415235260E+02  0.96971968675E+03  0.97447697966E+03  0.00000000000E+00 0. -1.
         22    1    3    3    0    0 -0.57733259637E+02 -0.30911365205E+02  0.21154058674E+02  0.68819589984E+02  0.00000000000E+00 0.  1.
         22    1    3    3    0    0  0.54840280129E+02 -0.98551461485E+02  0.72478445838E+02  0.13406331339E+03  0.00000000000E+00 0.  1.
</event>
<event>
 7    1  0.6058736E-006  0.1129128E+03  0.7818608E-02  0.1300266E+00
          2   -1    0    0  502    0  0.00000000000E+00  0.00000000000E+00  0.55737844688E+03  0.55737844688E+03  0.00000000000E+00 0. -1.
          1   -1    0    0  501    0 -0.00000000000E+00 -0.00000000000E+00 -0.51107719871E+03  0.51107719871E+03  0.00000000000E+00 0. -1.
         25    2    1    2    0    0  0.14606451724E+03  0.68036873735E+02 -0.62357070259E+01  0.20403154060E+03  0.12500450446E+03 0.  0.
          2    1    1    2  501    0 -0.73875729792E+02 -0.81657639534E+02 -0.39542876768E+03  0.41047472987E+03  0.00000000000E+00 0. -1.
          1    1    1    2  502    0 -0.72188787449E+02  0.13620765799E+02  0.44796572288E+03  0.45394937512E+03  0.00000000000E+00 0. -1.
         22    1    3    3    0    0  0.10566895326E+03  0.10515449577E+03 -0.49596987592E+01  0.14915761554E+03  0.00000000000E+00 0. -1.
         22    1    3    3    0    0  0.40395563979E+02 -0.37117622030E+02 -0.12760082668E+01  0.54873925059E+02  0.00000000000E+00 0. -1.
</event>
<event>
 7    1  0.6058736E-006  0.1338107E+03  0.7818608E-02  0.1227283E+00
          2   -1    0    0  502    0  0.00000000000E+00  0.00000000000E+00  0.16169317879E+04  0.16169317879E+04  0.00000000000E+00 0. -1.
          1   -1    0    0  501    0 -0.00000000000E+00 -0.00000000000E+00 -0.10364371118E+04  0.10364371118E+04  0.00000000000E+00 0. -1.
         25    2    1    2    0    0 -0.96622105357E+02  0.18517451521E+03  0.32991107230E+03  0.40998965486E+03  0.12499907654E+03 0.  0.
          2    1    1    2  501    0  0.11879436346E+03 -0.60608290933E+02 -0.98869992245E+03  0.99765374873E+03  0.00000000000E+00 0. -1.
          1    1    1    2  502    0 -0.22172258104E+02 -0.12456622428E+03  0.12392835263E+04  0.12457254961E+04  0.00000000000E+00 0. -1.
         22    1    3    3    0    0 -0.40350270333E+02  0.12156174313E+03  0.92916612794E+02  0.15823684350E+03  0.00000000000E+00 0.  1.
         22    1    3    3    0    0 -0.56271835024E+02  0.63612772083E+02  0.23699445951E+03  0.25175281136E+03  0.00000000000E+00 0.  1.
</event>
<event>
 7    1  0.6058736E-006  0.1378575E+03  0.7818608E-02  0.1266660E+00
          2   -1    0    0  502    0  0.00000000000E+00  0.00000000000E+00  0.12253496016E+04  0.12253496016E+04  0.00000000000E+00 0. -1.
          1   -1    0    0  501    0 -0.00000000000E+00 -0.00000000000E+00 -0.17811649719E+04  0.17811649719E+04  0.00000000000E+00 0. -1.
         25    2    1    2    0    0  0.93430134686E+02  0.19829397964E+03 -0.89939146482E+03  0.93411944468E+03  0.12499775005E+03 0.  0.
          2    1    1    2  501    0 -0.25748616089E+02 -0.78590916458E+02 -0.85850250716E+03  0.86247671167E+03  0.00000000000E+00 0. -1.
          1    1    1    2  502    0 -0.67681518597E+02 -0.11970306318E+03  0.12020786018E+04  0.12099184171E+04  0.00000000000E+00 0. -1.
         22    1    3    3    0    0 -0.29860945693E+02  0.60155634623E+02 -0.24482990728E+03  0.25387410256E+03  0.00000000000E+00 0.  1.
         22    1    3    3    0    0  0.12329108038E+03  0.13813834502E+03 -0.65456155754E+03  0.68024534212E+03  0.00000000000E+00 0.  1.
</event>
<event>
 7    1  0.6058736E-006  0.3879188E+02  0.7818608E-02  0.1557921E+00
          2   -1    0    0  502    0  0.00000000000E+00  0.00000000000E+00  0.12520608985E+04  0.12520608985E+04  0.00000000000E+00 0. -1.
          1   -1    0    0  501    0 -0.00000000000E+00 -0.00000000000E+00 -0.11455883491E+03  0.11455883491E+03  0.00000000000E+00 0. -1.
         25    2    1    2    0    0  0.32373766350E+02 -0.36189539478E+02  0.66558527938E+03  0.67895869365E+03  0.12499359998E+03 0.  0.
          2    1    1    2  501    0 -0.27282828547E+01  0.38697680875E+02 -0.10398786329E+03  0.11098842166E+03  0.00000000000E+00 0. -1.
          1    1    1    2  502    0 -0.29645483495E+02 -0.25081413970E+01  0.57590464747E+03  0.57667261808E+03  0.00000000000E+00 0. -1.
         22    1    3    3    0    0 -0.15195061471E+02  0.40594628195E+02  0.19131594151E+03  0.19616473487E+03  0.00000000000E+00 0. -1.
         22    1    3    3    0    0  0.47568827821E+02 -0.76784167673E+02  0.47426933787E+03  0.48279395877E+03  0.00000000000E+00 0. -1.
</event>
<event>
 7    1  0.6058736E-006  0.3989615E+02  0.7818608E-02  0.1555392E+00
          2   -1    0    0  502    0  0.00000000000E+00  0.00000000000E+00  0.15987324704E+04  0.15987324704E+04  0.00000000000E+00 0. -1.
          1   -1    0    0  501    0 -0.00000000000E+00 -0.00000000000E+00 -0.11483037318E+03  0.11483037318E+03  0.00000000000E+00 0. -1.
         25    2    1    2    0    0  0.46623055795E+02  0.42269901186E+02  0.12963215910E+04  0.13038539277E+04  0.12499977458E+03 0.  0.
          2    1    1    2  501    0 -0.19004988062E+02 -0.22428332876E+02 -0.10812718816E+03  0.11205225792E+03  0.00000000000E+00 0. -1.
          1    1    1    2  502    0 -0.27618067733E+02 -0.19841568310E+02  0.29570769432E+03  0.29765665787E+03  0.00000000000E+00 0. -1.
         22    1    3    3    0    0  0.29709387528E+02  0.65281215294E+02  0.12239742121E+04  0.12260738790E+04  0.00000000000E+00 0.  1.
         22    1    3    3    0    0  0.16913668267E+02 -0.23011314108E+02  0.72347378934E+02  0.77780048791E+02  0.00000000000E+00 0.  1.
</event>
<event>
 7    1  0.6132749E-006  0.5793405E+02  0.7818608E-02  0.1447648E+00
          2   -1    0    0  502    0  0.00000000000E+00  0.00000000000E+00  0.17798135136E+04  0.17798135136E+04  0.00000000000E+00 0. -1.
          1   -1    0    0  501    0 -0.00000000000E+00 -0.00000000000E+00 -0.40543823563E+03  0.40543823563E+03  0.00000000000E+00 0. -1.
         25    2    1    2    0    0 -0.57170591628E+02  0.26974951494E+02 -0.18255880510E+03  0.23010758144E+03  0.12500262862E+03 0.  0.
          2    1    1    2  501    0  0.13042507237E+01 -0.42401806424E+02 -0.19636113624E+03  0.20089128922E+03  0.00000000000E+00 0. -1.
          1    1    1    2  502    0  0.55866340905E+02  0.15426854930E+02  0.17532952193E+04  0.17542528785E+04  0.00000000000E+00 0. -1.
         22    1    3    3    0    0  0.27157490667E+02 -0.11796824285E+02 -0.10518275667E+03  0.10927079511E+03  0.00000000000E+00 0.  1.
         22    1    3    3    0    0 -0.84328082296E+02  0.38771775779E+02 -0.77376048432E+02  0.12083678633E+03  0.00000000000E+00 0.  1.
</event>
<event>
 7    1  0.6058736E-006  0.5542750E+02  0.7818608E-02  0.1452915E+00
          2   -1    0    0  502    0  0.00000000000E+00  0.00000000000E+00  0.35474921428E+03  0.35474921428E+03  0.00000000000E+00 0. -1.
          1   -1    0    0  501    0 -0.00000000000E+00 -0.00000000000E+00 -0.75630800469E+03  0.75630800469E+03  0.00000000000E+00 0. -1.
         25    2    1    2    0    0  0.50854370418E+02  0.14998723852E+02 -0.32998819306E+03  0.35683022281E+03  0.12499788655E+03 0.  0.
          2    1    1    2  501    0 -0.26301229382E+01 -0.42572044618E+02 -0.40952362686E+03  0.41173887050E+03  0.00000000000E+00 0. -1.
          1    1    1    2  502    0 -0.48224247480E+02  0.27573320766E+02  0.33795302951E+03  0.34248812566E+03  0.00000000000E+00 0. -1.
         22    1    3    3    0    0  0.73354247065E+02 -0.14540201320E+02 -0.29976787652E+03  0.30895475851E+03  0.00000000000E+00 0.  1.
         22    1    3    3    0    0 -0.22499876647E+02  0.29538925172E+02 -0.30220316548E+02  0.47875464298E+02  0.00000000000E+00 0.  1.
</event>
<event>
 7    1  0.6058736E-006  0.1098237E+03  0.7818608E-02  0.1437156E+00
          2   -1    0    0  502    0  0.00000000000E+00  0.00000000000E+00  0.42000654526E+02  0.42000654526E+02  0.00000000000E+00 0. -1.
          1   -1    0    0  501    0 -0.00000000000E+00 -0.00000000000E+00 -0.19319083425E+04  0.19319083425E+04  0.00000000000E+00 0. -1.
         25    2    1    2    0    0  0.12700911895E+03 -0.27308096173E+02 -0.70071293901E+03  0.72353322037E+03  0.12499859867E+03 0.  0.
          2    1    1    2  501    0 -0.20873289258E+02  0.12239402760E+02 -0.11253371883E+04  0.11255973013E+04  0.00000000000E+00 0. -1.
          1    1    1    2  502    0 -0.10613582969E+03  0.15068693412E+02 -0.63857560593E+02  0.12477847535E+03  0.00000000000E+00 0. -1.
         22    1    3    3    0    0  0.88333633983E+01 -0.28919161507E+02 -0.38889473631E+03  0.39006853518E+03  0.00000000000E+00 0. -1.
         22    1    3    3    0    0  0.11817575555E+03  0.16110653341E+01 -0.31181820271E+03  0.33346468519E+03  0.00000000000E+00 0. -1.
</event>
<event>
 7    1  0.6058736E-006  0.1029256E+03  0.7818608E-02  0.1351297E+00
          2   -1    0    0  502    0  0.00000000000E+00  0.00000000000E+00  0.37626812002E+03  0.37626812002E+03  0.00000000000E+00 0. -1.
          1   -1    0    0  501    0 -0.00000000000E+00 -0.00000000000E+00 -0.22666967005E+04  0.22666967005E+04  0.00000000000E+00 0. -1.
         25    2    1    2    0    0 -0.66533182404E+02  0.12177754904E+02  0.81138459361E+02  0.16365538079E+03  0.12499868799E+03 0.  0.
          2    1    1    2  501    0 -0.38051764148E+02  0.34381935413E+02 -0.22122199660E+04  0.22128143240E+04  0.00000000000E+00 0. -1.
          1    1    1    2  502    0  0.10458494655E+03 -0.46559690317E+02  0.24065292622E+03  0.26649511572E+03  0.00000000000E+00 0. -1.
         22    1    3    3    0    0 -0.30453715535E+02  0.60770977984E+02  0.75760676926E+01  0.68395448363E+02  0.00000000000E+00 0. -1.
         22    1    3    3    0    0 -0.36079466869E+02 -0.48593223080E+02  0.73562391668E+02  0.95259932431E+02  0.00000000000E+00 0. -1.
</event>
<event>
 7    1  0.6058736E-006  0.3908700E+02  0.7818608E-02  0.1575155E+00
          2   -1    0    0  502    0  0.00000000000E+00  0.00000000000E+00  0.54004385208E+03  0.54004385208E+03  0.00000000000E+00 0. -1.
          1   -1    0    0  501    0 -0.00000000000E+00 -0.00000000000E+00 -0.60381073314E+03  0.60381073314E+03  0.00000000000E+00 0. -1.
         25    2    1    2    0    0 -0.11575681446E+02 -0.31410148113E+02  0.22061804535E+03  0.25576926688E+03  0.12500000855E+03 0.  0.
          2    1    1    2  501    0  0.34591328838E+02  0.18283099698E+02 -0.58499894116E+03  0.58630588682E+03  0.00000000000E+00 0. -1.
          1    1    1    2  502    0 -0.23015647392E+02  0.13127048415E+02  0.30061401475E+03  0.30177943152E+03  0.00000000000E+00 0. -1.
         22    1    3    3    0    0 -0.55346881046E+02 -0.29524349379E+02  0.51780484426E+02  0.81339922641E+02  0.00000000000E+00 0. -1.
         22    1    3    3    0    0  0.43771199599E+02 -0.18857987339E+01  0.16883756093E+03  0.17442934424E+03  0.00000000000E+00 0. -1.
</event>
<event>
 7    1  0.6058736E-006  0.5180738E+02  0.7818608E-02  0.1459678E+00
          2   -1    0    0  502    0  0.00000000000E+00  0.00000000000E+00  0.23412923331E+03  0.23412923331E+03  0.00000000000E+00 0. -1.
          1   -1    0    0  501    0 -0.00000000000E+00 -0.00000000000E+00 -0.68572504835E+03  0.68572504835E+03  0.00000000000E+00 0. -1.
         25    2    1    2    0    0  0.18323082784E+02 -0.70263530568E+02  0.29931843175E+02  0.14762461076E+03  0.12499764548E+03 0.  0.
          2    1    1    2  501    0  0.21293259051E+02  0.37857745916E+02 -0.62159156383E+03  0.62310728132E+03  0.00000000000E+00 0. -1.
          1    1    1    2  502    0 -0.39616341835E+02  0.32405784652E+02  0.14006390562E+03  0.14912238959E+03  0.00000000000E+00 0. -1.
         22    1    3    3    0    0  0.28534932631E+02  0.53492160425E+01 -0.36374574465E+02  0.46539941555E+02  0.00000000000E+00 0. -1.
         22    1    3    3    0    0 -0.10211849846E+02 -0.75612746611E+02  0.66306417640E+02  0.10108466920E+03  0.00000000000E+00 0. -1.
</event>
<event>
 7    1  0.6058736E-006  0.6469607E+02  0.7818608E-02  0.1393144E+00
          2   -1    0    0  502    0  0.00000000000E+00  0.00000000000E+00  0.66663018184E+02  0.66663018184E+02  0.00000000000E+00 0. -1.
          1   -1    0    0  501    0 -0.00000000000E+00 -0.00000000000E+00 -0.11635421865E+04  0.11635421865E+04  0.00000000000E+00 0. -1.
         25    2    1    2    0    0  0.16845438759E+01  0.32398954973E+02 -0.67374083576E+03  0.68600661032E+03  0.12500330259E+03 0.  0.
          2    1    1    2  501    0 -0.34673164539E+02 -0.79815494255E+02 -0.46486544872E+03  0.47294040520E+03  0.00000000000E+00 0. -1.
          1    1    1    2  502    0  0.32988620663E+02  0.47416539281E+02  0.41727116201E+02  0.71258189123E+02  0.00000000000E+00 0. -1.
         22    1    3    3    0    0 -0.25184521554E+02  0.93385322205E+01 -0.62596053911E+03  0.62653656305E+03  0.00000000000E+00 0.  1.
         22    1    3    3    0    0  0.26869065430E+02  0.23060422753E+02 -0.47780296645E+02  0.59470047269E+02  0.00000000000E+00 0.  1.
</event>
<event>
 7    1  0.6058736E-006  0.7466344E+02  0.7818608E-02  0.1361132E+00
          2   -1    0    0  502    0  0.00000000000E+00  0.00000000000E+00  0.34862002877E+03  0.34862002877E+03  0.00000000000E+00 0. -1.
          1   -1    0    0  501    0 -0.00000000000E+00 -0.00000000000E+00 -0.80905845848E+03  0.80905845848E+03  0.00000000000E+00 0. -1.
         25    2    1    2    0    0 -0.86034518921E+01  0.17865453717E+02  0.89880301271E+02  0.15521997532E+03  0.12498631270E+03 0.  0.
          2    1    1    2  501    0  0.73656210041E+02 -0.17049632265E+02 -0.76981760800E+03  0.77352121937E+03  0.00000000000E+00 0. -1.
          1    1    1    2  502    0 -0.65052758149E+02 -0.81582145283E+00  0.21949887702E+03  0.22893729255E+03  0.00000000000E+00 0. -1.
         22    1    3    3    0    0 -0.41688125045E+02 -0.32976091744E+02  0.76416923315E+02  0.93085275771E+02  0.00000000000E+00 0.  1.
         22    1    3    3    0    0  0.33084673152E+02  0.50841545462E+02  0.13463377956E+02  0.62134699553E+02  0.00000000000E+00 0.  1.
</event>
<event>
 7    1  0.6058736E-006  0.6686405E+02  0.7818608E-02  0.1461631E+00
          2   -1    0    0  502    0  0.00000000000E+00  0.00000000000E+00  0.47058168628E+03  0.47058168628E+03  0.00000000000E+00 0. -1.
          1   -1    0    0  501    0 -0.00000000000E+00 -0.00000000000E+00 -0.13340694882E+03  0.13340694882E+03  0.00000000000E+00 0. -1.
         25    2    1    2    0    0 -0.12502174184E+02 -0.63637803799E+02  0.54183611877E+02  0.15088765841E+03  0.12500058893E+03 0.  0.
          2    1    1    2  501    0  0.33175091356E+02 -0.60632449564E+00 -0.78573274443E+02  0.85291932635E+02  0.00000000000E+00 0. -1.
          1    1    1    2  502    0 -0.20672917172E+02  0.64244128294E+02  0.36156440003E+03  0.36780904406E+03  0.00000000000E+00 0. -1.
         22    1    3    3    0    0 -0.57334958333E+02 -0.72093693532E+02  0.21009869744E+02  0.94478636319E+02  0.00000000000E+00 0.  1.
         22    1    3    3    0    0  0.44832784149E+02  0.84558897330E+01  0.33173742133E+02  0.56409022087E+02  0.00000000000E+00 0.  1.
</event>
<event>
 7    1  0.6058736E-006  0.1469217E+03  0.7818608E-02  0.1297256E+00
          2   -1    0    0  502    0  0.00000000000E+00  0.00000000000E+00  0.69361394713E+03  0.69361394713E+03  0.00000000000E+00 0. -1.
          1   -1    0    0  501    0 -0.00000000000E+00 -0.00000000000E+00 -0.11207884727E+04  0.11207884727E+04  0.00000000000E+00 0. -1.
         25    2    1    2    0    0  0.10158440535E+03 -0.86190206658E+02  0.17061577482E+02  0.18347787571E+03  0.12499956127E+03 0.  0.
          2    1    1    2  501    0  0.41001332071E+02  0.41093245583E+02 -0.10273248713E+04  0.10289636317E+04  0.00000000000E+00 0. -1.
          1    1    1    2  502    0 -0.14258573742E+03  0.45096961075E+02  0.58308876828E+03  0.60196091244E+03  0.00000000000E+00 0. -1.
         22    1    3    3    0    0  0.80048914281E+02 -0.50514525573E+01 -0.31872607622E+02  0.86308800056E+02  0.00000000000E+00 0.  1.
         22    1    3    3    0    0  0.21535491068E+02 -0.81138754100E+02  0.48934185104E+02  0.97169075658E+02  0.00000000000E+00 0.  1.
</event>
<event>
 7    1  0.6058736E-006  0.1587794E+03  0.7818608E-02  0.1294501E+00
          2   -1    0    0  502    0  0.00000000000E+00  0.00000000000E+00  0.10293415294E+04  0.10293415294E+04  0.00000000000E+00 0. -1.
          1   -1    0    0  501    0 -0.00000000000E+00 -0.00000000000E+00 -0.24183988840E+03  0.24183988840E+03  0.00000000000E+00 0. -1.
         25    2    1    2    0    0 -0.19880448513E+03 -0.24659820596E+02  0.35635580682E+03  0.42748850876E+03  0.12500253601E+03 0.  0.
          2    1    1    2  501    0  0.15558206447E+03 -0.95217836287E+01 -0.17539826289E+03  0.23465079112E+03  0.00000000000E+00 0. -1.
          1    1    1    2  502    0  0.43222420656E+02  0.34181604225E+02  0.60654409711E+03  0.60904211797E+03  0.00000000000E+00 0. -1.
         22    1    3    3    0    0 -0.11991270908E+03  0.38189036294E+02  0.25570031824E+03  0.28499142625E+03  0.00000000000E+00 0. -1.
         22    1    3    3    0    0 -0.78891776049E+02 -0.62848856891E+02  0.10065548858E+03  0.14249708250E+03  0.00000000000E+00 0. -1.
</event>
<event>
 7    1  0.6058736E-006  0.8832677E+02  0.7818608E-02  0.1361925E+00
          2   -1    0    0  502    0  0.00000000000E+00  0.00000000000E+00  0.17176682134E+04  0.17176682134E+04  0.00000000000E+00 0. -1.
          1   -1    0    0  501    0 -0.00000000000E+00 -0.00000000000E+00 -0.12505737359E+04  0.12505737359E+04  0.00000000000E+00 0. -1.
         25    2    1    2    0    0  0.13776179657E+03  0.32919941610E+02  0.18333343433E+02  0.18979781999E+03  0.12500026337E+03 0.  0.
          2    1    1    2  501    0 -0.83597707822E+02 -0.25803452053E+02 -0.11627351952E+04  0.11660220963E+04  0.00000000000E+00 0. -1.
          1    1    1    2  502    0 -0.54164088748E+02 -0.71164895568E+01  0.16114963293E+04  0.16124220329E+04  0.00000000000E+00 0. -1.
         22    1    3    3    0    0  0.14801025188E+03  0.50201811628E+02  0.38884645968E+02  0.16105673610E+03  0.00000000000E+00 0.  1.
         22    1    3    3    0    0 -0.10248455305E+02 -0.17281870018E+02 -0.20551302535E+02  0.28741083893E+02  0.00000000000E+00 0.  1.
</event>
<event>
 7    1  0.6058736E-006  0.9744037E+02  0.7818608E-02  0.1341767E+00
          2   -1    0    0  502    0  0.00000000000E+00  0.00000000000E+00  0.13815249635E+04  0.13815249635E+04  0.00000000000E+00 0. -1.
          1   -1    0    0  501    0 -0.00000000000E+00 -0.00000000000E+00 -0.16016307005E+03  0.16016307005E+03  0.00000000000E+00 0. -1.
         25    2    1    2    0    0 -0.11641690992E+03 -0.87632455525E+02  0.50330539741E+03  0.53867787365E+03  0.12500073727E+03 0.  0.
          2    1    1    2  501    0  0.55229801128E+02  0.20133129141E+02 -0.13387939437E+03  0.14621684602E+03  0.00000000000E+00 0. -1.
          1    1    1    2  502    0  0.61187108788E+02  0.67499326384E+02  0.85193589039E+03  0.85679331386E+03  0.00000000000E+00 0. -1.
         22    1    3    3    0    0 -0.27826930136E+02  0.11974266624E+02  0.25553361214E+03  0.25732304218E+03  0.00000000000E+00 0.  1.
         22    1    3    3    0    0 -0.88589979780E+02 -0.99606722149E+02  0.24777178527E+03  0.28135483147E+03  0.00000000000E+00 0.  1.
</event>
<event>
 7    1  0.6058736E-006  0.7833122E+02  0.7818608E-02  0.1469190E+00
          2   -1    0    0  502    0  0.00000000000E+00  0.00000000000E+00  0.42179968325E+03  0.42179968325E+03  0.00000000000E+00 0. -1.
          1   -1    0    0  501    0 -0.00000000000E+00 -0.00000000000E+00 -0.99931680244E+02  0.99931680244E+02  0.00000000000E+00 0. -1.
         25    2    1    2    0    0 -0.25829394830E+02  0.58207412081E+02  0.81765664715E+02  0.16237630686E+03  0.12500072258E+03 0.  0.
          2    1    1    2  501    0  0.12211950078E+02 -0.81314486834E+02 -0.30295791253E+02  0.87629974674E+02  0.00000000000E+00 0. -1.
          1    1    1    2  502    0  0.13617444752E+02  0.23107074753E+02  0.27039812955E+03  0.27172508196E+03  0.00000000000E+00 0. -1.
         22    1    3    3    0    0 -0.14294052409E+02  0.90598281035E+02  0.23434438502E+02  0.94665418019E+02  0.00000000000E+00 0.  1.
         22    1    3    3    0    0 -0.11535342421E+02 -0.32390868954E+02  0.58331226213E+02  0.67710888842E+02  0.00000000000E+00 0.  1.
</event>
<event>
 7    1  0.6058736E-006  0.4672949E+02  0.7818608E-02  0.1534603E+00
          2   -1    0    0  502    0  0.00000000000E+00  0.00000000000E+00  0.21592407126E+04  0.21592407126E+04  0.00000000000E+00 0. -1.
          1   -1    0    0  501    0 -0.00000000000E+00 -0.00000000000E+00 -0.20268115228E+03  0.20268115228E+03  0.00000000000E+00 0. -1.
         25    2    1    2    0    0 -0.17543599471E+02  0.56668569495E+02  0.39499704112E+03  0.41853289881E+03  0.12501208036E+03 0.  0.
          2    1    1    2  501    0  0.33335384204E+02 -0.32692009862E+02 -0.18793896457E+03  0.19365192938E+03  0.00000000000E+00 0. -1.
          1    1    1    2  502    0 -0.15791784734E+02 -0.23976559632E+02  0.17495014838E+04  0.17497370367E+04  0.00000000000E+00 0. -1.
         22    1    3    3    0    0 -0.62131169970E+02  0.54018009087E+02  0.16687630038E+03  0.18608043212E+03  0.00000000000E+00 0.  1.
         22    1    3    3    0    0  0.44587570500E+02  0.26505604078E+01  0.22812074074E+03  0.23245246669E+03  0.00000000000E+00 0.  1.
</event>
<event>
 7    1  0.6058736E-006  0.7904300E+02  0.7818608E-02  0.1382750E+00
          2   -1    0    0  502    0  0.00000000000E+00  0.00000000000E+00  0.16559158919E+04  0.16559158919E+04  0.00000000000E+00 0. -1.
          1   -1    0    0  501    0 -0.00000000000E+00 -0.00000000000E+00 -0.57809669625E+03  0.57809669625E+03  0.00000000000E+00 0. -1.
         25    2    1    2    0    0 -0.24898792330E+02 -0.10760372082E+03 -0.39426623486E+01  0.16684426983E+03  0.12499182050E+03 0.  0.
          2    1    1    2  501    0  0.41354245996E+02  0.30542432213E+02 -0.49037269275E+03  0.49306023123E+03  0.00000000000E+00 0. -1.
          1    1    1    2  502    0 -0.16455453666E+02  0.77061288610E+02  0.15721345508E+04  0.15741080871E+04  0.00000000000E+00 0. -1.
         22    1    3    3    0    0 -0.43575959403E+02 -0.31991698828E+02 -0.52260187432E+02  0.75189495425E+02  0.00000000000E+00 0. -1.
         22    1    3    3    0    0  0.18677167073E+02 -0.75612021996E+02  0.48317525084E+02  0.91654774400E+02  0.00000000000E+00 0. -1.
</event>
<event>
 7    1  0.6058736E-006  0.1163409E+03  0.7818608E-02  0.1362890E+00
          2   -1    0    0  502    0  0.00000000000E+00  0.00000000000E+00  0.43163047949E+03  0.43163047949E+03  0.00000000000E+00 0. -1.
          1   -1    0    0  501    0 -0.00000000000E+00 -0.00000000000E+00 -0.96658445473E+03  0.96658445473E+03  0.00000000000E+00 0. -1.
         25    2    1    2    0    0 -0.14862814883E+03  0.44154150593E+02  0.20505054838E+03  0.28585281644E+03  0.12500475846E+03 0.  0.
          2    1    1    2  501    0  0.11353476092E+03 -0.22681835406E+02 -0.92023801953E+03  0.92749265236E+03  0.00000000000E+00 0. -1.
          1    1    1    2  502    0  0.35093387910E+02 -0.21472315188E+02  0.18023349591E+03  0.18486946542E+03  0.00000000000E+00 0. -1.
         22    1    3    3    0    0 -0.55416430037E+02 -0.43573928846E+02  0.84195021668E+02  0.10981106350E+03  0.00000000000E+00 0. -1.
         22    1    3    3    0    0 -0.93211718790E+02  0.87728079439E+02  0.12085552671E+03  0.17604175294E+03  0.00000000000E+00 0. -1.
</event>
<event>
 7    1  0.6058736E-006  0.1239052E+03  0.7818608E-02  0.1312403E+00
          2   -1    0    0  502    0  0.00000000000E+00  0.00000000000E+00  0.22358398025E+03  0.22358398025E+03  0.00000000000E+00 0. -1.
          1   -1    0    0  501    0 -0.00000000000E+00 -0.00000000000E+00 -0.50764840054E+03  0.50764840054E+03  0.00000000000E+00 0. -1.
         25    2    1    2    0    0  0.84382094398E+02 -0.29597743712E+02 -0.11427592160E+03  0.19151527925E+03  0.12499100624E+03 0.  0.
          2    1    1    2  501    0  0.11086901706E+02 -0.58891298836E+02 -0.32880176685E+03  0.33421805211E+03  0.00000000000E+00 0. -1.
          1    1    1    2  502    0 -0.95468996103E+02  0.88489042548E+02  0.15901326817E+03  0.20549904944E+03  0.00000000000E+00 0. -1.
         22    1    3    3    0    0  0.68925480096E+02 -0.59326379753E+02 -0.22313423284E+02  0.93638827415E+02  0.00000000000E+00 0. -1.
         22    1    3    3    0    0  0.15456614302E+02  0.29728636041E+02 -0.91962498320E+02  0.97876451835E+02  0.00000000000E+00 0. -1.
</event>
<event>
 7    1  0.6058736E-006  0.4432121E+02  0.7818608E-02  0.1577731E+00
          2   -1    0    0  502    0  0.00000000000E+00  0.00000000000E+00  0.48320148623E+03  0.48320148623E+03  0.00000000000E+00 0. -1.
          1   -1    0    0  501    0 -0.00000000000E+00 -0.00000000000E+00 -0.26772346261E+03  0.26772346261E+03  0.00000000000E+00 0. -1.
         25    2    1    2    0    0 -0.27918041787E+02  0.43051144486E+02 -0.13039682922E+03  0.18778017874E+03  0.12500097744E+03 0.  0.
          2    1    1    2  501    0  0.22975559517E+02  0.98255718054E+00 -0.10632280889E+03  0.10878134695E+03  0.00000000000E+00 0. -1.
          1    1    1    2  502    0  0.49424822693E+01 -0.44033701666E+02  0.45219766173E+03  0.45436342314E+03  0.00000000000E+00 0. -1.
         22    1    3    3    0    0  0.38476951030E+02  0.44534225732E+02 -0.96965278562E+02  0.11342856020E+03  0.00000000000E+00 0. -1.
         22    1    3    3    0    0 -0.66394992816E+02 -0.14830812465E+01 -0.33431550653E+02  0.74351618544E+02  0.00000000000E+00 0. -1.
</event>
<event>
 7    1  0.6058736E-006  0.4476199E+02  0.7818608E-02  0.1521070E+00
          2   -1    0    0  502    0  0.00000000000E+00  0.00000000000E+00  0.12557519812E+04  0.12557519812E+04  0.00000000000E+00 0. -1.
          1   -1    0    0  501    0 -0.00000000000E+00 -0.00000000000E+00 -0.63976715297E+02  0.63976715297E+02  0.00000000000E+00 0. -1.
         25    2    1    2    0    0  0.31886151109E+02 -0.21196436906E+02  0.11292108838E+03  0.17276389932E+03  0.12502070684E+03 0.  0.
          2    1    1    2  501    0 -0.45837385420E+02 -0.84654652251E+01 -0.17744870536E+02  0.49875950456E+02  0.00000000000E+00 0. -1.
          1    1    1    2  502    0  0.13951234311E+02  0.29661902131E+02  0.10965990480E+04  0.10970888467E+04  0.00000000000E+00 0. -1.
         22    1    3    3    0    0  0.65855830873E+02 -0.34172917821E+02  0.26127018534E+02  0.78660027141E+02  0.00000000000E+00 0. -1.
         22    1    3    3    0    0 -0.33969679764E+02  0.12976480915E+02  0.86794069842E+02  0.94103872184E+02  0.00000000000E+00 0. -1.
</event>
<event>
 7    1  0.6058736E-006  0.1060521E+03  0.7818608E-02  0.1268426E+00
          2   -1    0    0  502    0  0.00000000000E+00  0.00000000000E+00  0.28029596797E+03  0.28029596797E+03  0.00000000000E+00 0. -1.
          1   -1    0    0  501    0 -0.00000000000E+00 -0.00000000000E+00 -0.15518374370E+04  0.15518374370E+04  0.00000000000E+00 0. -1.
         25    2    1    2    0    0 -0.48909996663E+02 -0.52651188708E+02 -0.40355274783E+03  0.42853762293E+03  0.12500135416E+03 0.  0.
          2    1    1    2  501    0 -0.33273941296E+02  0.11908450456E+03 -0.11218364688E+04  0.11286298495E+04  0.00000000000E+00 0. -1.
          1    1    1    2  502    0  0.82183937960E+02 -0.66433315850E+02  0.25384774760E+03  0.27496593257E+03  0.00000000000E+00 0. -1.
         22    1    3    3    0    0 -0.20256034821E+02 -0.41635058059E+02 -0.33343213545E+02  0.57057470114E+02  0.00000000000E+00 0. -1.
         22    1    3    3    0    0 -0.28653961842E+02 -0.11016130648E+02 -0.37020953428E+03  0.37148015282E+03  0.00000000000E+00 0. -1.
</event>
<event>
 7    1  0.6058736E-006  0.1445053E+03  0.7818608E-02  0.1256541E+00
          2   -1    0    0  502    0  0.00000000000E+00  0.00000000000E+00  0.82889797286E+03  0.82889797286E+03  0.00000000000E+00 0. -1.
          1   -1    0    0  501    0 -0.00000000000E+00 -0.00000000000E+00 -0.38410286848E+03  0.38410286848E+03  0.00000000000E+00 0. -1.
         25    2    1    2    0    0  0.10104271619E+02  0.92623613242E+02  0.33553752143E+03  0.36998862858E+03  0.12499970783E+03 0.  0.
          2    1    1    2  501    0  0.68343162096E+02 -0.13052668635E+03 -0.34780226870E+03  0.37772267839E+03  0.00000000000E+00 0. -1.
          1    1    1    2  502    0 -0.78447433715E+02  0.37903073110E+02  0.45705985165E+03  0.46528953438E+03  0.00000000000E+00 0. -1.
         22    1    3    3    0    0 -0.22108906082E+02  0.18218321570E+02  0.42959402649E+01  0.28968363291E+02  0.00000000000E+00 0. -1.
         22    1    3    3    0    0  0.32213177701E+02  0.74405291672E+02  0.33124158116E+03  0.34102026529E+03  0.00000000000E+00 0. -1.
</event>
<event>
 7    1  0.6058736E-006  0.9872079E+02  0.7818608E-02  0.1314952E+00
          2   -1    0    0  502    0  0.00000000000E+00  0.00000000000E+00  0.55709674835E+03  0.55709674835E+03  0.00000000000E+00 0. -1.
          1   -1    0    0  501    0 -0.00000000000E+00 -0.00000000000E+00 -0.18730888221E+03  0.18730888221E+03  0.00000000000E+00 0. -1.
         25    2    1    2    0    0 -0.82419908722E+02 -0.49366104901E+01  0.22601450240E+02  0.15150510821E+03  0.12500224311E+03 0.  0.
          2    1    1    2  501    0  0.63949011771E+01  0.73224647156E+02 -0.10563484583E+03  0.12869135311E+03  0.00000000000E+00 0. -1.
          1    1    1    2  502    0  0.76025007545E+02 -0.68288036666E+02  0.45282126173E+03  0.46420916923E+03  0.00000000000E+00 0. -1.
         22    1    3    3    0    0 -0.22269398646E+02 -0.40134587552E+01 -0.51385913644E+02  0.56147538578E+02  0.00000000000E+00 0.  1.
         22    1    3    3    0    0 -0.60150510076E+02 -0.92315173494E+00  0.73987363884E+02  0.95357569631E+02  0.00000000000E+00 0.  1.
</event>
<event>
 7    1  0.6058736E-006  0.1427527E+03  0.7818608E-02  0.1385189E+00
          2   -1    0    0  502    0  0.00000000000E+00  0.00000000000E+00  0.12947001379E+04  0.12947001379E+04  0.00000000000E+00 0. -1.
          1   -1    0    0  501    0 -0.00000000000E+00 -0.00000000000E+00 -0.35074921450E+03  0.35074921450E+03  0.00000000000E+00 0. -1.
         25    2    1    2    0    0  0.12520924713E+03  0.10484661545E+03  0.47290373711E+03  0.51568653823E+03  0.12499797118E+03 0.  0.
          2    1    1    2  501    0 -0.26018177386E+02 -0.10096921253E+02 -0.32287427823E+03  0.32407822037E+03  0.00000000000E+00 0. -1.
          1    1    1    2  502    0 -0.99191069746E+02 -0.94749694201E+02  0.79392146447E+03  0.80568459376E+03  0.00000000000E+00 0. -1.
         22    1    3    3    0    0  0.10930779189E+03  0.11178204205E+03  0.47317613400E+03  0.49833630420E+03  0.00000000000E+00 0. -1.
         22    1    3    3    0    0  0.15901455244E+02 -0.69354265929E+01 -0.27239689226E+00  0.17350234032E+02  0.00000000000E+00 0. -1.
</event>
<event>
 7    1  0.6058736E-006  0.1292154E+03  0.7818608E-02  0.1295199E+00
          2   -1    0    0  502    0  0.00000000000E+00  0.00000000000E+00  0.29134238974E+03  0.29134238974E+03  0.00000000000E+00 0. -1.
          1   -1    0    0  501    0 -0.00000000000E+00 -0.00000000000E+00 -0.13578767004E+04  0.13578767004E+04  0.00000000000E+00 0. -1.
         25    2    1    2    0    0  0.26401466570E+01 -0.12883771852E+03 -0.26362896077E+03  0.31895543559E+03  0.12500485129E+03 0.  0.
          2    1    1    2  501    0  0.64930976091E+02  0.17602951843E+02 -0.10493812367E+04  0.10515354846E+04  0.00000000000E+00 0. -1.
          1    1    1    2  502    0 -0.67571122748E+02  0.11123476667E+03  0.24647588678E+03  0.27872816993E+03  0.00000000000E+00 0. -1.
         22    1    3    3    0    0 -0.41639100768E+02 -0.69618878642E+02 -0.56053512786E+02  0.98603241690E+02  0.00000000000E+00 0. -1.
         22    1    3    3    0    0  0.44279247425E+02 -0.59218839875E+02 -0.20757544799E+03  0.22035219390E+03  0.00000000000E+00 0. -1.
</event>
<event>
 7    1  0.6058736E-006  0.1596975E+03  0.7818608E-02  0.1193973E+00
          2   -1    0    0  502    0  0.00000000000E+00  0.00000000000E+00  0.71889318704E+03  0.71889318704E+03  0.00000000000E+00 0. -1.
          1   -1    0    0  501    0 -0.00000000000E+00 -0.00000000000E+00 -0.58366487886E+03  0.58366487886E+03  0.00000000000E+00 0. -1.
         25    2    1    2    0    0 -0.29988897444E+03 -0.43539120312E+02 -0.15291193519E+03  0.36171249968E+03  0.12499928206E+03 0.  0.
          2    1    1    2  501    0  0.15122588202E+03  0.24800432879E+01 -0.29830626779E+03  0.33445784100E+03  0.00000000000E+00 0. -1.
          1    1    1    2  502    0  0.14866309242E+03  0.41059077025E+02  0.58644651115E+03  0.60638772522E+03  0.00000000000E+00 0. -1.
         22    1    3    3    0    0  0.11452452645E+01  0.94315523967E+01 -0.31366164873E+02  0.32773496398E+02  0.00000000000E+00 0. -1.
         22    1    3    3    0    0 -0.30103421970E+03 -0.52970672709E+02 -0.12154577031E+03  0.32893900328E+03  0.00000000000E+00 0. -1.
</event>
<event>
 7    1  0.6058736E-006  0.9297924E+02  0.7818608E-02  0.1350861E+00
          2   -1    0    0  502    0  0.00000000000E+00  0.00000000000E+00  0.12157949970E+04  0.12157949970E+04  0.00000000000E+00 0. -1.
          1   -1    0    0  501    0 -0.00000000000E+00 -0.00000000000E+00 -0.10884149353E+04  0.10884149353E+04  0.00000000000E+00 0. -1.
         25    2    1    2    0    0 -0.48701772720E+02 -0.12620091832E+03 -0.56541238387E+02  0.19266731454E+03  0.12500099201E+03 0.  0.
          2    1    1    2  501    0  0.45885379806E+02  0.33785099183E+02 -0.96110338616E+03  0.96279105724E+03  0.00000000000E+00 0. -1.
          1    1    1    2  502    0  0.28163929142E+01  0.92415819136E+02  0.11450246862E+04  0.11487515605E+04  0.00000000000E+00 0. -1.
         22    1    3    3    0    0  0.22645981240E+02 -0.96806039145E+02 -0.58729747396E+02  0.11547048502E+03  0.00000000000E+00 0.  1.
         22    1    3    3    0    0 -0.71347753960E+02 -0.29394879174E+02  0.21885090098E+01  0.77196829523E+02  0.00000000000E+00 0.  1.
</event>
<event>
 7    1  0.6058736E-006  0.1037789E+03  0.7818608E-02  0.1411413E+00
          2   -1    0    0  502    0  0.00000000000E+00  0.00000000000E+00  0.12001370401E+04  0.12001370401E+04  0.00000000000E+00 0. -1.
          1   -1    0    0  501    0 -0.00000000000E+00 -0.00000000000E+00 -0.24974747515E+03  0.24974747515E+03  0.00000000000E+00 0. -1.
         25    2    1    2    0    0 -0.54390003826E+02  0.50402999421E+02  0.26184165370E+03  0.29947469374E+03  0.12500122284E+03 0.  0.
          2    1    1    2  501    0  0.73566992113E+02 -0.74981951708E+02 -0.21870380281E+03  0.24262264687E+03  0.00000000000E+00 0. -1.
          1    1    1    2  502    0 -0.19176988287E+02  0.24578952287E+02  0.90725171404E+03  0.90778717462E+03  0.00000000000E+00 0. -1.
         22    1    3    3    0    0  0.15996887049E+02  0.33183378278E+02  0.11102374366E+02  0.38474663166E+02  0.00000000000E+00 0.  1.
         22    1    3    3    0    0 -0.70386890875E+02  0.17219621144E+02  0.25073927934E+03  0.26100003058E+03  0.00000000000E+00 0.  1.
</event>
<event>
 7    1  0.6058736E-006  0.2327914E+03  0.7818608E-02  0.1302343E+00
          2   -1    0    0  502    0  0.00000000000E+00  0.00000000000E+00  0.63734306451E+03  0.63734306451E+03  0.00000000000E+00 0. -1.
          1   -1    0    0  501    0 -0.00000000000E+00 -0.00000000000E+00 -0.91182641192E+03  0.91182641192E+03  0.00000000000E+00 0. -1.
         25    2    1    2    0    0 -0.21892567714E+03 -0.12129698201E+03 -0.31816961369E+03  0.42367257216E+03  0.12500054148E+03 0.  0.
          2    1    1    2  501    0  0.20738046597E+03  0.88300439605E+02 -0.51685631995E+03  0.56386530375E+03  0.00000000000E+00 0. -1.
          1    1    1    2  502    0  0.11545211170E+02  0.32996542406E+02  0.56054258624E+03  0.56163160051E+03  0.00000000000E+00 0. -1.
         22    1    3    3    0    0 -0.22977489851E+03 -0.11425554992E+03 -0.32045425337E+03  0.41053838210E+03  0.00000000000E+00 0.  1.
         22    1    3    3    0    0  0.10849221370E+02 -0.70414320901E+01  0.22846396764E+01  0.13134190065E+02  0.00000000000E+00 0.  1.
</event>
<event>
 7    1  0.6058736E-006  0.9588201E+02  0.7818608E-02  0.1420366E+00
          2   -1    0    0  502    0  0.00000000000E+00  0.00000000000E+00  0.57138305627E+03  0.57138305627E+03  0.00000000000E+00 0. -1.
          1   -1    0    0  501    0 -0.00000000000E+00 -0.00000000000E+00 -0.11907053149E+03  0.11907053149E+03  0.00000000000E+00 0. -1.
         25    2    1    2    0    0 -0.97044980922E+02 -0.15724473845E+02 -0.35093025883E+01  0.15906666745E+03  0.12499960836E+03 0.  0.
          2    1    1    2  501    0  0.85113000633E+02  0.44860445549E+02  0.24987231597E+02  0.99403441562E+02  0.00000000000E+00 0. -1.
          1    1    1    2  502    0  0.11931980289E+02 -0.29135971704E+02  0.43083459577E+03  0.43198347875E+03  0.00000000000E+00 0. -1.
         22    1    3    3    0    0 -0.10515064199E+02  0.80764465512E+01  0.51919393825E+02  0.53585623250E+02  0.00000000000E+00 0. -1.
         22    1    3    3    0    0 -0.86529916723E+02 -0.23800920396E+02 -0.55428696413E+02  0.10548104420E+03  0.00000000000E+00 0. -1.
</event>
<event>
 7    1  0.6058736E-006  0.4449292E+02  0.7818608E-02  0.1481245E+00
          2   -1    0    0  502    0  0.00000000000E+00  0.00000000000E+00  0.33380076569E+04  0.33380076569E+04  0.00000000000E+00 0. -1.
          1   -1    0    0  501    0 -0.00000000000E+00 -0.00000000000E+00 -0.28191951880E+02  0.28191951880E+02  0.00000000000E+00 0. -1.
         25    2    1    2    0    0 -0.17400642660E+01  0.53671067741E+01  0.87186579343E+03  0.88079936938E+03  0.12500293472E+03 0.  0.
          2    1    1    2  501    0 -0.43343360269E+02 -0.10048555209E+02 -0.24681182778E+01  0.44561327954E+02  0.00000000000E+00 0. -1.
          1    1    1    2  502    0  0.45083424535E+02  0.46814484352E+01  0.24404180298E+04  0.24408389114E+04  0.00000000000E+00 0. -1.
         22    1    3    3    0    0 -0.51010599955E+02  0.36762358887E+02  0.34291926609E+03  0.34863616478E+03  0.00000000000E+00 0. -1.
         22    1    3    3    0    0  0.49270535689E+02 -0.31395252113E+02  0.52894652734E+03  0.53216320460E+03  0.00000000000E+00 0. -1.
</event>
<event>
 7    1  0.6058736E-006  0.1212928E+03  0.7818608E-02  0.1336189E+00
          2   -1    0    0  502    0  0.00000000000E+00  0.00000000000E+00  0.14675110203E+04  0.14675110203E+04  0.00000000000E+00 0. -1.
          1   -1    0    0  501    0 -0.00000000000E+00 -0.00000000000E+00 -0.12222292405E+04  0.12222292405E+04  0.00000000000E+00 0. -1.
         25    2    1    2    0    0 -0.12995575230E+03 -0.74097880467E+01  0.23054336436E+03  0.29277386314E+03  0.12499155801E+03 0.  0.
          2    1    1    2  501    0  0.20606173726E+02 -0.45080045784E+02 -0.11875454705E+04  0.11885794334E+04  0.00000000000E+00 0. -1.
          1    1    1    2  502    0  0.10934957858E+03  0.52489833830E+02  0.12022838860E+04  0.12083869643E+04  0.00000000000E+00 0. -1.
         22    1    3    3    0    0 -0.10923866995E+03  0.25795535944E+02  0.22729824525E+03  0.25350145755E+03  0.00000000000E+00 0.  1.
         22    1    3    3    0    0 -0.20717082351E+02 -0.33205323991E+02  0.32451191043E+01  0.39272405585E+02  0.00000000000E+00 0.  1.
</event>
<event>
 7    1  0.6058736E-006  0.9399211E+02  0.7818608E-02  0.1361569E+00
          2   -1    0    0  502    0  0.00000000000E+00  0.00000000000E+00  0.27870398410E+04  0.27870398410E+04  0.00000000000E+00 0. -1.
          1   -1    0    0  501    0 -0.00000000000E+00 -0.00000000000E+00 -0.50838752988E+02  0.50838752988E+02  0.00000000000E+00 0. -1.
         25    2    1    2    0    0 -0.28705924091E+02 -0.65834634839E+02  0.10778926343E+04  0.10874906266E+04  0.12500041068E+03 0.  0.
          2    1    1    2  501    0  0.35367941662E+02 -0.37421346311E+02 -0.29545904307E+02  0.59365047953E+02  0.00000000000E+00 0. -1.
          1    1    1    2  502    0 -0.66620175714E+01  0.10325598115E+03  0.16878543580E+04  0.16910229194E+04  0.00000000000E+00 0. -1.
         22    1    3    3    0    0  0.31438779908E+02  0.34683342388E+01  0.90981348674E+02  0.96322541656E+02  0.00000000000E+00 0.  1.
         22    1    3    3    0    0 -0.60144703998E+02 -0.69302969078E+02  0.98691128561E+03  0.99116808494E+03  0.00000000000E+00 0.  1.
</event>
<event>
 7    1  0.6058736E-006  0.5019582E+02  0.7818608E-02  0.1457173E+00
          2   -1    0    0  502    0  0.00000000000E+00  0.00000000000E+00  0.11109379821E+03  0.11109379821E+03  0.00000000000E+00 0. -1.
          1   -1    0    0  501    0 -0.00000000000E+00 -0.00000000000E+00 -0.66395814827E+03  0.66395814827E+03  0.00000000000E+00 0. -1.
         25    2    1    2    0    0 -0.25346271221E+02  0.93402981220E+01 -0.77363743637E+02  0.14947066361E+03  0.12500662309E+03 0.  0.
          2    1    1    2  501    0  0.15464615524E+02  0.42955582820E+02 -0.54001840924E+03  0.54194484844E+03  0.00000000000E+00 0. -1.
          1    1    1    2  502    0  0.98816556973E+01 -0.52295880942E+02  0.64517802823E+02  0.83636434428E+02  0.00000000000E+00 0. -1.
         22    1    3    3    0    0  0.36919580143E+02 -0.32237885966E+02 -0.12929466080E+02  0.50690312512E+02  0.00000000000E+00 0. -1.
         22    1    3    3    0    0 -0.62265851364E+02  0.41578184088E+02 -0.64434277557E+02  0.98780351094E+02  0.00000000000E+00 0. -1.
</event>
<event>
 7    1  0.6058736E-006  0.1720120E+03  0.7818608E-02  0.1294927E+00
          2   -1    0    0  502    0  0.00000000000E+00  0.00000000000E+00  0.20202520326E+04  0.20202520326E+04  0.00000000000E+00 0. -1.
          1   -1    0    0  501    0 -0.00000000000E+00 -0.00000000000E+00 -0.11165222100E+04  0.11165222100E+04  0.00000000000E+00 0. -1.
         25    2    1    2    0    0 -0.11372830186E+03 -0.67186090867E+02  0.37818701498E+03  0.41964055285E+03  0.12499871139E+03 0.  0.
          2    1    1    2  501    0 -0.48155413826E+02 -0.15747647420E+02 -0.10901038226E+04  0.10912805672E+04  0.00000000000E+00 0. -1.
          1    1    1    2  502    0  0.16188371568E+03  0.82933738287E+02  0.16156466303E+04  0.16258531226E+04  0.00000000000E+00 0. -1.
         22    1    3    3    0    0  0.61495986671E+01 -0.30803321433E+02  0.13780544749E+02  0.34301101857E+02  0.00000000000E+00 0. -1.
         22    1    3    3    0    0 -0.11987790053E+03 -0.36382769434E+02  0.36440647023E+03  0.38533945100E+03  0.00000000000E+00 0. -1.
</event>
<event>
 7    1  0.6058736E-006  0.7274923E+02  0.7818608E-02  0.1376070E+00
          2   -1    0    0  502    0  0.00000000000E+00  0.00000000000E+00  0.42532939744E+03  0.42532939744E+03  0.00000000000E+00 0. -1.
          1   -1    0    0  501    0 -0.00000000000E+00 -0.00000000000E+00 -0.23642315755E+03  0.23642315755E+03  0.00000000000E+00 0. -1.
         25    2    1    2    0    0 -0.59901491960E+02 -0.58171428151E+01  0.43337077030E+01  0.13880285426E+03  0.12500169374E+03 0.  0.
          2    1    1    2  501    0  0.18087990916E+02 -0.56146174292E+02 -0.15991371735E+03  0.17044637074E+03  0.00000000000E+00 0. -1.
          1    1    1    2  502    0  0.41813501045E+02  0.61963317107E+02  0.34448624954E+03  0.35250333000E+03  0.00000000000E+00 0. -1.
         22    1    3    3    0    0 -0.53093258317E+01 -0.21423229451E+02 -0.53427981319E+02  0.57807377460E+02  0.00000000000E+00 0.  1.
         22    1    3    3    0    0 -0.54592166129E+02  0.15606086636E+02  0.57761689022E+02  0.80995476796E+02  0.00000000000E+00 0.  1.
</event>
<event>
 7    1  0.6058736E-006  0.1463738E+03  0.7818608E-02  0.1228439E+00
          2   -1    0    0  502    0  0.00000000000E+00  0.00000000000E+00  0.63358658169E+02  0.63358658169E+02  0.00000000000E+00 0. -1.
          1   -1    0    0  501    0 -0.00000000000E+00 -0.00000000000E+00 -0.27669644558E+04  0.27669644558E+04  0.00000000000E+00 0. -1.
         25    2    1    2    0    0  0.38150408075E+02 -0.95635679112E+02 -0.20171283569E+03  0.25867821603E+03  0.12499885844E+03 0.  0.
          2    1    1    2  501    0 -0.58761574165E+01 -0.11413614122E+03 -0.21980276729E+04  0.22009968739E+04  0.00000000000E+00 0. -1.
          1    1    1    2  502    0 -0.32274250658E+02  0.20977182033E+03 -0.30386528905E+03  0.37064802408E+03  0.00000000000E+00 0. -1.
         22    1    3    3    0    0  0.49781536429E+02  0.64905352951E+01 -0.11003772218E+03  0.12094886820E+03  0.00000000000E+00 0. -1.
         22    1    3    3    0    0 -0.11631128354E+02 -0.10212621441E+03 -0.91675113513E+02  0.13772934783E+03  0.00000000000E+00 0. -1.
</event>
<event>
 7    1  0.6058736E-006  0.1494255E+03  0.7818608E-02  0.1303758E+00
          2   -1    0    0  502    0  0.00000000000E+00  0.00000000000E+00  0.94311519901E+03  0.94311519901E+03  0.00000000000E+00 0. -1.
          1   -1    0    0  501    0 -0.00000000000E+00 -0.00000000000E+00 -0.96427016990E+03  0.96427016990E+03  0.00000000000E+00 0. -1.
         25    2    1    2    0    0 -0.19865806661E+03  0.29716552766E+02  0.18301783387E+03  0.29911267320E+03  0.12499905124E+03 0.  0.
          2    1    1    2  501    0  0.14490965262E+03 -0.30772725945E+02 -0.89912352599E+03  0.91124578631E+03  0.00000000000E+00 0. -1.
          1    1    1    2  502    0  0.53748413994E+02  0.10561731792E+01  0.69495072123E+03  0.69702690941E+03  0.00000000000E+00 0. -1.
         22    1    3    3    0    0 -0.13970311272E+03 -0.15713118619E+02  0.54857302156E+02  0.15090787057E+03  0.00000000000E+00 0.  1.
         22    1    3    3    0    0 -0.58954953892E+02  0.45429671385E+02  0.12816053172E+03  0.14820480262E+03  0.00000000000E+00 0.  1.
</event>
<event>
 7    1  0.6058736E-006  0.2193431E+03  0.7818608E-02  0.1274132E+00
          2   -1    0    0  502    0  0.00000000000E+00  0.00000000000E+00  0.81512118011E+03  0.81512118011E+03  0.00000000000E+00 0. -1.
          1   -1    0    0  501    0 -0.00000000000E+00 -0.00000000000E+00 -0.21400313730E+03  0.21400313730E+03  0.00000000000E+00 0. -1.
         25    2    1    2    0    0 -0.19672661792E+03  0.53005654355E+02  0.37005763019E+03  0.44054279371E+03  0.12499736730E+03 0.  0.
          2    1    1    2  501    0  0.22237845194E+03 -0.12013026776E+02 -0.10700435698E+03  0.24707573963E+03  0.00000000000E+00 0. -1.
          1    1    1    2  502    0 -0.25651834022E+02 -0.40992627579E+02  0.33806476960E+03  0.34150578407E+03  0.00000000000E+00 0. -1.
         22    1    3    3    0    0 -0.17439329908E+03  0.25473878267E+02  0.19889067668E+03  0.26574318902E+03  0.00000000000E+00 0. -1.
         22    1    3    3    0    0 -0.22333318834E+02  0.27531776089E+02  0.17116695351E+03  0.17479960469E+03  0.00000000000E+00 0. -1.
</event>
<event>
 7    1  0.6058736E-006  0.5893398E+02  0.7818608E-02  0.1530345E+00
          2   -1    0    0  502    0  0.00000000000E+00  0.00000000000E+00  0.22174463093E+03  0.22174463093E+03  0.00000000000E+00 0. -1.
          1   -1    0    0  501    0 -0.00000000000E+00 -0.00000000000E+00 -0.59305674636E+03  0.59305674636E+03  0.00000000000E+00 0. -1.
         25    2    1    2    0    0 -0.41469268035E+02  0.40995212353E+02 -0.48223539379E+03  0.50157302582E+03  0.12499687024E+03 0.  0.
          2    1    1    2  501    0 -0.13346857341E+02 -0.19233336368E+02 -0.95612478384E+02  0.98436811465E+02  0.00000000000E+00 0. -1.
          1    1    1    2  502    0  0.54816125377E+02 -0.21761875985E+02  0.20653575675E+03  0.21479154002E+03  0.00000000000E+00 0. -1.
         22    1    3    3    0    0 -0.72390391882E+02  0.11177627799E+02 -0.15392832898E+03  0.17046770563E+03  0.00000000000E+00 0. -1.
         22    1    3    3    0    0  0.30921123846E+02  0.29817584555E+02 -0.32830706482E+03  0.33110532019E+03  0.00000000000E+00 0. -1.
</event>
<event>
 7    1  0.6058736E-006  0.1351797E+03  0.7818608E-02  0.1411272E+00
          2   -1    0    0  502    0  0.00000000000E+00  0.00000000000E+00  0.15793935951E+04  0.15793935951E+04  0.00000000000E+00 0. -1.
          1   -1    0    0  501    0 -0.00000000000E+00 -0.00000000000E+00 -0.41642064316E+03  0.41642064316E+03  0.00000000000E+00 0. -1.
         25    2    1    2    0    0  0.98217345231E+02 -0.83776171167E+02  0.54141733828E+02  0.18767350063E+03  0.12499968695E+03 0.  0.
          2    1    1    2  501    0 -0.11936336854E+02 -0.20774807208E+02 -0.34608995388E+03  0.34691832602E+03  0.00000000000E+00 0. -1.
          1    1    1    2  502    0 -0.86281008377E+02  0.10455097838E+03  0.14549211720E+04  0.14612224116E+04  0.00000000000E+00 0. -1.
         22    1    3    3    0    0  0.20809847202E+02 -0.54260449123E+02 -0.33496734723E+02  0.67076652545E+02  0.00000000000E+00 0. -1.
         22    1    3    3    0    0  0.77407498029E+02 -0.29515722044E+02  0.87638468551E+02  0.12059684809E+03  0.00000000000E+00 0. -1.
</event>
<event>
 7    1  0.6058736E-006  0.5668580E+02  0.7818608E-02  0.1531574E+00
          2   -1    0    0  502    0  0.00000000000E+00  0.00000000000E+00  0.49992370540E+03  0.49992370540E+03  0.00000000000E+00 0. -1.
          1   -1    0    0  501    0 -0.00000000000E+00 -0.00000000000E+00 -0.12371602126E+04  0.12371602126E+04  0.00000000000E+00 0. -1.
         25    2    1    2    0    0  0.20845063382E+02  0.37564083548E+02  0.13282072082E+03  0.18737704298E+03  0.12499294107E+03 0.  0.
          2    1    1    2  501    0 -0.44830155968E+02 -0.34808611860E+02 -0.12087865263E+04  0.12101182787E+04  0.00000000000E+00 0. -1.
          1    1    1    2  502    0  0.23985092586E+02 -0.27554716878E+01  0.33872929822E+03  0.33958859634E+03  0.00000000000E+00 0. -1.
         22    1    3    3    0    0 -0.27930316597E+02  0.66418592270E+02  0.95047605461E+02  0.11927103290E+03  0.00000000000E+00 0. -1.
         22    1    3    3    0    0  0.48775379979E+02 -0.28854508722E+02  0.37773115356E+02  0.68106010083E+02  0.00000000000E+00 0. -1.
</event>
<event>
 7    1  0.6058736E-006  0.2636944E+03  0.7818608E-02  0.1158367E+00
          2   -1    0    0  502    0  0.00000000000E+00  0.00000000000E+00  0.80650807663E+03  0.80650807663E+03  0.00000000000E+00 0. -1.
          1   -1    0    0  501    0 -0.00000000000E+00 -0.00000000000E+00 -0.15769368222E+04  0.15769368222E+04  0.00000000000E+00 0. -1.
         25    2    1    2    0    0 -0.21028585422E+03 -0.24571002213E+03  0.20298709248E+02  0.34731669905E+03  0.12499318534E+03 0.  0.
          2    1    1    2  501    0  0.13704515035E+03 -0.14077780500E+01 -0.13832247327E+04  0.13899978475E+04  0.00000000000E+00 0. -1.
          1    1    1    2  502    0  0.73240703865E+02  0.24711780018E+03  0.59249727784E+03  0.64613035226E+03  0.00000000000E+00 0. -1.
         22    1    3    3    0    0 -0.50989366566E+02 -0.91757083495E+02 -0.48095452599E+02  0.11546623071E+03  0.00000000000E+00 0.  1.
         22    1    3    3    0    0 -0.15929648765E+03 -0.15395293864E+03  0.68394161847E+02  0.23185046834E+03  0.00000000000E+00 0.  1.
</event>
<event>
 7    1  0.6058736E-006  0.1537482E+03  0.7818608E-02  0.1328736E+00
          2   -1    0    0  502    0  0.00000000000E+00  0.00000000000E+00  0.21797919010E+03  0.21797919010E+03  0.00000000000E+00 0. -1.
          1   -1    0    0  501    0 -0.00000000000E+00 -0.00000000000E+00 -0.90219372519E+03  0.90219372519E+03  0.00000000000E+00 0. -1.
         25    2    1    2    0    0  0.10758403720E+03  0.37659215174E+02 -0.63061980787E+03  0.65291518123E+03  0.12499740099E+03 0.  0.
          2    1    1    2  501    0  0.40562242929E+02  0.98550554375E+01 -0.22901355039E+03  0.23278664895E+03  0.00000000000E+00 0. -1.
          1    1    1    2  502    0 -0.14814628013E+03 -0.47514270611E+02  0.17541882317E+03  0.23447108510E+03  0.00000000000E+00 0. -1.
         22    1    3    3    0    0  0.32706119588E+02  0.75551012858E+02 -0.25200769762E+03  0.26511417439E+03  0.00000000000E+00 0.  1.
         22    1    3    3    0    0  0.74877917611E+02 -0.37891797684E+02 -0.37861211025E+03  0.38780100684E+03  0.00000000000E+00 0.  1.
</event>
<event>
 7    1  0.6058736E-006  0.1024291E+03  0.7818608E-02  0.1321559E+00
          2   -1    0    0  502    0  0.00000000000E+00  0.00000000000E+00  0.24953352088E+04  0.24953352088E+04  0.00000000000E+00 0. -1.
          1   -1    0    0  501    0 -0.00000000000E+00 -0.00000000000E+00 -0.37696625155E+03  0.37696625155E+03  0.00000000000E+00 0. -1.
         25    2    1    2    0    0  0.53055885207E+02 -0.10496656026E+03  0.15539553691E+04  0.15634050717E+04  0.12500089435E+03 0.  0.
          2    1    1    2  501    0 -0.89843097678E+02  0.49243532436E+02 -0.36396993424E+03  0.37811482478E+03  0.00000000000E+00 0. -1.
          1    1    1    2  502    0  0.36787212471E+02  0.55723027828E+02  0.92838352248E+03  0.93078156387E+03  0.00000000000E+00 0. -1.
         22    1    3    3    0    0 -0.10595889907E+02  0.78372394543E+01  0.19759585963E+02  0.23751556636E+02  0.00000000000E+00 0. -1.
         22    1    3    3    0    0  0.63651775114E+02 -0.11280379972E+03  0.15341957831E+04  0.15396535151E+04  0.00000000000E+00 0. -1.
</event>
<event>
 7    1  0.6058736E-006  0.7563276E+02  0.7818608E-02  0.1362757E+00
          2   -1    0    0  502    0  0.00000000000E+00  0.00000000000E+00  0.16099947264E+04  0.16099947264E+04  0.00000000000E+00 0. -1.
          1   -1    0    0  501    0 -0.00000000000E+00 -0.00000000000E+00 -0.12136962042E+04  0.12136962042E+04  0.00000000000E+00 0. -1.
         25    2    1    2    0    0  0.89802775983E+02 -0.93783834005E+02  0.36521835346E+03  0.40727047735E+03  0.12499939968E+03 0.  0.
          2    1    1    2  501    0 -0.56450267790E+02  0.28763271170E+02 -0.11907363177E+04  0.11924206207E+04  0.00000000000E+00 0. -1.
          1    1    1    2  502    0 -0.33352508193E+02  0.65020562835E+02  0.12218164864E+04  0.12239998325E+04  0.00000000000E+00 0. -1.
         22    1    3    3    0    0  0.86718635687E+01 -0.25938654117E+02  0.24755891386E+03  0.24906511363E+03  0.00000000000E+00 0.  1.
         22    1    3    3    0    0  0.81130912414E+02 -0.67845179889E+02  0.11765943961E+03  0.15820536373E+03  0.00000000000E+00 0.  1.
</event>
<event>
 7    1  0.6058736E-006  0.1809151E+03  0.7818608E-02  0.1201319E+00
          2   -1    0    0  502    0  0.00000000000E+00  0.00000000000E+00  0.12480039527E+04  0.12480039527E+04  0.00000000000E+00 0. -1.
          1   -1    0    0  501    0 -0.00000000000E+00 -0.00000000000E+00 -0.19633227975E+03  0.19633227975E+03  0.00000000000E+00 0. -1.
         25    2    1    2    0    0 -0.85113463147E+02  0.33978125067E+02  0.21411658552E+03  0.26432756709E+03  0.12499734371E+03 0.  0.
          2    1    1    2  501    0  0.15475078962E+03 -0.13564866589E+03 -0.10389557164E+03  0.23052691220E+03  0.00000000000E+00 0. -1.
          1    1    1    2  502    0 -0.69637326469E+02  0.10167054082E+03  0.94145065908E+03  0.94948175316E+03  0.00000000000E+00 0. -1.
         22    1    3    3    0    0  0.33303615897E+01 -0.39368652193E+02  0.45160701351E+02  0.60003925124E+02  0.00000000000E+00 0.  1.
         22    1    3    3    0    0 -0.88443824736E+02  0.73346777260E+02  0.16895588417E+03  0.20432364196E+03  0.00000000000E+00 0.  1.
</event>
<event>
 7    1  0.6058736E-006  0.2652497E+02  0.7818608E-02  0.1641590E+00
          2   -1    0    0  502    0  0.00000000000E+00  0.00000000000E+00  0.15702309223E+03  0.15702309223E+03  0.00000000000E+00 0. -1.
          1   -1    0    0  501    0 -0.00000000000E+00 -0.00000000000E+00 -0.54344697140E+03  0.54344697140E+03  0.00000000000E+00 0. -1.
         25    2    1    2    0    0 -0.52003247775E+02 -0.73572447740E+01 -0.20915151384E+03  0.24925650761E+03  0.12500393600E+03 0.  0.
          2    1    1    2  501    0  0.25679121959E+02  0.56240461856E+01 -0.31241552950E+03  0.31351955325E+03  0.00000000000E+00 0. -1.
          1    1    1    2  502    0  0.26324125816E+02  0.17331985884E+01  0.13514316417E+03  0.13769400277E+03  0.00000000000E+00 0. -1.
         22    1    3    3    0    0 -0.85637355910E+01 -0.24261493403E+02 -0.20013219511E+03  0.20177921882E+03  0.00000000000E+00 0. -1.
         22    1    3    3    0    0 -0.43439512184E+02  0.16904248629E+02 -0.90193187325E+01  0.47477288790E+02  0.00000000000E+00 0. -1.
</event>
<event>
 7    1  0.6058736E-006  0.3886037E+02  0.7818608E-02  0.1519233E+00
          2   -1    0    0  502    0  0.00000000000E+00  0.00000000000E+00  0.16834608843E+04  0.16834608843E+04  0.00000000000E+00 0. -1.
          1   -1    0    0  501    0 -0.00000000000E+00 -0.00000000000E+00 -0.25173100542E+02  0.25173100542E+02  0.00000000000E+00 0. -1.
         25    2    1    2    0    0  0.22706097432E+01  0.59767700339E+01  0.70836209744E+03  0.71933453011E+03  0.12499771063E+03 0.  0.
          2    1    1    2  501    0 -0.38339908220E+02  0.84846986865E+01  0.69502451010E+00  0.39273677357E+02  0.00000000000E+00 0. -1.
          1    1    1    2  502    0  0.36069298477E+02 -0.14461468720E+02  0.94923066178E+03  0.95002577735E+03  0.00000000000E+00 0. -1.
         22    1    3    3    0    0 -0.55011649617E+02  0.67044781547E+01  0.50581855916E+03  0.50884540522E+03  0.00000000000E+00 0. -1.
         22    1    3    3    0    0  0.57282259360E+02 -0.72770812081E+00  0.20254353829E+03  0.21048912489E+03  0.00000000000E+00 0. -1.
</event>
<event>
 7    1  0.6058736E-006  0.1043437E+03  0.7818608E-02  0.1433591E+00
          2   -1    0    0  502    0  0.00000000000E+00  0.00000000000E+00  0.10661689717E+04  0.10661689717E+04  0.00000000000E+00 0. -1.
          1   -1    0    0  501    0 -0.00000000000E+00 -0.00000000000E+00 -0.67474370039E+03  0.67474370039E+03  0.00000000000E+00 0. -1.
         25    2    1    2    0    0  0.64791650106E+02 -0.94588203048E+02  0.21390579509E+03  0.27299053072E+03  0.12499301824E+03 0.  0.
          2    1    1    2  501    0 -0.76227577398E+02  0.71060248780E+02 -0.64078288034E+03  0.64920174233E+03  0.00000000000E+00 0. -1.
          1    1    1    2  502    0  0.11435927292E+02  0.23527954267E+02  0.81830235658E+03  0.81872039906E+03  0.00000000000E+00 0. -1.
         22    1    3    3    0    0  0.59863468571E+02  0.65856232302E+01  0.41870654013E+02  0.73349553306E+02  0.00000000000E+00 0.  1.
         22    1    3    3    0    0  0.49281815351E+01 -0.10117382628E+03  0.17203514108E+03  0.19964097742E+03  0.00000000000E+00 0.  1.
</event>
<event>
 7    1  0.6058736E-006  0.1446596E+03  0.7818608E-02  0.1246504E+00
          2   -1    0    0  502    0  0.00000000000E+00  0.00000000000E+00  0.10882829187E+04  0.10882829187E+04  0.00000000000E+00 0. -1.
          1   -1    0    0  501    0 -0.00000000000E+00 -0.00000000000E+00 -0.49235168606E+03  0.49235168606E+03  0.00000000000E+00 0. -1.
         25    2    1    2    0    0  0.38406755153E+02 -0.11911703990E+03 -0.10396072583E+03  0.20517692922E+03  0.12500316690E+03 0.  0.
          2    1    1    2  501    0 -0.13054377861E+03  0.91504915667E+02 -0.31657516559E+03  0.35444980349E+03  0.00000000000E+00 0. -1.
          1    1    1    2  502    0  0.92137023457E+02  0.27612124233E+02  0.10164671241E+04  0.10210078721E+04  0.00000000000E+00 0. -1.
         22    1    3    3    0    0 -0.13955436616E+02  0.10339276393E+02  0.14054771585E+02  0.22342592772E+02  0.00000000000E+00 0. -1.
         22    1    3    3    0    0  0.52362191769E+02 -0.12945631629E+03 -0.11801549741E+03  0.18283433645E+03  0.00000000000E+00 0. -1.
</event>
<event>
 7    1  0.6058736E-006  0.4457745E+02  0.7818608E-02  0.1583300E+00
          2   -1    0    0  502    0  0.00000000000E+00  0.00000000000E+00  0.27151993477E+03  0.27151993477E+03  0.00000000000E+00 0. -1.
          1   -1    0    0  501    0 -0.00000000000E+00 -0.00000000000E+00 -0.47037639882E+03  0.47037639882E+03  0.00000000000E+00 0. -1.
         25    2    1    2    0    0 -0.14853159774E+01 -0.61560427840E+02  0.35975878567E+02  0.14390620074E+03  0.12499135303E+03 0.  0.
          2    1    1    2  501    0 -0.10548332512E+02  0.19411057613E+02 -0.41346666822E+03  0.41405644809E+03  0.00000000000E+00 0. -1.
          1    1    1    2  502    0  0.12033648489E+02  0.42149370227E+02  0.17863432560E+03  0.18393368476E+03  0.00000000000E+00 0. -1.
         22    1    3    3    0    0  0.37744356065E+02 -0.85318802490E+02  0.20677647744E+02  0.95558880222E+02  0.00000000000E+00 0. -1.
         22    1    3    3    0    0 -0.39229672042E+02  0.23758374650E+02  0.15298230823E+02  0.48347320514E+02  0.00000000000E+00 0. -1.
</event>
<event>
 7    1  0.6058736E-006  0.4421304E+02  0.7818608E-02  0.1481566E+00
          2   -1    0    0  502    0  0.00000000000E+00  0.00000000000E+00  0.28570354944E+03  0.28570354944E+03  0.00000000000E+00 0. -1.
          1   -1    0    0  501    0 -0.00000000000E+00 -0.00000000000E+00 -0.96410834556E+03  0.96410834556E+03  0.00000000000E+00 0. -1.
         25    2    1    2    0    0 -0.12624429117E+02  0.36230981661E+01 -0.25679714319E+03  0.28590600997E+03  0.12499988295E+03 0.  0.
          2    1    1    2  501    0  0.15140973222E+02  0.40797181999E+02 -0.69024186003E+03  0.69161223563E+03  0.00000000000E+00 0. -1.
          1    1    1    2  502    0 -0.25165441046E+01 -0.44420280165E+02  0.26863420709E+03  0.27229364940E+03  0.00000000000E+00 0. -1.
         22    1    3    3    0    0  0.34968324250E+01  0.17381103148E+01  0.14045101570E+02  0.14577851096E+02  0.00000000000E+00 0.  1.
         22    1    3    3    0    0 -0.16121261542E+02  0.18849878513E+01 -0.27084224476E+03  0.27132815888E+03  0.00000000000E+00 0.  1.
</event>
<event>
 7    1  0.6058736E-006  0.7775817E+02  0.7818608E-02  0.1505665E+00
          2   -1    0    0  502    0  0.00000000000E+00  0.00000000000E+00  0.51340378055E+03  0.51340378055E+03  0.00000000000E+00 0. -1.
          1   -1    0    0  501    0 -0.00000000000E+00 -0.00000000000E+00 -0.54766446360E+03  0.54766446360E+03  0.00000000000E+00 0. -1.
         25    2    1    2    0    0 -0.67274267694E+02  0.51542337924E+01 -0.36842972201E+03  0.39486600919E+03  0.12500524760E+03 0.  0.
          2    1    1    2  501    0  0.86754562467E+02  0.25172367208E+01 -0.15443380474E+03  0.17715103905E+03  0.00000000000E+00 0. -1.
          1    1    1    2  502    0 -0.19480294773E+02 -0.76714705132E+01  0.48860284371E+03  0.48905119591E+03  0.00000000000E+00 0. -1.
         22    1    3    3    0    0 -0.38581670970E+02 -0.48178052203E+02 -0.28597883296E+03  0.29256377587E+03  0.00000000000E+00 0.  1.
         22    1    3    3    0    0 -0.28692596724E+02  0.53332285996E+02 -0.82450889050E+02  0.10230223332E+03  0.00000000000E+00 0.  1.
</event>
<event>
 7    1  0.6058736E-006  0.7826554E+02  0.7818608E-02  0.1478616E+00
          2   -1    0    0  502    0  0.00000000000E+00  0.00000000000E+00  0.45519801306E+02  0.45519801306E+02  0.00000000000E+00 0. -1.
          1   -1    0    0  501    0 -0.00000000000E+00 -0.00000000000E+00 -0.10633385504E+04  0.10633385504E+04  0.00000000000E+00 0. -1.
         25    2    1    2    0    0 -0.57701299019E+02 -0.10723132136E+02 -0.12692966402E+03  0.18756444622E+03  0.12499942564E+03 0.  0.
          2    1    1    2  501    0  0.79454799321E+02 -0.17991220086E+01 -0.89260401013E+03  0.89613515771E+03  0.00000000000E+00 0. -1.
          1    1    1    2  502    0 -0.21753500302E+02  0.12522254145E+02  0.17149250040E+01  0.25158747823E+02  0.00000000000E+00 0. -1.
         22    1    3    3    0    0 -0.82689868840E+02 -0.73690078641E+01 -0.13718287017E+03  0.16034667615E+03  0.00000000000E+00 0. -1.
         22    1    3    3    0    0  0.24988569821E+02 -0.33541242724E+01  0.10253206152E+02  0.27217770072E+02  0.00000000000E+00 0. -1.
</event>
<event>
 7    1  0.6058736E-006  0.4193907E+02  0.7818608E-02  0.1521883E+00
          2   -1    0    0  502    0  0.00000000000E+00  0.00000000000E+00  0.12305729456E+04  0.12305729456E+04  0.00000000000E+00 0. -1.
          1   -1    0    0  501    0 -0.00000000000E+00 -0.00000000000E+00 -0.89141573880E+02  0.89141573880E+02  0.00000000000E+00 0. -1.
         25    2    1    2    0    0  0.16713899244E+02  0.18111103500E+02  0.45846375150E+03  0.47583719894E+03  0.12499864782E+03 0.  0.
          2    1    1    2  501    0  0.26994161012E+02 -0.21956737392E+02 -0.76029088158E+02  0.83613427700E+02  0.00000000000E+00 0. -1.
          1    1    1    2  502    0 -0.43708060256E+02  0.38456338919E+01  0.75899670840E+03  0.76026389287E+03  0.00000000000E+00 0. -1.
         22    1    3    3    0    0 -0.21455304608E+02  0.57544209204E+02  0.14291823039E+03  0.15555477070E+03  0.00000000000E+00 0. -1.
         22    1    3    3    0    0  0.38169203852E+02 -0.39433105704E+02  0.31554552111E+03  0.32028242824E+03  0.00000000000E+00 0. -1.
</event>
<event>
 7    1  0.6058736E-006  0.1441778E+03  0.7818608E-02  0.1260866E+00
          2   -1    0    0  502    0  0.00000000000E+00  0.00000000000E+00  0.18424356184E+03  0.18424356184E+03  0.00000000000E+00 0. -1.
          1   -1    0    0  501    0 -0.00000000000E+00 -0.00000000000E+00 -0.67385105998E+03  0.67385105998E+03  0.00000000000E+00 0. -1.
         25    2    1    2    0    0  0.25582881363E+02  0.10706402905E+03 -0.51118353380E+02  0.17422977362E+03  0.12500295127E+03 0.  0.
          2    1    1    2  501    0  0.49208921189E+02 -0.14459484839E+03 -0.53485554223E+03  0.55623703505E+03  0.00000000000E+00 0. -1.
          1    1    1    2  502    0 -0.74791802552E+02  0.37530819334E+02  0.96366397473E+02  0.12762781316E+03  0.00000000000E+00 0. -1.
         22    1    3    3    0    0 -0.12474411991E+02  0.51388080101E+02  0.36064073117E+02  0.64007523782E+02  0.00000000000E+00 0. -1.
         22    1    3    3    0    0  0.38057293353E+02  0.55675948951E+02 -0.87182426497E+02  0.11022224984E+03  0.00000000000E+00 0. -1.
</event>
<event>
 7    1  0.6058736E-006  0.7455601E+02  0.7818608E-02  0.1406186E+00
          2   -1    0    0  502    0  0.00000000000E+00  0.00000000000E+00  0.17431165267E+04  0.17431165267E+04  0.00000000000E+00 0. -1.
          1   -1    0    0  501    0 -0.00000000000E+00 -0.00000000000E+00 -0.77579179116E+03  0.77579179116E+03  0.00000000000E+00 0. -1.
         25    2    1    2    0    0 -0.42521735572E+02 -0.81151998224E+02  0.26019089470E+03  0.30284969558E+03  0.12499956647E+03 0.  0.
          2    1    1    2  501    0  0.44675909465E+02  0.68885555068E+01 -0.75283988099E+03  0.75419578061E+03  0.00000000000E+00 0. -1.
          1    1    1    2  502    0 -0.21541738935E+01  0.74263442717E+02  0.14599737218E+04  0.14618628417E+04  0.00000000000E+00 0. -1.
         22    1    3    3    0    0 -0.37536302158E+02 -0.27573546393E+02  0.24140172047E+03  0.24585374735E+03  0.00000000000E+00 0. -1.
         22    1    3    3    0    0 -0.49854334143E+01 -0.53578451831E+02  0.18789174236E+02  0.56995948236E+02  0.00000000000E+00 0. -1.
</event>
<event>
 7    1  0.6058736E-006  0.6794941E+02  0.7818608E-02  0.1513856E+00
          2   -1    0    0  502    0  0.00000000000E+00  0.00000000000E+00  0.26391148524E+03  0.26391148524E+03  0.00000000000E+00 0. -1.
          1   -1    0    0  501    0 -0.00000000000E+00 -0.00000000000E+00 -0.83192638820E+03  0.83192638820E+03  0.00000000000E+00 0. -1.
         25    2    1    2    0    0  0.54456566474E+02  0.10483378053E+02  0.14383191213E+02  0.13750415003E+03  0.12500038495E+03 0.  0.
          2    1    1    2  501    0  0.72268637922E+01  0.21481183243E+02 -0.76377264263E+03  0.76410883938E+03  0.00000000000E+00 0. -1.
          1    1    1    2  502    0 -0.61683430266E+02 -0.31964561296E+02  0.18137454845E+03  0.19422488402E+03  0.00000000000E+00 0. -1.
         22    1    3    3    0    0  0.73728634957E+02  0.49648332966E+02  0.25478348225E+02  0.92466290113E+02  0.00000000000E+00 0.  1.
         22    1    3    3    0    0 -0.19272068483E+02 -0.39164954913E+02 -0.11095157012E+02  0.45037859919E+02  0.00000000000E+00 0.  1.
</event>
<event>
 7    1  0.6058736E-006  0.1087709E+03  0.7818608E-02  0.1323084E+00
          2   -1    0    0  502    0  0.00000000000E+00  0.00000000000E+00  0.19137412707E+04  0.19137412707E+04  0.00000000000E+00 0. -1.
          1   -1    0    0  501    0 -0.00000000000E+00 -0.00000000000E+00 -0.11879517597E+04  0.11879517597E+04  0.00000000000E+00 0. -1.
         25    2    1    2    0    0 -0.11032363821E+03 -0.11133843587E+03  0.34954226751E+03  0.40295649559E+03  0.12500635230E+03 0.  0.
          2    1    1    2  501    0  0.18116434828E+02  0.59325944087E+02 -0.11585916243E+04  0.11602509749E+04  0.00000000000E+00 0. -1.
          1    1    1    2  502    0  0.92207203378E+02  0.52012491779E+02  0.15348388679E+04  0.15384855599E+04  0.00000000000E+00 0. -1.
         22    1    3    3    0    0 -0.82551666833E+02 -0.13097627791E+03  0.21995123105E+03  0.26897603446E+03  0.00000000000E+00 0.  1.
         22    1    3    3    0    0 -0.27771971372E+02  0.19637842049E+02  0.12959103646E+03  0.13398046113E+03  0.00000000000E+00 0.  1.
</event>
<event>
 7    1  0.6058736E-006  0.1589012E+03  0.7818608E-02  0.1190821E+00
          2   -1    0    0  502    0  0.00000000000E+00  0.00000000000E+00  0.66908050829E+03  0.66908050829E+03  0.00000000000E+00 0. -1.
          1   -1    0    0  501    0 -0.00000000000E+00 -0.00000000000E+00 -0.11742986959E+03  0.11742986959E+03  0.00000000000E+00 0. -1.
         25    2    1    2    0    0 -0.16121740370E+03 -0.19556559448E+02  0.25024199683E+03  0.32345021882E+03  0.12500190720E+03 0.  0.
          2    1    1    2  501    0  0.29287434016E+02  0.15617883226E+03  0.10892199156E+03  0.19264885591E+03  0.00000000000E+00 0. -1.
          1    1    1    2  502    0  0.13192996969E+03 -0.13662227281E+03  0.19248665031E+03  0.27041130316E+03  0.00000000000E+00 0. -1.
         22    1    3    3    0    0 -0.15476809950E+03 -0.53068481549E+02  0.23432745787E+03  0.28579500672E+03  0.00000000000E+00 0. -1.
         22    1    3    3    0    0 -0.64493042032E+01  0.33511922101E+02  0.15914538958E+02  0.37655212094E+02  0.00000000000E+00 0. -1.
</event>
<event>
 7    1  0.6058736E-006  0.1503013E+03  0.7818608E-02  0.1288635E+00
          2   -1    0    0  502    0  0.00000000000E+00  0.00000000000E+00  0.36998371473E+03  0.36998371473E+03  0.00000000000E+00 0. -1.
          1   -1    0    0  501    0 -0.00000000000E+00 -0.00000000000E+00 -0.42402326590E+03  0.42402326590E+03  0.00000000000E+00 0. -1.
         25    2    1    2    0    0 -0.93921058728E+02  0.14741654284E+03 -0.18231255517E+02  0.21566173537E+03  0.12499921218E+03 0.  0.
          2    1    1    2  501    0  0.11654931629E+03 -0.90238750284E+02 -0.28543965899E+03  0.32125157448E+03  0.00000000000E+00 0. -1.
          1    1    1    2  502    0 -0.22628257558E+02 -0.57177792559E+02  0.24963136334E+03  0.25709367080E+03  0.00000000000E+00 0. -1.
         22    1    3    3    0    0 -0.59382439845E+02  0.96569025675E+02 -0.71746284594E+02  0.13416176890E+03  0.00000000000E+00 0. -1.
         22    1    3    3    0    0 -0.34538618883E+02  0.50847517168E+02  0.53515029077E+02  0.81499966464E+02  0.00000000000E+00 0. -1.
</event>
<event>
 7    1  0.6058736E-006  0.6677092E+02  0.7818608E-02  0.1457000E+00
          2   -1    0    0  502    0  0.00000000000E+00  0.00000000000E+00  0.86531198940E+02  0.86531198940E+02  0.00000000000E+00 0. -1.
          1   -1    0    0  501    0 -0.00000000000E+00 -0.00000000000E+00 -0.20697701113E+03  0.20697701113E+03  0.00000000000E+00 0. -1.
         25    2    1    2    0    0  0.67510486321E+02 -0.14145205996E+02 -0.87326309033E+02  0.16735841539E+03  0.12500080934E+03 0.  0.
          2    1    1    2  501    0 -0.16215924485E+02 -0.30298035607E+02 -0.45643804125E+02  0.57133913078E+02  0.00000000000E+00 0. -1.
          1    1    1    2  502    0 -0.51294561836E+02  0.44443241603E+02  0.12524300972E+02  0.69015881600E+02  0.00000000000E+00 0. -1.
         22    1    3    3    0    0 -0.65620733814E+01 -0.56753701057E+02 -0.30850119255E+02  0.64928986199E+02  0.00000000000E+00 0. -1.
         22    1    3    3    0    0  0.74072559702E+02  0.42608495061E+02 -0.56476189778E+02  0.10242942919E+03  0.00000000000E+00 0. -1.
</event>
<event>
 7    1  0.6058736E-006  0.5879725E+02  0.7818608E-02  0.1408552E+00
          2   -1    0    0  502    0  0.00000000000E+00  0.00000000000E+00  0.84630124923E+03  0.84630124923E+03  0.00000000000E+00 0. -1.
          1   -1    0    0  501    0 -0.00000000000E+00 -0.00000000000E+00 -0.51335298768E+02  0.51335298768E+02  0.00000000000E+00 0. -1.
         25    2    1    2    0    0 -0.21017353325E+02 -0.22838696596E+02  0.45414165593E+03  0.47205208915E+03  0.12500078405E+03 0.  0.
          2    1    1    2  501    0  0.36735167835E+02 -0.45909079654E+02 -0.16738620527E+02  0.61133440666E+02  0.00000000000E+00 0. -1.
          1    1    1    2  502    0 -0.15717814509E+02  0.68747776250E+02  0.35756291506E+03  0.36445101818E+03  0.00000000000E+00 0. -1.
         22    1    3    3    0    0  0.52289648139E+02 -0.10638046551E+02  0.15979956043E+03  0.16847336540E+03  0.00000000000E+00 0. -1.
         22    1    3    3    0    0 -0.73307001464E+02 -0.12200650044E+02  0.29434209550E+03  0.30357872374E+03  0.00000000000E+00 0. -1.
</event>
<event>
 7    1  0.6058736E-006  0.1028079E+03  0.7818608E-02  0.1290190E+00
          2   -1    0    0  502    0  0.00000000000E+00  0.00000000000E+00  0.21490906823E+03  0.21490906823E+03  0.00000000000E+00 0. -1.
          1   -1    0    0  501    0 -0.00000000000E+00 -0.00000000000E+00 -0.54621264741E+03  0.54621264741E+03  0.00000000000E+00 0. -1.
         25    2    1    2    0    0 -0.25328427478E+02 -0.13076059647E+02 -0.39069030540E+02  0.13406373276E+03  0.12503672549E+03 0.  0.
          2    1    1    2  501    0 -0.40503827042E+02  0.94492856359E+02 -0.43670114081E+03  0.44863943907E+03  0.00000000000E+00 0. -1.
          1    1    1    2  502    0  0.65832254520E+02 -0.81416796713E+02  0.14446659216E+03  0.17841854381E+03  0.00000000000E+00 0. -1.
         22    1    3    3    0    0 -0.13480670651E+01 -0.61590965486E+02  0.82757128235E+01  0.62159084108E+02  0.00000000000E+00 0.  1.
         22    1    3    3    0    0 -0.23980360413E+02  0.48514905840E+02 -0.47344743364E+02  0.71904648656E+02  0.00000000000E+00 0.  1.
</event>
<event>
 7    1  0.6058736E-006  0.1031555E+03  0.7818608E-02  0.1294466E+00
          2   -1    0    0  502    0  0.00000000000E+00  0.00000000000E+00  0.37324377158E+02  0.37324377158E+02  0.00000000000E+00 0. -1.
          1   -1    0    0  501    0 -0.00000000000E+00 -0.00000000000E+00 -0.92235452236E+03  0.92235452236E+03  0.00000000000E+00 0. -1.
         25    2    1    2    0    0 -0.35681686449E+02  0.43651451949E+02 -0.29448266872E+03  0.32484541450E+03  0.12500347651E+03 0.  0.
          2    1    1    2  501    0 -0.90879243716E+02 -0.48805875592E+02 -0.31748411622E+03  0.33382213001E+03  0.00000000000E+00 0. -1.
          1    1    1    2  502    0  0.12656093017E+03  0.51544236432E+01 -0.27306336027E+03  0.30101135501E+03  0.00000000000E+00 0. -1.
         22    1    3    3    0    0 -0.31410443702E+01  0.22684584326E+02 -0.28375269042E+03  0.28467533410E+03  0.00000000000E+00 0. -1.
         22    1    3    3    0    0 -0.32540642079E+02  0.20966867623E+02 -0.10729978300E+02  0.40170080398E+02  0.00000000000E+00 0. -1.
</event>
<event>
 7    1  0.6058736E-006  0.4551809E+02  0.7818608E-02  0.1516640E+00
          2   -1    0    0  502    0  0.00000000000E+00  0.00000000000E+00  0.54696715570E+03  0.54696715570E+03  0.00000000000E+00 0. -1.
          1   -1    0    0  501    0 -0.00000000000E+00 -0.00000000000E+00 -0.28602946601E+03  0.28602946601E+03  0.00000000000E+00 0. -1.
         25    2    1    2    0    0  0.57267711736E+02 -0.32009180993E+02  0.21529532769E+03  0.25746947849E+03  0.12503709750E+03 0.  0.
          2    1    1    2  501    0 -0.24635625950E+02  0.38152009869E+02 -0.26209651493E+03  0.26600201703E+03  0.00000000000E+00 0. -1.
          1    1    1    2  502    0 -0.32632085786E+02 -0.61428288760E+01  0.30773887693E+03  0.30952512619E+03  0.00000000000E+00 0. -1.
         22    1    3    3    0    0  0.60836872976E+02 -0.59636798295E+02  0.21313292633E+03  0.22952846689E+03  0.00000000000E+00 0.  1.
         22    1    3    3    0    0 -0.35691612405E+01  0.27627617302E+02  0.21624013643E+01  0.27941011603E+02  0.00000000000E+00 0.  1.
</event>
<event>
 7    1  0.6058736E-006  0.7203268E+02  0.7818608E-02  0.1503606E+00
          2   -1    0    0  502    0  0.00000000000E+00  0.00000000000E+00  0.48219398861E+02  0.48219398861E+02  0.00000000000E+00 0. -1.
          1   -1    0    0  501    0 -0.00000000000E+00 -0.00000000000E+00 -0.99431174424E+03  0.99431174424E+03  0.00000000000E+00 0. -1.
         25    2    1    2    0    0 -0.17751811511E+02 -0.53534953231E+02 -0.54453774474E+03  0.56154040902E+03  0.12500062994E+03 0.  0.
          2    1    1    2  501    0  0.18196969444E+02  0.76451108313E+02 -0.43411565365E+03  0.44117151132E+03  0.00000000000E+00 0. -1.
          1    1    1    2  502    0 -0.44515793306E+00 -0.22916155082E+02  0.32561053001E+02  0.39819222768E+02  0.00000000000E+00 0. -1.
         22    1    3    3    0    0 -0.43342824222E+02  0.25276574786E+01 -0.42347231170E+03  0.42569212847E+03  0.00000000000E+00 0.  1.
         22    1    3    3    0    0  0.25591012712E+02 -0.56062610710E+02 -0.12106543304E+03  0.13584828055E+03  0.00000000000E+00 0.  1.
</event>
<event>
 7    1  0.6058736E-006  0.7931996E+02  0.7818608E-02  0.1340355E+00
          2   -1    0    0  502    0  0.00000000000E+00  0.00000000000E+00  0.13781692884E+04  0.13781692884E+04  0.00000000000E+00 0. -1.
          1   -1    0    0  501    0 -0.00000000000E+00 -0.00000000000E+00 -0.12105041252E+03  0.12105041252E+03  0.00000000000E+00 0. -1.
         25    2    1    2    0    0  0.24171439511E+02 -0.12798130679E+03  0.47837179330E+03  0.51130069181E+03  0.12500140577E+03 0.  0.
          2    1    1    2  501    0  0.25228522866E+02  0.74097565896E+02 -0.88183373965E+02  0.11791198023E+03  0.00000000000E+00 0. -1.
          1    1    1    2  502    0 -0.49399962378E+02  0.53883740898E+02  0.86693045656E+03  0.87000702890E+03  0.00000000000E+00 0. -1.
         22    1    3    3    0    0  0.60902515631E+01 -0.39518059709E+02  0.36104606525E+03  0.36325339563E+03  0.00000000000E+00 0. -1.
         22    1    3    3    0    0  0.18081187948E+02 -0.88463247085E+02  0.11732572805E+03  0.14804729617E+03  0.00000000000E+00 0. -1.
</event>
<event>
 7    1  0.6058736E-006  0.1662670E+03  0.7818608E-02  0.1248112E+00
          2   -1    0    0  502    0  0.00000000000E+00  0.00000000000E+00  0.63638228283E+02  0.63638228283E+02  0.00000000000E+00 0. -1.
          1   -1    0    0  501    0 -0.00000000000E+00 -0.00000000000E+00 -0.11042963544E+04  0.11042963544E+04  0.00000000000E+00 0. -1.
         25    2    1    2    0    0 -0.11199183472E+02 -0.37584024481E+02 -0.39978132143E+03  0.42069345511E+03  0.12497958874E+03 0.  0.
          2    1    1    2  501    0  0.17420410158E+03  0.48103710900E+01 -0.49938337578E+03  0.52891772959E+03  0.00000000000E+00 0. -1.
          1    1    1    2  502    0 -0.16300491811E+03  0.32773653391E+02 -0.14149342893E+03  0.21832339800E+03  0.00000000000E+00 0. -1.
         22    1    3    3    0    0  0.44552471191E+02  0.11323285082E+02 -0.78551109667E+02  0.91013275428E+02  0.00000000000E+00 0. -1.
         22    1    3    3    0    0 -0.55751654664E+02 -0.48907309562E+02 -0.32123021176E+03  0.32968017968E+03  0.00000000000E+00 0. -1.
</event>
<event>
 7    1  0.6058736E-006  0.1042493E+03  0.7818608E-02  0.1352764E+00
          2   -1    0    0  502    0  0.00000000000E+00  0.00000000000E+00  0.10285729534E+04  0.10285729534E+04  0.00000000000E+00 0. -1.
          1   -1    0    0  501    0 -0.00000000000E+00 -0.00000000000E+00 -0.23870901176E+03  0.23870901176E+03  0.00000000000E+00 0. -1.
         25    2    1    2    0    0 -0.15219317714E+03 -0.14148986293E+02  0.43418207982E+03  0.47697194254E+03  0.12500079423E+03 0.  0.
          2    1    1    2  501    0  0.10222994300E+03  0.12097966481E+02 -0.20394513327E+03  0.22845336378E+03  0.00000000000E+00 0. -1.
          1    1    1    2  502    0  0.49963234136E+02  0.20510198125E+01  0.55962699511E+03  0.56185665886E+03  0.00000000000E+00 0. -1.
         22    1    3    3    0    0 -0.11535960655E+02  0.48225034337E+01 -0.64332312725E+01  0.14061343898E+02  0.00000000000E+00 0.  1.
         22    1    3    3    0    0 -0.14065721648E+03 -0.18971489727E+02  0.44061531109E+03  0.46291059865E+03  0.00000000000E+00 0.  1.
</event>
<event>
 7    1  0.7935421E-006  0.1038283E+03  0.7818608E-02  0.1403650E+00
          2   -1    0    0  502    0  0.00000000000E+00  0.00000000000E+00  0.20394948329E+04  0.20394948329E+04  0.00000000000E+00 0. -1.
          1   -1    0    0  501    0 -0.00000000000E+00 -0.00000000000E+00 -0.25167101342E+04  0.25167101342E+04  0.00000000000E+00 0. -1.
         25    2    1    2    0    0 -0.58766211209E+02  0.40877426300E+02 -0.19814006287E+03  0.24496828367E+03  0.12500217570E+03 0.  0.
          2    1    1    2  501    0 -0.30948273259E+02  0.11776910678E+02 -0.22936945192E+04  0.22939335297E+04  0.00000000000E+00 0. -1.
          1    1    1    2  502    0  0.89714484467E+02 -0.52654336977E+02  0.20146192807E+04  0.20173031538E+04  0.00000000000E+00 0. -1.
         22    1    3    3    0    0  0.22449280583E+02 -0.14063924981E+02 -0.31049860001E+01  0.26672178813E+02  0.00000000000E+00 0.  1.
         22    1    3    3    0    0 -0.81215491791E+02  0.54941351280E+02 -0.19503507687E+03  0.21829610486E+03  0.00000000000E+00 0.  1.
</event>
<event>
 7    1  0.6058736E-006  0.7550286E+02  0.7818608E-02  0.1385976E+00
          2   -1    0    0  502    0  0.00000000000E+00  0.00000000000E+00  0.74029532232E+02  0.74029532232E+02  0.00000000000E+00 0. -1.
          1   -1    0    0  501    0 -0.00000000000E+00 -0.00000000000E+00 -0.11289185078E+04  0.11289185078E+04  0.00000000000E+00 0. -1.
         25    2    1    2    0    0 -0.10018543424E+02  0.12200896531E+03 -0.45076826488E+03  0.48353348302E+03  0.12500416692E+03 0.  0.
          2    1    1    2  501    0  0.82533542490E+01 -0.69606548994E+02 -0.64754962553E+03  0.65133225549E+03  0.00000000000E+00 0. -1.
          1    1    1    2  502    0  0.17651891754E+01 -0.52402416315E+02  0.43428914878E+02  0.68082301488E+02  0.00000000000E+00 0. -1.
         22    1    3    3    0    0  0.67732282899E+01 -0.21665780839E+02 -0.12570123426E+03  0.12773442361E+03  0.00000000000E+00 0.  1.
         22    1    3    3    0    0 -0.16791771714E+02  0.14367474615E+03 -0.32506703062E+03  0.35579905941E+03  0.00000000000E+00 0.  1.
</event>
<event>
 7    1  0.6058736E-006  0.9096079E+02  0.7818608E-02  0.1323896E+00
          2   -1    0    0  502    0  0.00000000000E+00  0.00000000000E+00  0.47070863068E+03  0.47070863068E+03  0.00000000000E+00 0. -1.
          1   -1    0    0  501    0 -0.00000000000E+00 -0.00000000000E+00 -0.25053170093E+03  0.25053170093E+03  0.00000000000E+00 0. -1.
         25    2    1    2    0    0 -0.25810948466E+02 -0.55171637174E+01 -0.14626375696E+03  0.19420203884E+03  0.12499880453E+03 0.  0.
          2    1    1    2  501    0 -0.58627963491E+02  0.44564861227E+02 -0.57235030100E+02  0.93269038967E+02  0.00000000000E+00 0. -1.
          1    1    1    2  502    0  0.84438911957E+02 -0.39047697510E+02  0.42367571681E+03  0.43376925380E+03  0.00000000000E+00 0. -1.
         22    1    3    3    0    0  0.25534054361E+02  0.39361228716E+02 -0.20628910323E+02  0.51252767723E+02  0.00000000000E+00 0.  1.
         22    1    3    3    0    0 -0.51345002827E+02 -0.44878392434E+02 -0.12563484664E+03  0.14294927112E+03  0.00000000000E+00 0.  1.
</event>
<event>
 7    1  0.6058736E-006  0.6719122E+02  0.7818608E-02  0.1430211E+00
          2   -1    0    0  502    0  0.00000000000E+00  0.00000000000E+00  0.26252150368E+03  0.26252150368E+03  0.00000000000E+00 0. -1.
          1   -1    0    0  501    0 -0.00000000000E+00 -0.00000000000E+00 -0.63045319940E+02  0.63045319940E+02  0.00000000000E+00 0. -1.
         25    2    1    2    0    0 -0.51402738440E+02 -0.54061713761E+02  0.12131830789E+03  0.18949474035E+03  0.12500085751E+03 0.  0.
          2    1    1    2  501    0  0.39720917175E+02 -0.12616379772E+02  0.17585651274E+02  0.45234714882E+02  0.00000000000E+00 0. -1.
          1    1    1    2  502    0  0.11681821265E+02  0.66678093532E+02  0.60572224569E+02  0.90837368381E+02  0.00000000000E+00 0. -1.
         22    1    3    3    0    0 -0.43660547764E+02 -0.92656853497E+02  0.66932752837E+02  0.12235820092E+03  0.00000000000E+00 0.  1.
         22    1    3    3    0    0 -0.77421906756E+01  0.38595139736E+02  0.54385555057E+02  0.67136539430E+02  0.00000000000E+00 0.  1.
</event>
<event>
 7    1  0.6058736E-006  0.1003640E+03  0.7818608E-02  0.1310229E+00
          2   -1    0    0  502    0  0.00000000000E+00  0.00000000000E+00  0.17105788229E+04  0.17105788229E+04  0.00000000000E+00 0. -1.
          1   -1    0    0  501    0 -0.00000000000E+00 -0.00000000000E+00 -0.90780288342E+03  0.90780288342E+03  0.00000000000E+00 0. -1.
         25    2    1    2    0    0 -0.16741353065E+02  0.16742997361E+03  0.90124106325E+02  0.22816807211E+03  0.12500098249E+03 0.  0.
          2    1    1    2  501    0  0.32639746490E+02 -0.93670798226E+02 -0.83492583778E+03  0.84079767250E+03  0.00000000000E+00 0. -1.
          1    1    1    2  502    0 -0.15898393425E+02 -0.73759175388E+02  0.15475776710E+04  0.15494159618E+04  0.00000000000E+00 0. -1.
         22    1    3    3    0    0  0.16234689954E+02 -0.26602990060E+01  0.46755473397E+02  0.49565276569E+02  0.00000000000E+00 0. -1.
         22    1    3    3    0    0 -0.32976043020E+02  0.17009027262E+03  0.43368632927E+02  0.17860279554E+03  0.00000000000E+00 0. -1.
</event>
<event>
 7    1  0.6058736E-006  0.7448943E+02  0.7818608E-02  0.1400677E+00
          2   -1    0    0  502    0  0.00000000000E+00  0.00000000000E+00  0.21177177015E+03  0.21177177015E+03  0.00000000000E+00 0. -1.
          1   -1    0    0  501    0 -0.00000000000E+00 -0.00000000000E+00 -0.97090240820E+03  0.97090240820E+03  0.00000000000E+00 0. -1.
         25    2    1    2    0    0  0.27356066300E+02  0.10007275794E+03 -0.27829304751E+03  0.32223154889E+03  0.12499295806E+03 0.  0.
          2    1    1    2  501    0 -0.45561528132E+02 -0.56469422337E+02 -0.66569715911E+03  0.66963972116E+03  0.00000000000E+00 0. -1.
          1    1    1    2  502    0  0.18205461831E+02 -0.43603335605E+02  0.18485956858E+03  0.19080290829E+03  0.00000000000E+00 0. -1.
         22    1    3    3    0    0  0.25704755086E+02  0.47866819868E+02 -0.18736889619E+02  0.57472062003E+02  0.00000000000E+00 0. -1.
         22    1    3    3    0    0  0.16513112139E+01  0.52205938074E+02 -0.25955615789E+03  0.26475948689E+03  0.00000000000E+00 0. -1.
</event>
<event>
 7    1  0.6058736E-006  0.1180662E+03  0.7818608E-02  0.1330335E+00
          2   -1    0    0  502    0  0.00000000000E+00  0.00000000000E+00  0.78360716633E+03  0.78360716633E+03  0.00000000000E+00 0. -1.
          1   -1    0    0  501    0 -0.00000000000E+00 -0.00000000000E+00 -0.63140656065E+03  0.63140656065E+03  0.00000000000E+00 0. -1.
         25    2    1    2    0    0 -0.36534733447E+02 -0.12448008521E+03  0.21464857000E+03  0.28023042141E+03  0.12500000847E+03 0.  0.
          2    1    1    2  501    0 -0.40279252743E+02  0.35360167150E+02 -0.59093365613E+03  0.59335937303E+03  0.00000000000E+00 0. -1.
          1    1    1    2  502    0  0.76813986190E+02  0.89119918064E+02  0.52848569181E+03  0.54142393253E+03  0.00000000000E+00 0. -1.
         22    1    3    3    0    0 -0.36226737160E+02  0.16022259264E+02  0.49632829682E+02  0.63502024057E+02  0.00000000000E+00 0. -1.
         22    1    3    3    0    0 -0.30799628728E+00 -0.14050234448E+03  0.16501574032E+03  0.21672839735E+03  0.00000000000E+00 0. -1.
</event>
<event>
 7    1  0.6058736E-006  0.1253380E+03  0.7818608E-02  0.1379656E+00
          2   -1    0    0  502    0  0.00000000000E+00  0.00000000000E+00  0.10127164161E+04  0.10127164161E+04  0.00000000000E+00 0. -1.
          1   -1    0    0  501    0 -0.00000000000E+00 -0.00000000000E+00 -0.31557513623E+03  0.31557513623E+03  0.00000000000E+00 0. -1.
         25    2    1    2    0    0 -0.35642559291E+02  0.12001685074E+03  0.44291474697E+02  0.18237421028E+03  0.12499672536E+03 0.  0.
          2    1    1    2  501    0  0.29139818561E+01 -0.12587132795E+03 -0.23012550636E+03  0.26231628078E+03  0.00000000000E+00 0. -1.
          1    1    1    2  502    0  0.32728577435E+02  0.58544772024E+01  0.88297531157E+03  0.88360106130E+03  0.00000000000E+00 0. -1.
         22    1    3    3    0    0 -0.45676023186E+02  0.14376740155E+03  0.34133446148E+02  0.15466239682E+03  0.00000000000E+00 0.  1.
         22    1    3    3    0    0  0.10033463896E+02 -0.23750550811E+02  0.10158028549E+02  0.27711813466E+02  0.00000000000E+00 0.  1.
</event>
<event>
 7    1  0.6058736E-006  0.1281874E+03  0.7818608E-02  0.1307363E+00
          2   -1    0    0  502    0  0.00000000000E+00  0.00000000000E+00  0.65822590470E+03  0.65822590470E+03  0.00000000000E+00 0. -1.
          1   -1    0    0  501    0 -0.00000000000E+00 -0.00000000000E+00 -0.67308756858E+03  0.67308756858E+03  0.00000000000E+00 0. -1.
         25    2    1    2    0    0  0.48100185227E+02 -0.58542546543E+02  0.64344707846E+02  0.15970826609E+03  0.12500252499E+03 0.  0.
          2    1    1    2  501    0 -0.10515955805E+03  0.79056892254E+02 -0.61676349837E+03  0.63063915021E+03  0.00000000000E+00 0. -1.
          1    1    1    2  502    0  0.57059372820E+02 -0.20514345711E+02  0.53755712664E+03  0.54096605698E+03  0.00000000000E+00 0. -1.
         22    1    3    3    0    0  0.38296332127E+02 -0.97464743988E+02  0.36666241705E+02  0.11095223592E+03  0.00000000000E+00 0. -1.
         22    1    3    3    0    0  0.98038531001E+01  0.38922197445E+02  0.27678466141E+02  0.48756030165E+02  0.00000000000E+00 0. -1.
</event>
<event>
 7    1  0.6058736E-006  0.1269824E+03  0.7818608E-02  0.1246091E+00
          2   -1    0    0  502    0  0.00000000000E+00  0.00000000000E+00  0.38468350939E+03  0.38468350939E+03  0.00000000000E+00 0. -1.
          1   -1    0    0  501    0 -0.00000000000E+00 -0.00000000000E+00 -0.11367504527E+04  0.11367504527E+04  0.00000000000E+00 0. -1.
         25    2    1    2    0    0  0.76308380532E+02 -0.12107208822E+03 -0.14518850542E+03  0.23914207297E+03  0.12501123738E+03 0.  0.
          2    1    1    2  501    0 -0.10998449786E+03 -0.31973273102E+01 -0.92894745462E+03  0.93544117191E+03  0.00000000000E+00 0. -1.
          1    1    1    2  502    0  0.33676117325E+02  0.12426941553E+03  0.32206901671E+03  0.34685071722E+03  0.00000000000E+00 0. -1.
         22    1    3    3    0    0  0.29059918815E+02 -0.10551747648E+03 -0.15369079706E+03  0.18867770887E+03  0.00000000000E+00 0.  1.
         22    1    3    3    0    0  0.47248461717E+02 -0.15554611740E+02  0.85022916344E+01  0.50464364101E+02  0.00000000000E+00 0.  1.
</event>
<event>
 7    1  0.6058736E-006  0.6383987E+02  0.7818608E-02  0.1465362E+00
          2   -1    0    0  502    0  0.00000000000E+00  0.00000000000E+00  0.21057926830E+04  0.21057926830E+04  0.00000000000E+00 0. -1.
          1   -1    0    0  501    0 -0.00000000000E+00 -0.00000000000E+00 -0.60665059624E+02  0.60665059624E+02  0.00000000000E+00 0. -1.
         25    2    1    2    0    0  0.81593996772E+02 -0.33597391857E+02  0.30450909795E+03  0.34078946121E+03  0.12500120434E+03 0.  0.
          2    1    1    2  501    0 -0.18615723701E+02  0.28244696402E+02 -0.35145211401E+02  0.48780056665E+02  0.00000000000E+00 0. -1.
          1    1    1    2  502    0 -0.62978273071E+02  0.53526954543E+01  0.17757637368E+04  0.17768882248E+04  0.00000000000E+00 0. -1.
         22    1    3    3    0    0  0.34092805467E+00 -0.30487466727E+02  0.55763243235E+01  0.30995116588E+02  0.00000000000E+00 0.  1.
         22    1    3    3    0    0  0.81253068717E+02 -0.31099251300E+01  0.29893277362E+03  0.30979434462E+03  0.00000000000E+00 0.  1.
</event>
<event>
 7    1  0.6058736E-006  0.6189004E+02  0.7818608E-02  0.1427584E+00
          2   -1    0    0  502    0  0.00000000000E+00  0.00000000000E+00  0.56984442573E+03  0.56984442573E+03  0.00000000000E+00 0. -1.
          1   -1    0    0  501    0 -0.00000000000E+00 -0.00000000000E+00 -0.35339609414E+03  0.35339609414E+03  0.00000000000E+00 0. -1.
         25    2    1    2    0    0 -0.42918132101E+02 -0.88459776717E+02  0.40340340139E+02  0.16407340361E+03  0.12500256225E+03 0.  0.
          2    1    1    2  501    0  0.60983430896E+01  0.60623990607E+02 -0.28718656304E+03  0.29357891617E+03  0.00000000000E+00 0. -1.
          1    1    1    2  502    0  0.36819789012E+02  0.27835786110E+02  0.46329455449E+03  0.46558820010E+03  0.00000000000E+00 0. -1.
         22    1    3    3    0    0 -0.33872720777E+02 -0.98416043806E+02  0.74078476067E+02  0.12775249316E+03  0.00000000000E+00 0.  1.
         22    1    3    3    0    0 -0.90454113242E+01  0.99562670887E+01 -0.33738135928E+02  0.36320910455E+02  0.00000000000E+00 0.  1.
</event>
<event>
 7    1  0.6058736E-006  0.9005162E+02  0.7818608E-02  0.1449154E+00
          2   -1    0    0  502    0  0.00000000000E+00  0.00000000000E+00  0.17077226030E+04  0.17077226030E+04  0.00000000000E+00 0. -1.
          1   -1    0    0  501    0 -0.00000000000E+00 -0.00000000000E+00 -0.20955570248E+04  0.20955570248E+04  0.00000000000E+00 0. -1.
         25    2    1    2    0    0  0.11169614493E+03  0.20407892274E+01  0.55520479146E+03  0.57996367438E+03  0.12500123812E+03 0.  0.
          2    1    1    2  501    0 -0.89111285059E+02  0.12736976539E+02 -0.20820452032E+04  0.20839902303E+04  0.00000000000E+00 0. -1.
          1    1    1    2  502    0 -0.22584859868E+02 -0.14777765766E+02  0.11390059900E+04  0.11393257231E+04  0.00000000000E+00 0. -1.
         22    1    3    3    0    0  0.10037601083E+03  0.12785166453E+02  0.19744231931E+03  0.22186093276E+03  0.00000000000E+00 0. -1.
         22    1    3    3    0    0  0.11320134097E+02 -0.10744377226E+02  0.35776247215E+03  0.35810274162E+03  0.00000000000E+00 0. -1.
</event>
<event>
 7    1  0.6058736E-006  0.2432459E+02  0.7818608E-02  0.1676534E+00
          2   -1    0    0  502    0  0.00000000000E+00  0.00000000000E+00  0.22974827216E+03  0.22974827216E+03  0.00000000000E+00 0. -1.
          1   -1    0    0  501    0 -0.00000000000E+00 -0.00000000000E+00 -0.26871932868E+03  0.26871932868E+03  0.00000000000E+00 0. -1.
         25    2    1    2    0    0  0.17597659145E+02  0.36923317682E+02  0.61531851946E+02  0.14520385706E+03  0.12499992922E+03 0.  0.
          2    1    1    2  501    0  0.23005960222E+01 -0.23471739861E+02 -0.22512056748E+03  0.22635256839E+03  0.00000000000E+00 0. -1.
          1    1    1    2  502    0 -0.19898255167E+02 -0.13451577822E+02  0.12461765901E+03  0.12691117540E+03  0.00000000000E+00 0. -1.
         22    1    3    3    0    0 -0.70605189149E+01 -0.98752907317E+01 -0.33946261974E+02  0.36051643463E+02  0.00000000000E+00 0. -1.
         22    1    3    3    0    0  0.24658178060E+02  0.46798608414E+02  0.95478113920E+02  0.10915221359E+03  0.00000000000E+00 0. -1.
</event>
<event>
 7    1  0.6058736E-006  0.8489875E+02  0.7818608E-02  0.1339828E+00
          2   -1    0    0  502    0  0.00000000000E+00  0.00000000000E+00  0.10533495829E+04  0.10533495829E+04  0.00000000000E+00 0. -1.
          1   -1    0    0  501    0 -0.00000000000E+00 -0.00000000000E+00 -0.25789157365E+02  0.25789157365E+02  0.00000000000E+00 0. -1.
         25    2    1    2    0    0 -0.30948666049E+02  0.50785800582E+01  0.44085418177E+03  0.45930516442E+03  0.12500085029E+03 0.  0.
          2    1    1    2  501    0 -0.79524856910E+02 -0.29725334011E+02  0.29369839596E+03  0.30572298922E+03  0.00000000000E+00 0. -1.
          1    1    1    2  502    0  0.11047352296E+03  0.24646753953E+02  0.29300784783E+03  0.31411058665E+03  0.00000000000E+00 0. -1.
         22    1    3    3    0    0 -0.71727022977E+02 -0.26224013116E+01  0.15947998775E+03  0.17488713305E+03  0.00000000000E+00 0.  1.
         22    1    3    3    0    0  0.40778356928E+02  0.77009813698E+01  0.28137419402E+03  0.28441803136E+03  0.00000000000E+00 0.  1.
</event>
<event>
 7    1  0.6058736E-006  0.7908073E+02  0.7818608E-02  0.1502540E+00
          2   -1    0    0  502    0  0.00000000000E+00  0.00000000000E+00  0.55935384764E+03  0.55935384764E+03  0.00000000000E+00 0. -1.
          1   -1    0    0  501    0 -0.00000000000E+00 -0.00000000000E+00 -0.35034234440E+03  0.35034234440E+03  0.00000000000E+00 0. -1.
         25    2    1    2    0    0  0.78118636665E+02 -0.14588842266E+02  0.35912698802E+01  0.14816745774E+03  0.12500137040E+03 0.  0.
          2    1    1    2  501    0 -0.68354201484E+01 -0.19888696230E+02 -0.27440704014E+03  0.27521174918E+03  0.00000000000E+00 0. -1.
          1    1    1    2  502    0 -0.71283216516E+02  0.34477538495E+02  0.47982727350E+03  0.48631698512E+03  0.00000000000E+00 0. -1.
         22    1    3    3    0    0  0.24009844957E+02  0.32844274618E+02 -0.45518272706E+02  0.61050243081E+02  0.00000000000E+00 0. -1.
         22    1    3    3    0    0  0.54108791708E+02 -0.47433116884E+02  0.49109542586E+02  0.87117214662E+02  0.00000000000E+00 0. -1.
</event>
<event>
 7    1  0.6058736E-006  0.3524182E+02  0.7818608E-02  0.1551549E+00
          2   -1    0    0  502    0  0.00000000000E+00  0.00000000000E+00  0.28768307833E+03  0.28768307833E+03  0.00000000000E+00 0. -1.
          1   -1    0    0  501    0 -0.00000000000E+00 -0.00000000000E+00 -0.22585381841E+03  0.22585381841E+03  0.00000000000E+00 0. -1.
         25    2    1    2    0    0 -0.25803773516E+02 -0.21705075958E+02 -0.11203035834E+03  0.17121212328E+03  0.12500337963E+03 0.  0.
          2    1    1    2  501    0 -0.76619255906E+01  0.33236118690E+02 -0.79498284265E+02  0.86506195676E+02  0.00000000000E+00 0. -1.
          1    1    1    2  502    0  0.33465699107E+02 -0.11531042732E+02  0.25335790253E+03  0.25581857778E+03  0.00000000000E+00 0. -1.
         22    1    3    3    0    0  0.34593323899E+02 -0.35133730928E+02 -0.76836448663E+01  0.49901057161E+02  0.00000000000E+00 0.  1.
         22    1    3    3    0    0 -0.60397097415E+02  0.13428654970E+02 -0.10434671348E+03  0.12131106612E+03  0.00000000000E+00 0.  1.
</event>
<event>
 7    1  0.6058736E-006  0.2094053E+03  0.7818608E-02  0.1293162E+00
          2   -1    0    0  502    0  0.00000000000E+00  0.00000000000E+00  0.21367984279E+04  0.21367984279E+04  0.00000000000E+00 0. -1.
          1   -1    0    0  501    0 -0.00000000000E+00 -0.00000000000E+00 -0.33669031755E+02  0.33669031755E+02  0.00000000000E+00 0. -1.
         25    2    1    2    0    0  0.21641776503E+03 -0.20898485733E+02  0.13970564398E+04  0.14193889118E+04  0.12499916508E+03 0.  0.
          2    1    1    2  501    0 -0.19831149304E+03  0.59134934303E+02  0.63996855153E+03  0.67259507556E+03  0.00000000000E+00 0. -1.
          1    1    1    2  502    0 -0.18106271991E+02 -0.38236448570E+02  0.66104404828E+02  0.78483472288E+02  0.00000000000E+00 0. -1.
         22    1    3    3    0    0  0.19194266730E+03 -0.11017937848E+02  0.13620237758E+04  0.13755261350E+04  0.00000000000E+00 0.  1.
         22    1    3    3    0    0  0.24475097734E+02 -0.98805478850E+01  0.35032664052E+02  0.43862776772E+02  0.00000000000E+00 0.  1.
</event>
<event>
 7    1  0.6058736E-006  0.1017081E+03  0.7818608E-02  0.1406638E+00
          2   -1    0    0  502    0  0.00000000000E+00  0.00000000000E+00  0.49926658479E+03  0.49926658479E+03  0.00000000000E+00 0. -1.
          1   -1    0    0  501    0 -0.00000000000E+00 -0.00000000000E+00 -0.19222971383E+03  0.19222971383E+03  0.00000000000E+00 0. -1.
         25    2    1    2    0    0  0.39107384072E+02  0.11830189349E+03 -0.70603927794E+02  0.19009011030E+03  0.12499843968E+03 0.  0.
          2    1    1    2  501    0 -0.27568605270E+02 -0.18172191991E+02 -0.51175779513E+02  0.60903341181E+02  0.00000000000E+00 0. -1.
          1    1    1    2  502    0 -0.11538778802E+02 -0.10012970149E+03  0.42881657827E+03  0.44050284714E+03  0.00000000000E+00 0. -1.
         22    1    3    3    0    0  0.37915802167E+02 -0.92104153153E+01  0.86290752793E+01  0.39961240527E+02  0.00000000000E+00 0.  1.
         22    1    3    3    0    0  0.11915819044E+01  0.12751230880E+03 -0.79233003074E+02  0.15012886977E+03  0.00000000000E+00 0.  1.
</event>
<event>
 7    1  0.6058736E-006  0.3141508E+02  0.7818608E-02  0.1654180E+00
          2   -1    0    0  502    0  0.00000000000E+00  0.00000000000E+00  0.42833869142E+03  0.42833869142E+03  0.00000000000E+00 0. -1.
          1   -1    0    0  501    0 -0.00000000000E+00 -0.00000000000E+00 -0.61783111630E+03  0.61783111630E+03  0.00000000000E+00 0. -1.
         25    2    1    2    0    0  0.24650469742E+02  0.30642522932E+02 -0.18728660255E+03  0.22857689379E+03  0.12499806003E+03 0.  0.
          2    1    1    2  501    0 -0.39866883027E+01 -0.31093632069E+02 -0.40903728065E+03  0.41023676651E+03  0.00000000000E+00 0. -1.
          1    1    1    2  502    0 -0.20663781439E+02  0.45110913658E+00  0.40683145832E+03  0.40735614742E+03  0.00000000000E+00 0. -1.
         22    1    3    3    0    0  0.28114241870E+02  0.55941595247E+02 -0.30351453569E+02  0.69577894539E+02  0.00000000000E+00 0. -1.
         22    1    3    3    0    0 -0.34637721277E+01 -0.25299072315E+02 -0.15693514898E+03  0.15899899925E+03  0.00000000000E+00 0. -1.
</event>
<event>
 7    1  0.6058736E-006  0.1422252E+03  0.7818608E-02  0.1273341E+00
          2   -1    0    0  502    0  0.00000000000E+00  0.00000000000E+00  0.10541824670E+04  0.10541824670E+04  0.00000000000E+00 0. -1.
          1   -1    0    0  501    0 -0.00000000000E+00 -0.00000000000E+00 -0.11117086474E+04  0.11117086474E+04  0.00000000000E+00 0. -1.
         25    2    1    2    0    0  0.20756733556E+03  0.54085564585E+02 -0.14932030924E+03  0.28970911174E+03  0.12500147032E+03 0.  0.
          2    1    1    2  501    0 -0.74705266906E+02 -0.81349710390E+01 -0.88557313381E+03  0.88875577634E+03  0.00000000000E+00 0. -1.
          1    1    1    2  502    0 -0.13286206865E+03 -0.45950593546E+02  0.97736726268E+03  0.98742622635E+03  0.00000000000E+00 0. -1.
         22    1    3    3    0    0 -0.51994256068E+01  0.31046153713E+02 -0.57429897275E+01  0.31998118976E+02  0.00000000000E+00 0.  1.
         22    1    3    3    0    0  0.21276676117E+03  0.23039410872E+02 -0.14357731951E+03  0.25771099276E+03  0.00000000000E+00 0.  1.
</event>
<event>
 7    1  0.6058736E-006  0.6209081E+02  0.7818608E-02  0.1451561E+00
          2   -1    0    0  502    0  0.00000000000E+00  0.00000000000E+00  0.24200943904E+04  0.24200943904E+04  0.00000000000E+00 0. -1.
          1   -1    0    0  501    0 -0.00000000000E+00 -0.00000000000E+00 -0.15389843904E+04  0.15389843904E+04  0.00000000000E+00 0. -1.
         25    2    1    2    0    0  0.47702146860E+02 -0.95476814038E+01  0.61160050491E+03  0.62613677850E+03  0.12500173898E+03 0.  0.
          2    1    1    2  501    0  0.98761744131E+01  0.37166726534E+02 -0.15309086944E+04  0.15313916334E+04  0.00000000000E+00 0. -1.
          1    1    1    2  502    0 -0.57578321273E+02 -0.27619045130E+02  0.18004181895E+04  0.18015503689E+04  0.00000000000E+00 0. -1.
         22    1    3    3    0    0  0.56515533710E+02 -0.15879189270E+02  0.11229658607E+03  0.12671494563E+03  0.00000000000E+00 0.  1.
         22    1    3    3    0    0 -0.88133868504E+01  0.63315078657E+01  0.49930391884E+03  0.49942183287E+03  0.00000000000E+00 0.  1.
</event>
<event>
 7    1  0.6058736E-006  0.1783300E+03  0.7818608E-02  0.1305900E+00
          2   -1    0    0  502    0  0.00000000000E+00  0.00000000000E+00  0.45752980906E+03  0.45752980906E+03  0.00000000000E+00 0. -1.
          1   -1    0    0  501    0 -0.00000000000E+00 -0.00000000000E+00 -0.11189354335E+04  0.11189354335E+04  0.00000000000E+00 0. -1.
         25    2    1    2    0    0  0.11746880670E+03 -0.93244731990E+02 -0.59500512055E+03  0.62621715056E+03  0.12499330219E+03 0.  0.
          2    1    1    2  501    0 -0.22785172651E+01 -0.44112713074E+02 -0.48910847130E+03  0.49109899184E+03  0.00000000000E+00 0. -1.
          1    1    1    2  502    0 -0.11519028943E+03  0.13735744506E+03  0.42270796739E+03  0.45914910017E+03  0.00000000000E+00 0. -1.
         22    1    3    3    0    0  0.81554289579E+02  0.12619506024E+02 -0.28313614872E+03  0.29491767121E+03  0.00000000000E+00 0. -1.
         22    1    3    3    0    0  0.35914517120E+02 -0.10586423801E+03 -0.31186897183E+03  0.33129947936E+03  0.00000000000E+00 0. -1.
</event>
<event>
 7    1  0.6058736E-006  0.1181140E+03  0.7818608E-02  0.1412317E+00
          2   -1    0    0  502    0  0.00000000000E+00  0.00000000000E+00  0.16199686774E+04  0.16199686774E+04  0.00000000000E+00 0. -1.
          1   -1    0    0  501    0 -0.00000000000E+00 -0.00000000000E+00 -0.82092379137E+03  0.82092379137E+03  0.00000000000E+00 0. -1.
         25    2    1    2    0    0 -0.36785187822E+02  0.88803155131E+02  0.46064712481E+02  0.16426892929E+03  0.12499269175E+03 0.  0.
          2    1    1    2  501    0 -0.23389239872E+02  0.13883374061E+02 -0.75923994023E+03  0.75972698482E+03  0.00000000000E+00 0. -1.
          1    1    1    2  502    0  0.60174427694E+02 -0.10268652919E+03  0.15122201138E+04  0.15168965547E+04  0.00000000000E+00 0. -1.
         22    1    3    3    0    0 -0.24282875007E+02  0.11357677417E+03  0.62626955837E+02  0.13195255680E+03  0.00000000000E+00 0. -1.
         22    1    3    3    0    0 -0.12502312815E+02 -0.24773619038E+02 -0.16562243356E+02  0.32316372490E+02  0.00000000000E+00 0. -1.
</event>
<event>
 7    1  0.6058736E-006  0.1330112E+03  0.7818608E-02  0.1283138E+00
          2   -1    0    0  502    0  0.00000000000E+00  0.00000000000E+00  0.31845140330E+04  0.31845140330E+04  0.00000000000E+00 0. -1.
          1   -1    0    0  501    0 -0.00000000000E+00 -0.00000000000E+00 -0.13451283356E+04  0.13451283356E+04  0.00000000000E+00 0. -1.
         25    2    1    2    0    0 -0.34026254027E+02 -0.16922988309E+03  0.10396984129E+04  0.10613176623E+04  0.12500340498E+03 0.  0.
          2    1    1    2  501    0  0.75842152566E+02  0.10917243824E+03 -0.13303779791E+04  0.13370027003E+04  0.00000000000E+00 0. -1.
          1    1    1    2  502    0 -0.41815898540E+02  0.60057444848E+02  0.21300652637E+04  0.21313220061E+04  0.00000000000E+00 0. -1.
         22    1    3    3    0    0  0.13244636537E+02 -0.69297644557E+02  0.71174576975E+03  0.71523396501E+03  0.00000000000E+00 0. -1.
         22    1    3    3    0    0 -0.47270890564E+02 -0.99932238530E+02  0.32795264310E+03  0.34608369726E+03  0.00000000000E+00 0. -1.
</event>
<event>
 7    1  0.6058736E-006  0.4855657E+02  0.7818608E-02  0.1453497E+00
          2   -1    0    0  502    0  0.00000000000E+00  0.00000000000E+00  0.12942496795E+03  0.12942496795E+03  0.00000000000E+00 0. -1.
          1   -1    0    0  501    0 -0.00000000000E+00 -0.00000000000E+00 -0.54030936015E+03  0.54030936015E+03  0.00000000000E+00 0. -1.
         25    2    1    2    0    0 -0.26124560733E+02 -0.13031640704E+02 -0.12792651353E+03  0.18122070181E+03  0.12499373412E+03 0.  0.
          2    1    1    2  501    0 -0.43149960688E+01  0.50766295201E+02 -0.37821363135E+03  0.38162990824E+03  0.00000000000E+00 0. -1.
          1    1    1    2  502    0  0.30439556802E+02 -0.37734654497E+02  0.95255752674E+02  0.10688371806E+03  0.00000000000E+00 0. -1.
         22    1    3    3    0    0 -0.43355747645E+02 -0.81338544280E+01  0.73871692889E+01  0.44726398377E+02  0.00000000000E+00 0. -1.
         22    1    3    3    0    0  0.17231186912E+02 -0.48977862765E+01 -0.13531368281E+03  0.13649430343E+03  0.00000000000E+00 0. -1.
</event>
<event>
 7    1  0.6058736E-006  0.7162305E+02  0.7818608E-02  0.1403992E+00
          2   -1    0    0  502    0  0.00000000000E+00  0.00000000000E+00  0.49230139910E+03  0.49230139910E+03  0.00000000000E+00 0. -1.
          1   -1    0    0  501    0 -0.00000000000E+00 -0.00000000000E+00 -0.12989573357E+03  0.12989573357E+03  0.00000000000E+00 0. -1.
         25    2    1    2    0    0  0.32399906761E+02  0.32581041930E+02  0.21459489312E+03  0.25256094412E+03  0.12499913636E+03 0.  0.
          2    1    1    2  501    0 -0.73151038645E+02 -0.74574276921E+01 -0.96138281071E+02  0.12103411408E+03  0.00000000000E+00 0. -1.
          1    1    1    2  502    0  0.40751131884E+02 -0.25123614238E+02  0.24394905348E+03  0.24860207448E+03  0.00000000000E+00 0. -1.
         22    1    3    3    0    0 -0.11896606285E+02  0.81130909583E+00 -0.13517775626E+02  0.18025474236E+02  0.00000000000E+00 0. -1.
         22    1    3    3    0    0  0.44296513045E+02  0.31769732834E+02  0.22811266874E+03  0.23453546988E+03  0.00000000000E+00 0. -1.
</event>
<event>
 7    1  0.6058736E-006  0.1071856E+03  0.7818608E-02  0.1369645E+00
          2   -1    0    0  502    0  0.00000000000E+00  0.00000000000E+00  0.10471783875E+04  0.10471783875E+04  0.00000000000E+00 0. -1.
          1   -1    0    0  501    0 -0.00000000000E+00 -0.00000000000E+00 -0.83233554032E+03  0.83233554032E+03  0.00000000000E+00 0. -1.
         25    2    1    2    0    0  0.72072066290E+02 -0.31581421423E+02  0.23171612576E+03  0.27478698200E+03  0.12499501438E+03 0.  0.
          2    1    1    2  501    0 -0.78893712861E+02  0.73240270045E+02 -0.80666083141E+03  0.81381204956E+03  0.00000000000E+00 0. -1.
          1    1    1    2  502    0  0.68216465711E+01 -0.41658848621E+02  0.78978755286E+03  0.79091489629E+03  0.00000000000E+00 0. -1.
         22    1    3    3    0    0  0.98705020391E+02  0.22613891988E+01  0.19339926130E+03  0.21714296950E+03  0.00000000000E+00 0.  1.
         22    1    3    3    0    0 -0.26632954101E+02 -0.33842810622E+02  0.38316864455E+02  0.57644012496E+02  0.00000000000E+00 0.  1.
</event>
<event>
 7    1  0.6058736E-006  0.1824619E+03  0.7818608E-02  0.1367649E+00
          2   -1    0    0  502    0  0.00000000000E+00  0.00000000000E+00  0.12497631125E+03  0.12497631125E+03  0.00000000000E+00 0. -1.
          1   -1    0    0  501    0 -0.00000000000E+00 -0.00000000000E+00 -0.43009299634E+03  0.43009299634E+03  0.00000000000E+00 0. -1.
         25    2    1    2    0    0 -0.13247492476E+03 -0.10338629355E+03 -0.20886976448E+03  0.29579094494E+03  0.12500949250E+03 0.  0.
          2    1    1    2  501    0 -0.70815256886E+01 -0.24197172441E+02 -0.62247991962E+02  0.67159985583E+02  0.00000000000E+00 0. -1.
          1    1    1    2  502    0  0.13955645045E+03  0.12758346599E+03 -0.33998928647E+02  0.19211837706E+03  0.00000000000E+00 0. -1.
         22    1    3    3    0    0 -0.15533872017E+02 -0.54914595861E+02 -0.14109764195E+03  0.15220203213E+03  0.00000000000E+00 0.  1.
         22    1    3    3    0    0 -0.11694105274E+03 -0.48471697686E+02 -0.67772122524E+02  0.14358891282E+03  0.00000000000E+00 0.  1.
</event>
<event>
 7    1  0.6058736E-006  0.7295355E+02  0.7818608E-02  0.1414297E+00
          2   -1    0    0  502    0  0.00000000000E+00  0.00000000000E+00  0.77606191280E+03  0.77606191280E+03  0.00000000000E+00 0. -1.
          1   -1    0    0  501    0 -0.00000000000E+00 -0.00000000000E+00 -0.25353749090E+03  0.25353749090E+03  0.00000000000E+00 0. -1.
         25    2    1    2    0    0  0.32344892984E+02  0.61393404629E+02  0.67643859164E+02  0.15816515723E+03  0.12500073218E+03 0.  0.
          2    1    1    2  501    0 -0.65719621516E+02 -0.33705590275E+02 -0.20099030712E+03  0.21413135928E+03  0.00000000000E+00 0. -1.
          1    1    1    2  502    0  0.33374728532E+02 -0.27687814354E+02  0.65587086986E+03  0.65730288718E+03  0.00000000000E+00 0. -1.
         22    1    3    3    0    0 -0.30573138657E+02 -0.10430761913E+02  0.52275653247E+02  0.61451293915E+02  0.00000000000E+00 0. -1.
         22    1    3    3    0    0  0.62918031641E+02  0.71824166542E+02  0.15368205917E+02  0.96713863319E+02  0.00000000000E+00 0. -1.
</event>
<event>
 7    1  0.6058736E-006  0.5583398E+02  0.7818608E-02  0.1509840E+00
          2   -1    0    0  502    0  0.00000000000E+00  0.00000000000E+00  0.18276855204E+04  0.18276855204E+04  0.00000000000E+00 0. -1.
          1   -1    0    0  501    0 -0.00000000000E+00 -0.00000000000E+00 -0.15386780692E+02  0.15386780692E+02  0.00000000000E+00 0. -1.
         25    2    1    2    0    0 -0.64822975881E+02  0.31224107918E+02  0.78031238989E+03  0.79352967356E+03  0.12499981558E+03 0.  0.
          2    1    1    2  501    0  0.37679604750E+02 -0.39376832626E+02  0.78103728443E+02  0.95239067396E+02  0.00000000000E+00 0. -1.
          1    1    1    2  502    0  0.27143371131E+02  0.81527247076E+01  0.95388262140E+03  0.95430356015E+03  0.00000000000E+00 0. -1.
         22    1    3    3    0    0  0.10828871353E+02 -0.59046066891E+01  0.51515891214E+03  0.51530654332E+03  0.00000000000E+00 0.  1.
         22    1    3    3    0    0 -0.75651847234E+02  0.37128714608E+02  0.26515347775E+03  0.27822313024E+03  0.00000000000E+00 0.  1.
</event>
<event>
 7    1  0.6058736E-006  0.1579930E+03  0.7818608E-02  0.1218535E+00
          2   -1    0    0  502    0  0.00000000000E+00  0.00000000000E+00  0.36268189428E+04  0.36268189428E+04  0.00000000000E+00 0. -1.
          1   -1    0    0  501    0 -0.00000000000E+00 -0.00000000000E+00 -0.23396370836E+03  0.23396370836E+03  0.00000000000E+00 0. -1.
         25    2    1    2    0    0  0.68468407927E+02 -0.70508413618E+02  0.87876511796E+02  0.18167675829E+03  0.12499921561E+03 0.  0.
          2    1    1    2  501    0 -0.28447925770E+02  0.18089103614E+03 -0.14101081775E+03  0.23111664189E+03  0.00000000000E+00 0. -1.
          1    1    1    2  502    0 -0.40020482157E+02 -0.11038262252E+03  0.34459895403E+04  0.34479892509E+04  0.00000000000E+00 0. -1.
         22    1    3    3    0    0 -0.19406409093E+02 -0.61620895816E+02  0.62240177760E+02  0.89708323152E+02  0.00000000000E+00 0. -1.
         22    1    3    3    0    0  0.87874817020E+02 -0.88875178012E+01  0.25636334035E+02  0.91968435138E+02  0.00000000000E+00 0. -1.
</event>
<event>
 7    1  0.6058736E-006  0.6960506E+02  0.7818608E-02  0.1415345E+00
          2   -1    0    0  502    0  0.00000000000E+00  0.00000000000E+00  0.25140435024E+04  0.25140435024E+04  0.00000000000E+00 0. -1.
          1   -1    0    0  501    0 -0.00000000000E+00 -0.00000000000E+00 -0.44941002960E+02  0.44941002960E+02  0.00000000000E+00 0. -1.
         25    2    1    2    0    0 -0.13012260434E+02  0.29790311997E+02  0.34022448778E+03  0.36391579000E+03  0.12500087407E+03 0.  0.
          2    1    1    2  501    0  0.46880928326E+01 -0.74098333755E+02  0.90894492787E+01  0.74800797909E+02  0.00000000000E+00 0. -1.
          1    1    1    2  502    0  0.83241676017E+01  0.44308021758E+02  0.21197885623E+04  0.21202679174E+04  0.00000000000E+00 0. -1.
         22    1    3    3    0    0  0.25378836416E+02  0.34922776511E+02  0.31443069425E+03  0.31738044544E+03  0.00000000000E+00 0. -1.
         22    1    3    3    0    0 -0.38391096850E+02 -0.51324645144E+01  0.25793793526E+02  0.46535344565E+02  0.00000000000E+00 0. -1.
</event>
<event>
 7    1  0.6058736E-006  0.1121662E+03  0.7818608E-02  0.1263803E+00
          2   -1    0    0  502    0  0.00000000000E+00  0.00000000000E+00  0.30546215774E+03  0.30546215774E+03  0.00000000000E+00 0. -1.
          1   -1    0    0  501    0 -0.00000000000E+00 -0.00000000000E+00 -0.70846756607E+03  0.70846756607E+03  0.00000000000E+00 0. -1.
         25    2    1    2    0    0  0.46350392318E+02  0.15238036635E+03 -0.48442673681E+03  0.52503556224E+03  0.12499977345E+03 0.  0.
          2    1    1    2  501    0  0.48341994669E+02 -0.92661786029E+02 -0.17796231655E+03  0.20638251173E+03  0.00000000000E+00 0. -1.
          1    1    1    2  502    0 -0.94692386986E+02 -0.59718580321E+02  0.25938364503E+03  0.28251164984E+03  0.00000000000E+00 0. -1.
         22    1    3    3    0    0  0.59403264695E+02  0.10460900226E+03 -0.17930730220E+03  0.21592336565E+03  0.00000000000E+00 0. -1.
         22    1    3    3    0    0 -0.13052872377E+02  0.47771364085E+02 -0.30511943461E+03  0.30911219659E+03  0.00000000000E+00 0. -1.
</event>
<event>
 7    1  0.6058736E-006  0.1123576E+03  0.7818608E-02  0.1420584E+00
          2   -1    0    0  502    0  0.00000000000E+00  0.00000000000E+00  0.12836677511E+03  0.12836677511E+03  0.00000000000E+00 0. -1.
          1   -1    0    0  501    0 -0.00000000000E+00 -0.00000000000E+00 -0.33457870072E+03  0.33457870072E+03  0.00000000000E+00 0. -1.
         25    2    1    2    0    0 -0.90205165495E+02 -0.64617900588E+02 -0.20825503727E+03  0.26703800568E+03  0.12500676370E+03 0.  0.
          2    1    1    2  501    0 -0.14592094561E+02  0.22506275322E+02 -0.60946573176E+02  0.66587885042E+02  0.00000000000E+00 0. -1.
          1    1    1    2  502    0  0.10479726006E+03  0.42111625266E+02  0.62989684829E+02  0.12931958511E+03  0.00000000000E+00 0. -1.
         22    1    3    3    0    0 -0.35498668370E+02 -0.52250316802E+01  0.75095877457E+01  0.36658564077E+02  0.00000000000E+00 0. -1.
         22    1    3    3    0    0 -0.54706497125E+02 -0.59392868908E+02 -0.21576462502E+03  0.23037944160E+03  0.00000000000E+00 0. -1.
</event>
<event>
 7    1  0.6058736E-006  0.5772378E+02  0.7818608E-02  0.1440554E+00
          2   -1    0    0  502    0  0.00000000000E+00  0.00000000000E+00  0.17850978223E+03  0.17850978223E+03  0.00000000000E+00 0. -1.
          1   -1    0    0  501    0 -0.00000000000E+00 -0.00000000000E+00 -0.17304925916E+04  0.17304925916E+04  0.00000000000E+00 0. -1.
         25    2    1    2    0    0  0.86547175846E+02  0.44715981691E+02 -0.52624290766E+03  0.54958569570E+03  0.12499162526E+03 0.  0.
          2    1    1    2  501    0 -0.30351921874E+02 -0.33060812231E+02 -0.11872061680E+04  0.11880541831E+04  0.00000000000E+00 0. -1.
          1    1    1    2  502    0 -0.56195253972E+02 -0.11655169460E+02  0.16146626635E+03  0.17136249506E+03  0.00000000000E+00 0. -1.
         22    1    3    3    0    0  0.14534525878E+01  0.69744004853E+02 -0.23518799285E+03  0.24531557374E+03  0.00000000000E+00 0. -1.
         22    1    3    3    0    0  0.85093723258E+02 -0.25028023162E+02 -0.29105491481E+03  0.30427012196E+03  0.00000000000E+00 0. -1.
</event>
<event>
 7    1  0.6058736E-006  0.3625457E+02  0.7818608E-02  0.1570158E+00
          2   -1    0    0  502    0  0.00000000000E+00  0.00000000000E+00  0.39932694428E+02  0.39932694428E+02  0.00000000000E+00 0. -1.
          1   -1    0    0  501    0 -0.00000000000E+00 -0.00000000000E+00 -0.10153355783E+04  0.10153355783E+04  0.00000000000E+00 0. -1.
         25    2    1    2    0    0  0.55914034051E+02 -0.29000573757E+02 -0.61643131681E+03  0.63212552613E+03  0.12501079934E+03 0.  0.
          2    1    1    2  501    0 -0.31094517407E+02  0.13111138269E+02 -0.38338909705E+03  0.38487136903E+03  0.00000000000E+00 0. -1.
          1    1    1    2  502    0 -0.24819516644E+02  0.15889435488E+02  0.24417530023E+02  0.38271377542E+02  0.00000000000E+00 0. -1.
         22    1    3    3    0    0  0.67459063166E+02  0.13149995387E+02 -0.53772737507E+03  0.54210181468E+03  0.00000000000E+00 0. -1.
         22    1    3    3    0    0 -0.11545029114E+02 -0.42150569145E+02 -0.78703941746E+02  0.90023711448E+02  0.00000000000E+00 0. -1.
</event>
<event>
 7    1  0.6058736E-006  0.4718568E+02  0.7818608E-02  0.1470141E+00
          2   -1    0    0  502    0  0.00000000000E+00  0.00000000000E+00  0.10516264154E+04  0.10516264154E+04  0.00000000000E+00 0. -1.
          1   -1    0    0  501    0 -0.00000000000E+00 -0.00000000000E+00 -0.10994764800E+04  0.10994764800E+04  0.00000000000E+00 0. -1.
         25    2    1    2    0    0  0.54978456870E+02 -0.20780806111E+01  0.35757898806E+03  0.38277010993E+03  0.12499310066E+03 0.  0.
          2    1    1    2  501    0 -0.25794469007E+02 -0.35920136760E+02 -0.10855880302E+04  0.10864883718E+04  0.00000000000E+00 0. -1.
          1    1    1    2  502    0 -0.29183987863E+02  0.37998217371E+02  0.68015897749E+03  0.68184441358E+03  0.00000000000E+00 0. -1.
         22    1    3    3    0    0  0.53396488126E+02 -0.58941433503E+02  0.19959551346E+03  0.21485727012E+03  0.00000000000E+00 0. -1.
         22    1    3    3    0    0  0.15819687440E+01  0.56863352892E+02  0.15798347460E+03  0.16791283981E+03  0.00000000000E+00 0. -1.
</event>
<event>
 7    1  0.6158115E-006  0.1629566E+03  0.7818608E-02  0.1207175E+00
          2   -1    0    0  502    0  0.00000000000E+00  0.00000000000E+00  0.61113221032E+03  0.61113221032E+03  0.00000000000E+00 0. -1.
          1   -1    0    0  501    0 -0.00000000000E+00 -0.00000000000E+00 -0.11471477670E+04  0.11471477670E+04  0.00000000000E+00 0. -1.
         25    2    1    2    0    0 -0.28101542662E+02  0.44116796232E+02 -0.38894972377E+03  0.41189480433E+03  0.12505780184E+03 0.  0.
          2    1    1    2  501    0 -0.12757756541E+03  0.14871651714E+02 -0.72945081576E+03  0.74067246056E+03  0.00000000000E+00 0. -1.
          1    1    1    2  502    0  0.15567910807E+03 -0.58988447945E+02  0.58238498288E+03  0.60571271240E+03  0.00000000000E+00 0. -1.
         22    1    3    3    0    0 -0.57055068361E+02  0.73396572664E+02 -0.29541404062E+03  0.30969629171E+03  0.00000000000E+00 0.  1.
         22    1    3    3    0    0  0.28953525699E+02 -0.29279776432E+02 -0.93535683154E+02  0.10219851262E+03  0.00000000000E+00 0.  1.
</event>
<event>
 7    1  0.6058736E-006  0.1088225E+03  0.7818608E-02  0.1318658E+00
          2   -1    0    0  502    0  0.00000000000E+00  0.00000000000E+00  0.18457941556E+03  0.18457941556E+03  0.00000000000E+00 0. -1.
          1   -1    0    0  501    0 -0.00000000000E+00 -0.00000000000E+00 -0.24190519806E+04  0.24190519806E+04  0.00000000000E+00 0. -1.
         25    2    1    2    0    0 -0.77702958994E+02  0.14775897765E+03  0.54475734878E+02  0.21555106060E+03  0.12499675485E+03 0.  0.
          2    1    1    2  501    0  0.30348107816E+02 -0.10396976046E+03 -0.23157167382E+04  0.23182482029E+04  0.00000000000E+00 0. -1.
          1    1    1    2  502    0  0.47354851177E+02 -0.43789217184E+02  0.26768438234E+02  0.69832132698E+02  0.00000000000E+00 0. -1.
         22    1    3    3    0    0 -0.10935283069E+03  0.11840046474E+03  0.24571097803E+02  0.16303512038E+03  0.00000000000E+00 0. -1.
         22    1    3    3    0    0  0.31649871694E+02  0.29358512912E+02  0.29904637075E+02  0.52515940221E+02  0.00000000000E+00 0. -1.
</event>
<event>
 7    1  0.6058736E-006  0.1815856E+03  0.7818608E-02  0.1227095E+00
          2   -1    0    0  502    0  0.00000000000E+00  0.00000000000E+00  0.22933488952E+04  0.22933488952E+04  0.00000000000E+00 0. -1.
          1   -1    0    0  501    0 -0.00000000000E+00 -0.00000000000E+00 -0.25073813875E+04  0.25073813875E+04  0.00000000000E+00 0. -1.
         25    2    1    2    0    0  0.15533418504E+03  0.92527264551E+02 -0.15353599488E+03  0.26811782080E+03  0.12499544144E+03 0.  0.
          2    1    1    2  501    0  0.26655107431E+02 -0.89533966990E+02 -0.22918974180E+04  0.22938004710E+04  0.00000000000E+00 0. -1.
          1    1    1    2  502    0 -0.18198929247E+03 -0.29932975608E+01  0.22314009205E+04  0.22388119909E+04  0.00000000000E+00 0. -1.
         22    1    3    3    0    0  0.23179917701E+02 -0.15363523572E+02  0.12107269090E+02  0.30330387502E+02  0.00000000000E+00 0.  1.
         22    1    3    3    0    0  0.13215426734E+03  0.10789078812E+03 -0.16564326397E+03  0.23778743330E+03  0.00000000000E+00 0.  1.
</event>
<event>
 7    1  0.6058736E-006  0.6352722E+02  0.7818608E-02  0.1401496E+00
          2   -1    0    0  502    0  0.00000000000E+00  0.00000000000E+00  0.13913125631E+03  0.13913125631E+03  0.00000000000E+00 0. -1.
          1   -1    0    0  501    0 -0.00000000000E+00 -0.00000000000E+00 -0.30444517412E+03  0.30444517412E+03  0.00000000000E+00 0. -1.
         25    2    1    2    0    0  0.39791613201E+02 -0.16131254357E+02 -0.92186399388E+02  0.16113150422E+03  0.12498575747E+03 0.  0.
          2    1    1    2  501    0 -0.62295811520E+02 -0.34106100418E+02 -0.16257786885E+03  0.17741352163E+03  0.00000000000E+00 0. -1.
          1    1    1    2  502    0  0.22504198319E+02  0.50237354775E+02  0.89450350431E+02  0.10503140458E+03  0.00000000000E+00 0. -1.
         22    1    3    3    0    0  0.77027152968E+02 -0.94124776181E+01 -0.95612013932E+02  0.12313989702E+03  0.00000000000E+00 0. -1.
         22    1    3    3    0    0 -0.37235539767E+02 -0.67187767390E+01  0.34256145431E+01  0.37991607200E+02  0.00000000000E+00 0. -1.
</event>
<event>
 7    1  0.6058736E-006  0.1474215E+03  0.7818608E-02  0.1308602E+00
          2   -1    0    0  502    0  0.00000000000E+00  0.00000000000E+00  0.20703547299E+04  0.20703547299E+04  0.00000000000E+00 0. -1.
          1   -1    0    0  501    0 -0.00000000000E+00 -0.00000000000E+00 -0.82427310312E+03  0.82427310312E+03  0.00000000000E+00 0. -1.
         25    2    1    2    0    0  0.20454835615E+02  0.15603922468E+03 -0.63896278869E+03  0.66982292692E+03  0.12499067228E+03 0.  0.
          2    1    1    2  501    0 -0.50785211983E+02 -0.11776120789E+02 -0.16316818089E+03  0.17129410390E+03  0.00000000000E+00 0. -1.
          1    1    1    2  502    0  0.30330376368E+02 -0.14426310389E+03  0.20482125963E+04  0.20535108022E+04  0.00000000000E+00 0. -1.
         22    1    3    3    0    0 -0.15249074761E+02  0.16048210232E+03 -0.46419053723E+03  0.49138568793E+03  0.00000000000E+00 0. -1.
         22    1    3    3    0    0  0.35703910375E+02 -0.44428776439E+01 -0.17477225147E+03  0.17843723900E+03  0.00000000000E+00 0. -1.
</event>
<event>
 7    1  0.6058736E-006  0.1569055E+03  0.7818608E-02  0.1226436E+00
          2   -1    0    0  502    0  0.00000000000E+00  0.00000000000E+00  0.13580640684E+04  0.13580640684E+04  0.00000000000E+00 0. -1.
          1   -1    0    0  501    0 -0.00000000000E+00 -0.00000000000E+00 -0.47126872374E+03  0.47126872374E+03  0.00000000000E+00 0. -1.
         25    2    1    2    0    0  0.58696059240E+01 -0.12851002840E+03 -0.46513488721E-01  0.17937245225E+03  0.12500077916E+03 0.  0.
          2    1    1    2  501    0  0.10287976913E+03  0.13326944500E+03 -0.36050097053E+03  0.39787679201E+03  0.00000000000E+00 0. -1.
          1    1    1    2  502    0 -0.10874937506E+03 -0.47594166002E+01  0.12473428287E+04  0.12520835479E+04  0.00000000000E+00 0. -1.
         22    1    3    3    0    0 -0.18025306652E+02 -0.12453197839E+03 -0.40529133182E+02  0.13219582428E+03  0.00000000000E+00 0. -1.
         22    1    3    3    0    0  0.23894912576E+02 -0.39780500080E+01  0.40482619694E+02  0.47176627965E+02  0.00000000000E+00 0. -1.
</event>
<event>
 7    1  0.6058736E-006  0.3263667E+02  0.7818608E-02  0.1589215E+00
          2   -1    0    0  502    0  0.00000000000E+00  0.00000000000E+00  0.49733078100E+02  0.49733078100E+02  0.00000000000E+00 0. -1.
          1   -1    0    0  501    0 -0.00000000000E+00 -0.00000000000E+00 -0.13599167761E+04  0.13599167761E+04  0.00000000000E+00 0. -1.
         25    2    1    2    0    0 -0.18154607518E+02  0.11009111082E+02 -0.56798589253E+02  0.13892261486E+03  0.12499049115E+03 0.  0.
          2    1    1    2  501    0 -0.12458323084E+02 -0.30165247198E+02 -0.12232710232E+04  0.12237063162E+04  0.00000000000E+00 0. -1.
          1    1    1    2  502    0  0.30612930602E+02  0.19156136116E+02 -0.30114085558E+02  0.47020923215E+02  0.00000000000E+00 0. -1.
         22    1    3    3    0    0 -0.48487817532E+02 -0.53201565323E+01  0.21555973992E+02  0.53329471489E+02  0.00000000000E+00 0. -1.
         22    1    3    3    0    0  0.30333210014E+02  0.16329267614E+02 -0.78354563246E+02  0.85593143370E+02  0.00000000000E+00 0. -1.
</event>
<event>
 7    1  0.6058736E-006  0.2575632E+03  0.7818608E-02  0.1236809E+00
          2   -1    0    0  502    0  0.00000000000E+00  0.00000000000E+00  0.50920791939E+03  0.50920791939E+03  0.00000000000E+00 0. -1.
          1   -1    0    0  501    0 -0.00000000000E+00 -0.00000000000E+00 -0.10199752424E+04  0.10199752424E+04  0.00000000000E+00 0. -1.
         25    2    1    2    0    0 -0.23544774577E+03 -0.19352809476E+03 -0.38853860891E+03  0.50938677212E+03  0.12499547410E+03 0.  0.
          2    1    1    2  501    0  0.22546358030E+02  0.55166032029E+02 -0.53330516954E+03  0.53662466698E+03  0.00000000000E+00 0. -1.
          1    1    1    2  502    0  0.21290138774E+03  0.13836206273E+03  0.41107645549E+03  0.48317172264E+03  0.00000000000E+00 0. -1.
         22    1    3    3    0    0 -0.84661827221E+02 -0.40259854850E+02 -0.20978698442E+03  0.22978045986E+03  0.00000000000E+00 0.  1.
         22    1    3    3    0    0 -0.15078591855E+03 -0.15326823991E+03 -0.17875162449E+03  0.27960631226E+03  0.00000000000E+00 0.  1.
</event>
<event>
 7    1  0.6058736E-006  0.5084861E+02  0.7818608E-02  0.1511265E+00
          2   -1    0    0  502    0  0.00000000000E+00  0.00000000000E+00  0.27621204092E+03  0.27621204092E+03  0.00000000000E+00 0. -1.
          1   -1    0    0  501    0 -0.00000000000E+00 -0.00000000000E+00 -0.45082814432E+03  0.45082814432E+03  0.00000000000E+00 0. -1.
         25    2    1    2    0    0  0.15413042533E+02  0.44953243223E+02 -0.29868418128E+02  0.13702389999E+03  0.12500028324E+03 0.  0.
          2    1    1    2  501    0 -0.42006209278E+02 -0.29372994762E+02 -0.36451352121E+03  0.36809971690E+03  0.00000000000E+00 0. -1.
          1    1    1    2  502    0  0.26593166745E+02 -0.15580248461E+02  0.21976583594E+03  0.22191656835E+03  0.00000000000E+00 0. -1.
         22    1    3    3    0    0  0.21103336947E+02  0.87599427146E+02 -0.26232298074E+02  0.93846384740E+02  0.00000000000E+00 0. -1.
         22    1    3    3    0    0 -0.56902944148E+01 -0.42646183923E+02 -0.36361200534E+01  0.43177515245E+02  0.00000000000E+00 0. -1.
</event>
<event>
 7    1  0.6058736E-006  0.1880428E+03  0.7818608E-02  0.1192535E+00
          2   -1    0    0  502    0  0.00000000000E+00  0.00000000000E+00  0.13793798909E+04  0.13793798909E+04  0.00000000000E+00 0. -1.
          1   -1    0    0  501    0 -0.00000000000E+00 -0.00000000000E+00 -0.50175538224E+03  0.50175538224E+03  0.00000000000E+00 0. -1.
         25    2    1    2    0    0  0.17669376505E+03 -0.17096694431E+03  0.54661392536E+03  0.61225972137E+03  0.12499920148E+03 0.  0.
          2    1    1    2  501    0 -0.46618502934E+02  0.18139996836E+03 -0.44456021392E+03  0.48240337596E+03  0.00000000000E+00 0. -1.
          1    1    1    2  502    0 -0.13007526211E+03 -0.10433024050E+02  0.77557079719E+03  0.78647217577E+03  0.00000000000E+00 0. -1.
         22    1    3    3    0    0  0.11507555241E+03 -0.11168972231E+03  0.20590613641E+03  0.26098719096E+03  0.00000000000E+00 0.  1.
         22    1    3    3    0    0  0.61618212633E+02 -0.59277221997E+02  0.34070778894E+03  0.35127253041E+03  0.00000000000E+00 0.  1.
</event>
<event>
 7    1  0.6058736E-006  0.2164846E+03  0.7818608E-02  0.1299151E+00
          2   -1    0    0  502    0  0.00000000000E+00  0.00000000000E+00  0.50174289140E+03  0.50174289140E+03  0.00000000000E+00 0. -1.
          1   -1    0    0  501    0 -0.00000000000E+00 -0.00000000000E+00 -0.27420128209E+03  0.27420128209E+03  0.00000000000E+00 0. -1.
         25    2    1    2    0    0  0.11613176725E+03 -0.14559601724E+03  0.22458213585E+03  0.31740630251E+03  0.12499935012E+03 0.  0.
          2    1    1    2  501    0 -0.12741559896E+03  0.18262736858E+03 -0.17072165360E+03  0.28059467853E+03  0.00000000000E+00 0. -1.
          1    1    1    2  502    0  0.11283831717E+02 -0.37031351335E+02  0.17368112706E+03  0.17794319244E+03  0.00000000000E+00 0. -1.
         22    1    3    3    0    0  0.16829025549E+02 -0.48576469664E+02  0.15259524471E+03  0.16102235315E+03  0.00000000000E+00 0.  1.
         22    1    3    3    0    0  0.99302741698E+02 -0.97019547580E+02  0.71986891141E+02  0.15638394936E+03  0.00000000000E+00 0.  1.
</event>
<event>
 7    1  0.6058736E-006  0.7132504E+02  0.7818608E-02  0.1386924E+00
          2   -1    0    0  502    0  0.00000000000E+00  0.00000000000E+00  0.80240196608E+03  0.80240196608E+03  0.00000000000E+00 0. -1.
          1   -1    0    0  501    0 -0.00000000000E+00 -0.00000000000E+00 -0.45067305137E+03  0.45067305137E+03  0.00000000000E+00 0. -1.
         25    2    1    2    0    0 -0.72148639579E+02  0.48944214871E+02  0.18650499060E+02  0.15353572634E+03  0.12499766312E+03 0.  0.
          2    1    1    2  501    0  0.51541073604E+02  0.19424509636E+02 -0.37945753928E+03  0.38343424203E+03  0.00000000000E+00 0. -1.
          1    1    1    2  502    0  0.20607565975E+02 -0.68368724507E+02  0.71253595492E+03  0.71610504908E+03  0.00000000000E+00 0. -1.
         22    1    3    3    0    0 -0.13672442796E+02 -0.31804664427E+02 -0.26980195504E+02  0.43890811348E+02  0.00000000000E+00 0. -1.
         22    1    3    3    0    0 -0.58476196783E+02  0.80748879298E+02  0.45630694564E+02  0.10964491500E+03  0.00000000000E+00 0. -1.
</event>
<event>
 7    1  0.6058736E-006  0.9294418E+02  0.7818608E-02  0.1325697E+00
          2   -1    0    0  502    0  0.00000000000E+00  0.00000000000E+00  0.17367929458E+02  0.17367929458E+02  0.00000000000E+00 0. -1.
          1   -1    0    0  501    0 -0.00000000000E+00 -0.00000000000E+00 -0.16969681523E+04  0.16969681523E+04  0.00000000000E+00 0. -1.
         25    2    1    2    0    0  0.16585724671E+02 -0.76079722288E+02 -0.74964515624E+03  0.76397457061E+03  0.12500429533E+03 0.  0.
          2    1    1    2  501    0  0.46447546191E+02  0.10860281953E+03 -0.45230481471E+03  0.46747362746E+03  0.00000000000E+00 0. -1.
          1    1    1    2  502    0 -0.63033270862E+02 -0.32523097237E+02 -0.47765025193E+03  0.48288788374E+03  0.00000000000E+00 0. -1.
         22    1    3    3    0    0 -0.45578305111E+02 -0.69983403071E+02 -0.47793993512E+03  0.48518206911E+03  0.00000000000E+00 0. -1.
         22    1    3    3    0    0  0.62164029782E+02 -0.60963192179E+01 -0.27170522112E+03  0.27879250150E+03  0.00000000000E+00 0. -1.
</event>
<event>
 7    1  0.6058736E-006  0.3748440E+02  0.7818608E-02  0.1535611E+00
          2   -1    0    0  502    0  0.00000000000E+00  0.00000000000E+00  0.88606988983E+01  0.88606988983E+01  0.00000000000E+00 0. -1.
          1   -1    0    0  501    0 -0.00000000000E+00 -0.00000000000E+00 -0.17377519693E+04  0.17377519693E+04  0.00000000000E+00 0. -1.
         25    2    1    2    0    0  0.40910926136E+02  0.26496050162E+01 -0.95367875921E+03  0.96270921594E+03  0.12500053764E+03 0.  0.
          2    1    1    2  501    0 -0.15682041095E+02 -0.31909991260E+02 -0.68299414994E+03  0.68391898848E+03  0.00000000000E+00 0. -1.
          1    1    1    2  502    0 -0.25228885041E+02  0.29260386244E+02 -0.92218361235E+02  0.99984463755E+02  0.00000000000E+00 0. -1.
         22    1    3    3    0    0  0.31706717720E+02 -0.16403349926E+02 -0.93102973726E+03  0.93171388178E+03  0.00000000000E+00 0. -1.
         22    1    3    3    0    0  0.92042084165E+01  0.19052954942E+02 -0.22649021945E+02  0.30995334159E+02  0.00000000000E+00 0. -1.
</event>
<event>
 7    1  0.6058736E-006  0.7760132E+02  0.7818608E-02  0.1451471E+00
          2   -1    0    0  502    0  0.00000000000E+00  0.00000000000E+00  0.62416596746E+03  0.62416596746E+03  0.00000000000E+00 0. -1.
          1   -1    0    0  501    0 -0.00000000000E+00 -0.00000000000E+00 -0.96367356031E+03  0.96367356031E+03  0.00000000000E+00 0. -1.
         25    2    1    2    0    0 -0.54635294482E+02 -0.69519683185E+01 -0.21255118662E+03  0.25265395175E+03  0.12499066819E+03 0.  0.
          2    1    1    2  501    0  0.79489579719E+02 -0.11222593801E+02 -0.72847223480E+03  0.73288221207E+03  0.00000000000E+00 0. -1.
          1    1    1    2  502    0 -0.24854285237E+02  0.18174562120E+02  0.60151582857E+03  0.60230336395E+03  0.00000000000E+00 0. -1.
         22    1    3    3    0    0  0.22525867156E+02  0.29660637165E+02 -0.20605421054E+02  0.42564673909E+02  0.00000000000E+00 0. -1.
         22    1    3    3    0    0 -0.77161161638E+02 -0.36612605484E+02 -0.19194576556E+03  0.21008927784E+03  0.00000000000E+00 0. -1.
</event>
<event>
 7    1  0.6058736E-006  0.7475589E+02  0.7818608E-02  0.1367569E+00
          2   -1    0    0  502    0  0.00000000000E+00  0.00000000000E+00  0.13913005759E+04  0.13913005759E+04  0.00000000000E+00 0. -1.
          1   -1    0    0  501    0 -0.00000000000E+00 -0.00000000000E+00 -0.14514460451E+04  0.14514460451E+04  0.00000000000E+00 0. -1.
         25    2    1    2    0    0 -0.14149396763E+01 -0.14387559769E+02  0.20129983792E+03  0.23739325613E+03  0.12499971753E+03 0.  0.
          2    1    1    2  501    0 -0.17833509147E+02  0.72879415815E+02 -0.14316074054E+04  0.14335721839E+04  0.00000000000E+00 0. -1.
          1    1    1    2  502    0  0.19248448823E+02 -0.58491856046E+02  0.11701620982E+04  0.11717811810E+04  0.00000000000E+00 0. -1.
         22    1    3    3    0    0 -0.14080230346E+02  0.16293420069E+01 -0.14705759516E+02  0.20424666580E+02  0.00000000000E+00 0. -1.
         22    1    3    3    0    0  0.12665290669E+02 -0.16016901776E+02  0.21600559743E+03  0.21696858955E+03  0.00000000000E+00 0. -1.
</event>
<event>
 7    1  0.6058736E-006  0.1274950E+03  0.7818608E-02  0.1259190E+00
          2   -1    0    0  502    0  0.00000000000E+00  0.00000000000E+00  0.41444716902E+03  0.41444716902E+03  0.00000000000E+00 0. -1.
          1   -1    0    0  501    0 -0.00000000000E+00 -0.00000000000E+00 -0.26697838585E+03  0.26697838585E+03  0.00000000000E+00 0. -1.
         25    2    1    2    0    0  0.15276924176E+02  0.62412908897E+02  0.94953651789E+02  0.16961880098E+03  0.12500234418E+03 0.  0.
          2    1    1    2  501    0 -0.10748851873E+03 -0.89830625762E+02 -0.19852091123E+03  0.24296887698E+03  0.00000000000E+00 0. -1.
          1    1    1    2  502    0  0.92211594557E+02  0.27417716866E+02  0.25103604262E+03  0.26883787691E+03  0.00000000000E+00 0. -1.
         22    1    3    3    0    0  0.32403965406E+02 -0.24274772620E+02  0.64500327564E+02  0.76154932970E+02  0.00000000000E+00 0. -1.
         22    1    3    3    0    0 -0.17127041230E+02  0.86687681516E+02  0.30453324225E+02  0.93463868015E+02  0.00000000000E+00 0. -1.
</event>
<event>
 7    1  0.6058736E-006  0.8533535E+02  0.7818608E-02  0.1394025E+00
          2   -1    0    0  502    0  0.00000000000E+00  0.00000000000E+00  0.60437213236E+03  0.60437213236E+03  0.00000000000E+00 0. -1.
          1   -1    0    0  501    0 -0.00000000000E+00 -0.00000000000E+00 -0.54404262226E+03  0.54404262226E+03  0.00000000000E+00 0. -1.
         25    2    1    2    0    0 -0.97743943947E+02  0.12857946067E+02 -0.32364596574E+03  0.36067907413E+03  0.12499391195E+03 0.  0.
          2    1    1    2  501    0  0.16894978928E+02 -0.40068861943E+02 -0.19638374853E+03  0.20114057447E+03  0.00000000000E+00 0. -1.
          1    1    1    2  502    0  0.80848965019E+02  0.27210915876E+02  0.58035922437E+03  0.58659510601E+03  0.00000000000E+00 0. -1.
         22    1    3    3    0    0 -0.12300614556E+03  0.70043111876E+01 -0.20452099167E+03  0.23876433623E+03  0.00000000000E+00 0.  1.
         22    1    3    3    0    0  0.25262201613E+02  0.58536348796E+01 -0.11912497407E+03  0.12191473791E+03  0.00000000000E+00 0.  1.
</event>
<event>
 7    1  0.6058736E-006  0.1075448E+03  0.7818608E-02  0.1401790E+00
          2   -1    0    0  502    0  0.00000000000E+00  0.00000000000E+00  0.43366648230E+04  0.43366648230E+04  0.00000000000E+00 0. -1.
          1   -1    0    0  501    0 -0.00000000000E+00 -0.00000000000E+00 -0.89128739592E+03  0.89128739592E+03  0.00000000000E+00 0. -1.
         25    2    1    2    0    0  0.53368985334E+02  0.12805044088E+03  0.19332467490E+04  0.19422444625E+04  0.12500158202E+03 0.  0.
          2    1    1    2  501    0 -0.48365892038E+02 -0.95997343102E+02 -0.88342083850E+03  0.88993658610E+03  0.00000000000E+00 0. -1.
          1    1    1    2  502    0 -0.50030932958E+01 -0.32053097774E+02  0.23955515165E+04  0.23957711703E+04  0.00000000000E+00 0. -1.
         22    1    3    3    0    0  0.59342749203E+02  0.14387750047E+02  0.38423569112E+03  0.38905736796E+03  0.00000000000E+00 0. -1.
         22    1    3    3    0    0 -0.59737638692E+01  0.11366269083E+03  0.15490110579E+04  0.15531870945E+04  0.00000000000E+00 0. -1.
</event>
<event>
 7    1  0.6058736E-006  0.7180736E+02  0.7818608E-02  0.1421300E+00
          2   -1    0    0  502    0  0.00000000000E+00  0.00000000000E+00  0.62507457527E+02  0.62507457527E+02  0.00000000000E+00 0. -1.
          1   -1    0    0  501    0 -0.00000000000E+00 -0.00000000000E+00 -0.17154823937E+04  0.17154823937E+04  0.00000000000E+00 0. -1.
         25    2    1    2    0    0 -0.37476229649E+02  0.35302247168E+02 -0.37174547073E+03  0.39556303731E+03  0.12499882014E+03 0.  0.
          2    1    1    2  501    0  0.17787956935E+02 -0.72106732699E+02 -0.13219969177E+04  0.13240814336E+04  0.00000000000E+00 0. -1.
          1    1    1    2  502    0  0.19688272714E+02  0.36804485531E+02  0.40767452290E+02  0.58345380313E+02  0.00000000000E+00 0. -1.
         22    1    3    3    0    0 -0.68122742387E+01 -0.36358850255E+02 -0.38770763913E+02  0.53586800675E+02  0.00000000000E+00 0. -1.
         22    1    3    3    0    0 -0.30663955410E+02  0.71661097423E+02 -0.33297470681E+03  0.34197623664E+03  0.00000000000E+00 0. -1.
</event>
<event>
 7    1  0.6058736E-006  0.2638311E+02  0.7818608E-02  0.1649048E+00
          2   -1    0    0  502    0  0.00000000000E+00  0.00000000000E+00  0.97207924425E+03  0.97207924425E+03  0.00000000000E+00 0. -1.
          1   -1    0    0  501    0 -0.00000000000E+00 -0.00000000000E+00 -0.81299628491E+02  0.81299628491E+02  0.00000000000E+00 0. -1.
         25    2    1    2    0    0  0.71531690464E+01 -0.11391646471E+02  0.19036521974E+03  0.22813824933E+03  0.12500882563E+03 0.  0.
          2    1    1    2  501    0  0.18937977368E+02  0.16825846773E+02 -0.59599291363E+02  0.64759799547E+02  0.00000000000E+00 0. -1.
          1    1    1    2  502    0 -0.26091146415E+02 -0.54342003023E+01  0.76001368738E+03  0.76048082386E+03  0.00000000000E+00 0. -1.
         22    1    3    3    0    0 -0.28722074673E+02 -0.54713902918E+02  0.13836187448E+03  0.15153407886E+03  0.00000000000E+00 0.  1.
         22    1    3    3    0    0  0.35875243719E+02  0.43322256447E+02  0.52003345261E+02  0.76604170473E+02  0.00000000000E+00 0.  1.
</event>
<event>
 7    1  0.6058736E-006  0.5966721E+02  0.7818608E-02  0.1514981E+00
          2   -1    0    0  502    0  0.00000000000E+00  0.00000000000E+00  0.61019707630E+02  0.61019707630E+02  0.00000000000E+00 0. -1.
          1   -1    0    0  501    0 -0.00000000000E+00 -0.00000000000E+00 -0.21880903951E+04  0.21880903951E+04  0.00000000000E+00 0. -1.
         25    2    1    2    0    0 -0.41714458552E+02 -0.18517941041E+01 -0.56634567664E+03  0.58147681784E+03  0.12499735614E+03 0.  0.
          2    1    1    2  501    0 -0.15681674375E+02  0.20254218120E+02 -0.15970526941E+04  0.15972581057E+04  0.00000000000E+00 0. -1.
          1    1    1    2  502    0  0.57396132927E+02 -0.18402424016E+02  0.36327683268E+02  0.70375179263E+02  0.00000000000E+00 0. -1.
         22    1    3    3    0    0 -0.66373022687E+01 -0.59999233957E+01  0.41682531234E+01  0.98705215800E+01  0.00000000000E+00 0.  1.
         22    1    3    3    0    0 -0.35077156283E+02  0.41481292917E+01 -0.57051392976E+03  0.57160629626E+03  0.00000000000E+00 0.  1.
</event>
<event>
 7    1  0.6058736E-006  0.9199888E+02  0.7818608E-02  0.1469178E+00
          2   -1    0    0  502    0  0.00000000000E+00  0.00000000000E+00  0.23377203369E+03  0.23377203369E+03  0.00000000000E+00 0. -1.
          1   -1    0    0  501    0 -0.00000000000E+00 -0.00000000000E+00 -0.66035507283E+03  0.66035507283E+03  0.00000000000E+00 0. -1.
         25    2    1    2    0    0 -0.96219674689E+02 -0.61630194793E+02 -0.41655566314E+03  0.44966527893E+03  0.12499494338E+03 0.  0.
          2    1    1    2  501    0  0.18283133815E+02  0.13686407296E+02 -0.21698230253E+03  0.21818091195E+03  0.00000000000E+00 0. -1.
          1    1    1    2  502    0  0.77936540874E+02  0.47943787496E+02  0.20695492654E+03  0.22628091564E+03  0.00000000000E+00 0. -1.
         22    1    3    3    0    0 -0.22387606249E+02  0.97546560311E+00 -0.41367700309E+00  0.22412665513E+02  0.00000000000E+00 0. -1.
         22    1    3    3    0    0 -0.73832068439E+02 -0.62605660396E+02 -0.41614198614E+03  0.42725261342E+03  0.00000000000E+00 0. -1.
</event>
<event>
 7    1  0.6058736E-006  0.1524983E+03  0.7818608E-02  0.1242537E+00
          2   -1    0    0  502    0  0.00000000000E+00  0.00000000000E+00  0.28317260760E+04  0.28317260760E+04  0.00000000000E+00 0. -1.
          1   -1    0    0  501    0 -0.00000000000E+00 -0.00000000000E+00 -0.21956430412E+03  0.21956430412E+03  0.00000000000E+00 0. -1.
         25    2    1    2    0    0 -0.60360050995E+02 -0.16738242556E+03 -0.48878938297E+02  0.22287705692E+03  0.12499927899E+03 0.  0.
          2    1    1    2  501    0 -0.30971509131E+02  0.14136993873E+03 -0.19641497807E+02  0.14604958881E+03  0.00000000000E+00 0. -1.
          1    1    1    2  502    0  0.91331560126E+02  0.26012486830E+02  0.26806822080E+04  0.26823637344E+04  0.00000000000E+00 0. -1.
         22    1    3    3    0    0 -0.55420906337E+01 -0.46752540395E+02  0.41277273873E+02  0.62612523830E+02  0.00000000000E+00 0.  1.
         22    1    3    3    0    0 -0.54817960362E+02 -0.12062988517E+03 -0.90156212170E+02  0.16026453309E+03  0.00000000000E+00 0.  1.
</event>
<event>
 7    1  0.6058736E-006  0.3288619E+02  0.7818608E-02  0.1584193E+00
          2   -1    0    0  502    0  0.00000000000E+00  0.00000000000E+00  0.74902209984E+03  0.74902209984E+03  0.00000000000E+00 0. -1.
          1   -1    0    0  501    0 -0.00000000000E+00 -0.00000000000E+00 -0.88746782752E+02  0.88746782752E+02  0.00000000000E+00 0. -1.
         25    2    1    2    0    0  0.60351389437E+02 -0.10509955165E+02  0.25946078849E+03  0.29444268594E+03  0.12499538061E+03 0.  0.
          2    1    1    2  501    0 -0.30574607057E+02  0.11066943048E+02 -0.67048089998E+02  0.74516643762E+02  0.00000000000E+00 0. -1.
          1    1    1    2  502    0 -0.29776782380E+02 -0.55698788304E+00  0.46786261859E+03  0.46880955289E+03  0.00000000000E+00 0. -1.
         22    1    3    3    0    0  0.10626290191E+02  0.32408130144E+02  0.86670310331E+01  0.35189804910E+02  0.00000000000E+00 0. -1.
         22    1    3    3    0    0  0.49725099246E+02 -0.42918085308E+02  0.25079375746E+03  0.25925288103E+03  0.00000000000E+00 0. -1.
</event>
<event>
 7    1  0.6058736E-006  0.4353363E+02  0.7818608E-02  0.1522141E+00
          2   -1    0    0  502    0  0.00000000000E+00  0.00000000000E+00  0.10913290893E+04  0.10913290893E+04  0.00000000000E+00 0. -1.
          1   -1    0    0  501    0 -0.00000000000E+00 -0.00000000000E+00 -0.12459938647E+03  0.12459938647E+03  0.00000000000E+00 0. -1.
         25    2    1    2    0    0  0.51838209642E+01 -0.10971501355E+02  0.27577303594E+03  0.30302275903E+03  0.12499911720E+03 0.  0.
          2    1    1    2  501    0  0.32485635806E-01  0.44026479163E+02 -0.10624302925E+03  0.11500397031E+03  0.00000000000E+00 0. -1.
          1    1    1    2  502    0 -0.52163066001E+01 -0.33054977808E+02  0.79719969614E+03  0.79790174642E+03  0.00000000000E+00 0. -1.
         22    1    3    3    0    0  0.28544748533E+02  0.18213957005E+02  0.26041554721E+03  0.26260770767E+03  0.00000000000E+00 0. -1.
         22    1    3    3    0    0 -0.23360927569E+02 -0.29185458360E+02  0.15357488724E+02  0.40415051361E+02  0.00000000000E+00 0. -1.
</event>
<event>
 7    1  0.6058736E-006  0.6358444E+02  0.7818608E-02  0.1466212E+00
          2   -1    0    0  502    0  0.00000000000E+00  0.00000000000E+00  0.10135838135E+03  0.10135838135E+03  0.00000000000E+00 0. -1.
          1   -1    0    0  501    0 -0.00000000000E+00 -0.00000000000E+00 -0.22255749954E+04  0.22255749954E+04  0.00000000000E+00 0. -1.
         25    2    1    2    0    0  0.18574996814E+02  0.49448142524E+02 -0.13461358006E+04  0.13529585002E+04  0.12499984179E+03 0.  0.
          2    1    1    2  501    0  0.32017049661E+02 -0.10695122248E+02 -0.86529761412E+03  0.86595579455E+03  0.00000000000E+00 0. -1.
          1    1    1    2  502    0 -0.50592046475E+02 -0.38753020276E+02  0.87216800668E+02  0.10801908195E+03  0.00000000000E+00 0. -1.
         22    1    3    3    0    0  0.21206074320E+02  0.37508300916E+02 -0.13391854383E+03  0.14067958845E+03  0.00000000000E+00 0.  1.
         22    1    3    3    0    0 -0.26310775059E+01  0.11939841608E+02 -0.12122172567E+04  0.12122789118E+04  0.00000000000E+00 0.  1.
</event>
<event>
 7    1  0.6058736E-006  0.1332803E+03  0.7818608E-02  0.1244582E+00
          2   -1    0    0  502    0  0.00000000000E+00  0.00000000000E+00  0.10201747665E+04  0.10201747665E+04  0.00000000000E+00 0. -1.
          1   -1    0    0  501    0 -0.00000000000E+00 -0.00000000000E+00 -0.91152509493E+02  0.91152509493E+02  0.00000000000E+00 0. -1.
         25    2    1    2    0    0 -0.11770531484E+03  0.15883370956E+03  0.23047039632E+03  0.32836563126E+03  0.12499878310E+03 0.  0.
          2    1    1    2  501    0  0.20725967524E+02 -0.11497550014E+03  0.52295220415E+02  0.12799891188E+03  0.00000000000E+00 0. -1.
          1    1    1    2  502    0  0.96979347318E+02 -0.43858209416E+02  0.64625664027E+03  0.65496273286E+03  0.00000000000E+00 0. -1.
         22    1    3    3    0    0 -0.13203339366E+03  0.83693986792E+02  0.13958904240E+03  0.20957719634E+03  0.00000000000E+00 0. -1.
         22    1    3    3    0    0  0.14328078818E+02  0.75139722769E+02  0.90881353924E+02  0.11878843492E+03  0.00000000000E+00 0. -1.
</event>
<event>
 7    1  0.6058736E-006  0.7407331E+02  0.7818608E-02  0.1499764E+00
          2   -1    0    0  502    0  0.00000000000E+00  0.00000000000E+00  0.69684889944E+03  0.69684889944E+03  0.00000000000E+00 0. -1.
          1   -1    0    0  501    0 -0.00000000000E+00 -0.00000000000E+00 -0.23120977372E+03  0.23120977372E+03  0.00000000000E+00 0. -1.
         25    2    1    2    0    0 -0.74029779392E+02 -0.49925608663E+02  0.53252014658E+02  0.16258237973E+03  0.12499711395E+03 0.  0.
          2    1    1    2  501    0  0.22722183876E+02 -0.27151386394E+01 -0.17349655322E+03  0.17499921028E+03  0.00000000000E+00 0. -1.
          1    1    1    2  502    0  0.51307595517E+02  0.52640747302E+02  0.58588366429E+03  0.59047708314E+03  0.00000000000E+00 0. -1.
         22    1    3    3    0    0 -0.37874338901E+02 -0.35680867161E+02  0.93268706811E+02  0.10680187966E+03  0.00000000000E+00 0.  1.
         22    1    3    3    0    0 -0.36155440491E+02 -0.14244741501E+02 -0.40016692153E+02  0.55780500073E+02  0.00000000000E+00 0.  1.
</event>
<event>
 7    1  0.6058736E-006  0.1352276E+03  0.7818608E-02  0.1315526E+00
          2   -1    0    0  502    0  0.00000000000E+00  0.00000000000E+00  0.28744936214E+03  0.28744936214E+03  0.00000000000E+00 0. -1.
          1   -1    0    0  501    0 -0.00000000000E+00 -0.00000000000E+00 -0.59473049190E+03  0.59473049190E+03  0.00000000000E+00 0. -1.
         25    2    1    2    0    0  0.98369914048E+02 -0.22264494094E+02 -0.31920705351E+03  0.35734127686E+03  0.12500918947E+03 0.  0.
          2    1    1    2  501    0  0.38107453780E+02  0.37384630843E+02 -0.23571077100E+03  0.24168027685E+03  0.00000000000E+00 0. -1.
          1    1    1    2  502    0 -0.13647736783E+03 -0.15120136749E+02  0.24763669474E+03  0.28315830033E+03  0.00000000000E+00 0. -1.
         22    1    3    3    0    0  0.11013258400E+03  0.17930093462E+02 -0.17825225869E+03  0.21029631960E+03  0.00000000000E+00 0. -1.
         22    1    3    3    0    0 -0.11762669950E+02 -0.40194587557E+02 -0.14095479482E+03  0.14704495726E+03  0.00000000000E+00 0. -1.
</event>
<event>
 7    1  0.6058736E-006  0.1070903E+03  0.7818608E-02  0.1378605E+00
          2   -1    0    0  502    0  0.00000000000E+00  0.00000000000E+00  0.49071567616E+03  0.49071567616E+03  0.00000000000E+00 0. -1.
          1   -1    0    0  501    0 -0.00000000000E+00 -0.00000000000E+00 -0.14191434948E+03  0.14191434948E+03  0.00000000000E+00 0. -1.
         25    2    1    2    0    0  0.32494492215E+02  0.70888338688E+02  0.13706402670E+03  0.20122724106E+03  0.12499922617E+03 0.  0.
          2    1    1    2  501    0  0.10287030064E+02  0.37876752076E+02 -0.95196136480E+02  0.10296978069E+03  0.00000000000E+00 0. -1.
          1    1    1    2  502    0 -0.42781522278E+02 -0.10876509076E+03  0.30693343647E+03  0.32843300389E+03  0.00000000000E+00 0. -1.
         22    1    3    3    0    0 -0.34241978367E+02 -0.46490616973E+01  0.47299936871E+01  0.34878355715E+02  0.00000000000E+00 0.  1.
         22    1    3    3    0    0  0.66736470582E+02  0.75537400386E+02  0.13233403301E+03  0.16634888535E+03  0.00000000000E+00 0.  1.
</event>
<event>
 7    1  0.6058736E-006  0.1203425E+03  0.7818608E-02  0.1250457E+00
          2   -1    0    0  502    0  0.00000000000E+00  0.00000000000E+00  0.39702938318E+03  0.39702938318E+03  0.00000000000E+00 0. -1.
          1   -1    0    0  501    0 -0.00000000000E+00 -0.00000000000E+00 -0.33910079620E+04  0.33910079620E+04  0.00000000000E+00 0. -1.
         25    2    1    2    0    0 -0.14987483357E+03  0.16702230475E+03 -0.79034715800E+03  0.83104256883E+03  0.12499682012E+03 0.  0.
          2    1    1    2  501    0  0.69505460758E+02 -0.90266518182E+02 -0.25708269935E+04  0.25733500508E+04  0.00000000000E+00 0. -1.
          1    1    1    2  502    0  0.80369372811E+02 -0.76755786567E+02  0.36719557267E+03  0.38364472556E+03  0.00000000000E+00 0. -1.
         22    1    3    3    0    0 -0.17055785510E+02  0.51007080096E+02 -0.38845004289E+03  0.39215565514E+03  0.00000000000E+00 0.  1.
         22    1    3    3    0    0 -0.13281904806E+03  0.11601522465E+03 -0.40189711511E+03  0.43888691370E+03  0.00000000000E+00 0.  1.
</event>
<event>
 7    1  0.6058736E-006  0.1119833E+03  0.7818608E-02  0.1314745E+00
          2   -1    0    0  502    0  0.00000000000E+00  0.00000000000E+00  0.31987223129E+04  0.31987223129E+04  0.00000000000E+00 0. -1.
          1   -1    0    0  501    0 -0.00000000000E+00 -0.00000000000E+00 -0.17458606054E+04  0.17458606054E+04  0.00000000000E+00 0. -1.
         25    2    1    2    0    0  0.88186119638E+02 -0.67535359622E+02  0.91600584292E+02  0.19066658037E+03  0.12500104533E+03 0.  0.
          2    1    1    2  501    0 -0.36094499394E+02  0.10627721442E+03 -0.16941258220E+04  0.16978397922E+04  0.00000000000E+00 0. -1.
          1    1    1    2  502    0 -0.52091620244E+02 -0.38741854797E+02  0.30553869452E+04  0.30560765457E+04  0.00000000000E+00 0. -1.
         22    1    3    3    0    0  0.58934516063E+02 -0.96353377425E+02  0.30401196898E+02  0.11696787293E+03  0.00000000000E+00 0.  1.
         22    1    3    3    0    0  0.29251603575E+02  0.28818017803E+02  0.61199387394E+02  0.73698707446E+02  0.00000000000E+00 0.  1.
</event>
<event>
 7    1  0.6058736E-006  0.4213190E+02  0.7818608E-02  0.1565660E+00
          2   -1    0    0  502    0  0.00000000000E+00  0.00000000000E+00  0.79060329156E+03  0.79060329156E+03  0.00000000000E+00 0. -1.
          1   -1    0    0  501    0 -0.00000000000E+00 -0.00000000000E+00 -0.49103547511E+03  0.49103547511E+03  0.00000000000E+00 0. -1.
         25    2    1    2    0    0  0.69003082692E+01  0.46770377351E+02 -0.24718631560E+03  0.28099757932E+03  0.12499392991E+03 0.  0.
          2    1    1    2  501    0  0.21124125519E+02 -0.15302867404E+02 -0.22561780599E+03  0.22712067455E+03  0.00000000000E+00 0. -1.
          1    1    1    2  502    0 -0.28024433788E+02 -0.31467509947E+02  0.77237193803E+03  0.77352051280E+03  0.00000000000E+00 0. -1.
         22    1    3    3    0    0 -0.16426452231E+02 -0.49941986623E+01  0.84473582578E+01  0.19134477121E+02  0.00000000000E+00 0.  1.
         22    1    3    3    0    0  0.23326760500E+02  0.51764576013E+02 -0.25563367385E+03  0.26186310220E+03  0.00000000000E+00 0.  1.
</event>
<event>
 7    1  0.6058736E-006  0.6745615E+02  0.7818608E-02  0.1454158E+00
          2   -1    0    0  502    0  0.00000000000E+00  0.00000000000E+00  0.10504029220E+04  0.10504029220E+04  0.00000000000E+00 0. -1.
          1   -1    0    0  501    0 -0.00000000000E+00 -0.00000000000E+00 -0.88502512452E+03  0.88502512452E+03  0.00000000000E+00 0. -1.
         25    2    1    2    0    0  0.57649824979E+02 -0.15601732850E+02 -0.10833926810E+03  0.17586626226E+03  0.12499851519E+03 0.  0.
          2    1    1    2  501    0 -0.47581711606E+02  0.48839921418E+02 -0.74106012524E+03  0.74419047725E+03  0.00000000000E+00 0. -1.
          1    1    1    2  502    0 -0.10068113373E+02 -0.33238188568E+02  0.10147771908E+04  0.10153713070E+04  0.00000000000E+00 0. -1.
         22    1    3    3    0    0 -0.63082001849E+01  0.45219239101E+02 -0.59486323873E+02  0.74987970385E+02  0.00000000000E+00 0.  1.
         22    1    3    3    0    0  0.63958025164E+02 -0.60820971951E+02 -0.48852944231E+02  0.10087829188E+03  0.00000000000E+00 0.  1.
</event>
<event>
 7    1  0.6058736E-006  0.7787959E+02  0.7818608E-02  0.1507624E+00
          2   -1    0    0  502    0  0.00000000000E+00  0.00000000000E+00  0.18692820172E+04  0.18692820172E+04  0.00000000000E+00 0. -1.
          1   -1    0    0  501    0 -0.00000000000E+00 -0.00000000000E+00 -0.41547617292E+03  0.41547617292E+03  0.00000000000E+00 0. -1.
         25    2    1    2    0    0 -0.69069189356E+02  0.71753053750E+01 -0.87936635562E+02  0.16786680700E+03  0.12499750035E+03 0.  0.
          2    1    1    2  501    0 -0.79741702396E+01 -0.19023018941E+02 -0.28637296909E+03  0.28711485518E+03  0.00000000000E+00 0. -1.
          1    1    1    2  502    0  0.77043359596E+02  0.11847713566E+02  0.18281154489E+04  0.18297765279E+04  0.00000000000E+00 0. -1.
         22    1    3    3    0    0 -0.10388769869E+03 -0.52939441666E+01 -0.76604703387E+02  0.12918575914E+03  0.00000000000E+00 0.  1.
         22    1    3    3    0    0  0.34818509336E+02  0.12469249542E+02 -0.11331932175E+02  0.38681047857E+02  0.00000000000E+00 0.  1.
</event>
<event>
 7    1  0.6058736E-006  0.8233094E+02  0.7818608E-02  0.1340130E+00
          2   -1    0    0  502    0  0.00000000000E+00  0.00000000000E+00  0.75289785444E+02  0.75289785444E+02  0.00000000000E+00 0. -1.
          1   -1    0    0  501    0 -0.00000000000E+00 -0.00000000000E+00 -0.69118344806E+03  0.69118344806E+03  0.00000000000E+00 0. -1.
         25    2    1    2    0    0  0.32636886988E+02  0.42697725840E+02 -0.17000264244E+03  0.21776031671E+03  0.12502157780E+03 0.  0.
          2    1    1    2  501    0  0.21094545004E+02 -0.88440309978E+02 -0.46643821216E+03  0.47521708095E+03  0.00000000000E+00 0. -1.
          1    1    1    2  502    0 -0.53731431992E+02  0.45742584138E+02  0.20547191986E+02  0.73495835842E+02  0.00000000000E+00 0. -1.
         22    1    3    3    0    0  0.70491335282E+02  0.30277224739E+01 -0.13607551640E+03  0.15327994525E+03  0.00000000000E+00 0.  1.
         22    1    3    3    0    0 -0.37854448294E+02  0.39670003366E+02 -0.33927126042E+02  0.64480371464E+02  0.00000000000E+00 0.  1.
</event>
<event>
 7    1  0.6058736E-006  0.9428845E+02  0.7818608E-02  0.1381572E+00
          2   -1    0    0  502    0  0.00000000000E+00  0.00000000000E+00  0.13236570317E+04  0.13236570317E+04  0.00000000000E+00 0. -1.
          1   -1    0    0  501    0 -0.00000000000E+00 -0.00000000000E+00 -0.14821916529E+04  0.14821916529E+04  0.00000000000E+00 0. -1.
         25    2    1    2    0    0  0.61442218735E+02 -0.85589593074E+02  0.32901682244E+03  0.36739353861E+03  0.12500087231E+03 0.  0.
          2    1    1    2  501    0 -0.81687804983E+02  0.47074345519E+02 -0.14609978484E+04  0.14640367498E+04  0.00000000000E+00 0. -1.
          1    1    1    2  502    0  0.20245586248E+02  0.38515247555E+02  0.97344640475E+03  0.97441839626E+03  0.00000000000E+00 0. -1.
         22    1    3    3    0    0  0.39503490235E+02 -0.75631809223E+01  0.25331190806E+03  0.25648518517E+03  0.00000000000E+00 0.  1.
         22    1    3    3    0    0  0.21938728500E+02 -0.78026412152E+02  0.75704914380E+02  0.11090835344E+03  0.00000000000E+00 0.  1.
</event>
<event>
 7    1  0.6058736E-006  0.8979675E+02  0.7818608E-02  0.1345359E+00
          2   -1    0    0  502    0  0.00000000000E+00  0.00000000000E+00  0.63560680668E+03  0.63560680668E+03  0.00000000000E+00 0. -1.
          1   -1    0    0  501    0 -0.00000000000E+00 -0.00000000000E+00 -0.52966332861E+03  0.52966332861E+03  0.00000000000E+00 0. -1.
         25    2    1    2    0    0 -0.32668379726E+02 -0.93439593300E+02  0.17054632907E+03  0.23347130728E+03  0.12499848134E+03 0.  0.
          2    1    1    2  501    0 -0.28644261233E+02  0.85344555991E+02 -0.49188963427E+03  0.50005959569E+03  0.00000000000E+00 0. -1.
          1    1    1    2  502    0  0.61312640959E+02  0.80950373091E+01  0.42728678327E+03  0.43173923232E+03  0.00000000000E+00 0. -1.
         22    1    3    3    0    0 -0.25874947710E+02 -0.12470188220E+03  0.13301069254E+03  0.18415188479E+03  0.00000000000E+00 0.  1.
         22    1    3    3    0    0 -0.67934320160E+01  0.31262288895E+02  0.37535636527E+02  0.49319422492E+02  0.00000000000E+00 0.  1.
</event>
<event>
 7    1  0.6058736E-006  0.9889641E+02  0.7818608E-02  0.1306764E+00
          2   -1    0    0  502    0  0.00000000000E+00  0.00000000000E+00  0.24839738499E+04  0.24839738499E+04  0.00000000000E+00 0. -1.
          1   -1    0    0  501    0 -0.00000000000E+00 -0.00000000000E+00 -0.19204141978E+03  0.19204141978E+03  0.00000000000E+00 0. -1.
         25    2    1    2    0    0  0.11785244508E+03 -0.12389317264E+03  0.63525910954E+03  0.66964014620E+03  0.12500028846E+03 0.  0.
          2    1    1    2  501    0 -0.63088481598E+02  0.47588550026E+02 -0.16464983241E+03  0.18263185351E+03  0.00000000000E+00 0. -1.
          1    1    1    2  502    0 -0.54763963480E+02  0.76304622611E+02  0.18213231530E+04  0.18237432700E+04  0.00000000000E+00 0. -1.
         22    1    3    3    0    0 -0.23462067720E+01 -0.37830023379E+02  0.35503991988E+02  0.51934081316E+02  0.00000000000E+00 0. -1.
         22    1    3    3    0    0  0.12019865185E+03 -0.86063149257E+02  0.59975511755E+03  0.61770606488E+03  0.00000000000E+00 0. -1.
</event>
<event>
 7    1  0.6058736E-006  0.7912714E+02  0.7818608E-02  0.1456583E+00
          2   -1    0    0  502    0  0.00000000000E+00  0.00000000000E+00  0.80737758643E+02  0.80737758643E+02  0.00000000000E+00 0. -1.
          1   -1    0    0  501    0 -0.00000000000E+00 -0.00000000000E+00 -0.59297288052E+03  0.59297288052E+03  0.00000000000E+00 0. -1.
         25    2    1    2    0    0 -0.22775516839E+02 -0.48027530452E+02 -0.10634409656E+03  0.17250444874E+03  0.12499340027E+03 0.  0.
          2    1    1    2  501    0  0.31703716684E+02  0.75710167637E+02 -0.44497761136E+03  0.45248450774E+03  0.00000000000E+00 0. -1.
          1    1    1    2  502    0 -0.89281998447E+01 -0.27682637185E+02  0.39086586050E+02  0.48721682679E+02  0.00000000000E+00 0. -1.
         22    1    3    3    0    0  0.14932825041E+02 -0.72111109719E+02 -0.10434853997E+03  0.12771694955E+03  0.00000000000E+00 0. -1.
         22    1    3    3    0    0 -0.37708341880E+02  0.24083579267E+02 -0.19955565971E+01  0.44787499191E+02  0.00000000000E+00 0. -1.
</event>
<event>
 7    1  0.6058736E-006  0.7689704E+02  0.7818608E-02  0.1434498E+00
          2   -1    0    0  502    0  0.00000000000E+00  0.00000000000E+00  0.63372342598E+03  0.63372342598E+03  0.00000000000E+00 0. -1.
          1   -1    0    0  501    0 -0.00000000000E+00 -0.00000000000E+00 -0.89126280982E+03  0.89126280982E+03  0.00000000000E+00 0. -1.
         25    2    1    2    0    0 -0.34173752871E+02  0.10495950690E+03 -0.19009070562E+03  0.25287067530E+03  0.12499903437E+03 0.  0.
          2    1    1    2  501    0  0.28145094599E+01 -0.35142857931E+02 -0.66688333107E+03  0.66781458444E+03  0.00000000000E+00 0. -1.
          1    1    1    2  502    0  0.31359243411E+02 -0.69816648966E+02  0.59943465285E+03  0.60430097606E+03  0.00000000000E+00 0. -1.
         22    1    3    3    0    0 -0.18035445230E+02  0.10897248599E+03 -0.20347632335E+03  0.23152298838E+03  0.00000000000E+00 0.  1.
         22    1    3    3    0    0 -0.16138307641E+02 -0.40129790903E+01  0.13385617733E+02  0.21347686919E+02  0.00000000000E+00 0.  1.
</event>
<event>
 7    1  0.6058736E-006  0.4630164E+02  0.7818608E-02  0.1490082E+00
          2   -1    0    0  502    0  0.00000000000E+00  0.00000000000E+00  0.15760863733E+04  0.15760863733E+04  0.00000000000E+00 0. -1.
          1   -1    0    0  501    0 -0.00000000000E+00 -0.00000000000E+00 -0.96403936687E+02  0.96403936687E+02  0.00000000000E+00 0. -1.
         25    2    1    2    0    0 -0.19150460773E+01  0.71323680254E+02  0.93402032423E+03  0.94504372562E+03  0.12499176971E+03 0.  0.
          2    1    1    2  501    0 -0.20264381601E+02 -0.33493020900E+02 -0.85881372607E+02  0.94382401811E+02  0.00000000000E+00 0. -1.
          1    1    1    2  502    0  0.22179427678E+02 -0.37830659355E+02  0.63154348500E+03  0.63306418256E+03  0.00000000000E+00 0. -1.
         22    1    3    3    0    0 -0.35044393048E+02  0.71596280444E+02  0.30802086384E+03  0.31816817788E+03  0.00000000000E+00 0. -1.
         22    1    3    3    0    0  0.33129346971E+02 -0.27260018926E+00  0.62599946039E+03  0.62687554774E+03  0.00000000000E+00 0. -1.
</event>
<event>
 7    1  0.6058736E-006  0.6939687E+02  0.7818608E-02  0.1369168E+00
          2   -1    0    0  502    0  0.00000000000E+00  0.00000000000E+00  0.26168769681E+03  0.26168769681E+03  0.00000000000E+00 0. -1.
          1   -1    0    0  501    0 -0.00000000000E+00 -0.00000000000E+00 -0.35782492467E+03  0.35782492467E+03  0.00000000000E+00 0. -1.
         25    2    1    2    0    0  0.25192358716E+02  0.37641997170E+02 -0.56978360629E+02  0.14464941617E+03  0.12500138051E+03 0.  0.
          2    1    1    2  501    0  0.46643367391E+02 -0.45926610176E+02 -0.24662079394E+03  0.25516009337E+03  0.00000000000E+00 0. -1.
          1    1    1    2  502    0 -0.71835726107E+02  0.82846130058E+01  0.20746192671E+03  0.21970311193E+03  0.00000000000E+00 0. -1.
         22    1    3    3    0    0  0.57307699099E+02 -0.25014469951E+02 -0.25618805152E+02  0.67573806022E+02  0.00000000000E+00 0. -1.
         22    1    3    3    0    0 -0.32115340383E+02  0.62656467121E+02 -0.31359555477E+02  0.77075610148E+02  0.00000000000E+00 0. -1.
</event>
<event>
 7    1  0.6058736E-006  0.2478643E+03  0.7818608E-02  0.1301551E+00
          2   -1    0    0  502    0  0.00000000000E+00  0.00000000000E+00  0.11581672542E+04  0.11581672542E+04  0.00000000000E+00 0. -1.
          1   -1    0    0  501    0 -0.00000000000E+00 -0.00000000000E+00 -0.43061486423E+03  0.43061486423E+03  0.00000000000E+00 0. -1.
         25    2    1    2    0    0  0.10706448699E+03 -0.23030975335E+03  0.36635538724E+03  0.46297583716E+03  0.12499987668E+03 0.  0.
          2    1    1    2  501    0 -0.74483158046E+02  0.23598463337E+03 -0.34183085325E+03  0.42200097187E+03  0.00000000000E+00 0. -1.
          1    1    1    2  502    0 -0.32581328945E+02 -0.56748800226E+01  0.70302785602E+03  0.70380530944E+03  0.00000000000E+00 0. -1.
         22    1    3    3    0    0  0.93916179543E+01 -0.16147054158E+03  0.18431557933E+03  0.24522065792E+03  0.00000000000E+00 0. -1.
         22    1    3    3    0    0  0.97672869036E+02 -0.68839211772E+02  0.18203980791E+03  0.21775517924E+03  0.00000000000E+00 0. -1.
</event>
<event>
 7    1  0.6058736E-006  0.9229310E+02  0.7818608E-02  0.1316423E+00
          2   -1    0    0  502    0  0.00000000000E+00  0.00000000000E+00  0.77511102477E+03  0.77511102477E+03  0.00000000000E+00 0. -1.
          1   -1    0    0  501    0 -0.00000000000E+00 -0.00000000000E+00 -0.30212033865E+03  0.30212033865E+03  0.00000000000E+00 0. -1.
         25    2    1    2    0    0 -0.11677625162E+02 -0.16806257232E+02  0.82325438213E+02  0.15107092138E+03  0.12500451311E+03 0.  0.
          2    1    1    2  501    0  0.65342137003E+02  0.72844197081E+02 -0.25641079376E+03  0.27444920672E+03  0.00000000000E+00 0. -1.
          1    1    1    2  502    0 -0.53664511841E+02 -0.56037939849E+02  0.64707604167E+03  0.65171123531E+03  0.00000000000E+00 0. -1.
         22    1    3    3    0    0  0.23455940255E+02 -0.60718734969E+02  0.22272649428E+02  0.68796924510E+02  0.00000000000E+00 0.  1.
         22    1    3    3    0    0 -0.35133565417E+02  0.43912477737E+02  0.60052788784E+02  0.82273996869E+02  0.00000000000E+00 0.  1.
</event>
<event>
 7    1  0.6058736E-006  0.5857126E+02  0.7818608E-02  0.1449836E+00
          2   -1    0    0  502    0  0.00000000000E+00  0.00000000000E+00  0.80732656529E+03  0.80732656529E+03  0.00000000000E+00 0. -1.
          1   -1    0    0  501    0 -0.00000000000E+00 -0.00000000000E+00 -0.68022984921E+03  0.68022984921E+03  0.00000000000E+00 0. -1.
         25    2    1    2    0    0  0.60706322399E+02 -0.41572318124E+02  0.19016752015E+02  0.14628806858E+03  0.12500018776E+03 0.  0.
          2    1    1    2  501    0 -0.21475875157E+02  0.54444699081E+02 -0.61461477664E+03  0.61739514263E+03  0.00000000000E+00 0. -1.
          1    1    1    2  502    0 -0.39230447243E+02 -0.12872380958E+02  0.72269474071E+03  0.72387320328E+03  0.00000000000E+00 0. -1.
         22    1    3    3    0    0 -0.25081439436E+02  0.25580449730E+02  0.82518143292E+00  0.35834605299E+02  0.00000000000E+00 0. -1.
         22    1    3    3    0    0  0.85787761836E+02 -0.67152767853E+02  0.18191570582E+02  0.11045346328E+03  0.00000000000E+00 0. -1.
</event>
<event>
 7    1  0.6058736E-006  0.1053987E+03  0.7818608E-02  0.1413726E+00
          2   -1    0    0  502    0  0.00000000000E+00  0.00000000000E+00  0.97899684577E+03  0.97899684577E+03  0.00000000000E+00 0. -1.
          1   -1    0    0  501    0 -0.00000000000E+00 -0.00000000000E+00 -0.12306958131E+04  0.12306958131E+04  0.00000000000E+00 0. -1.
         25    2    1    2    0    0  0.21880811253E+01  0.76274747198E+02 -0.20237759686E+03  0.24980033999E+03  0.12498357247E+03 0.  0.
          2    1    1    2  501    0  0.83096123282E+01  0.28981034564E+02 -0.10014511150E+04  0.10019048287E+04  0.00000000000E+00 0. -1.
          1    1    1    2  502    0 -0.10497693454E+02 -0.10525578176E+03  0.95212974448E+03  0.95798749025E+03  0.00000000000E+00 0. -1.
         22    1    3    3    0    0  0.12574924928E+02  0.92076804703E+02 -0.70689901440E+02  0.11676184679E+03  0.00000000000E+00 0.  1.
         22    1    3    3    0    0 -0.10386843803E+02 -0.15802057504E+02 -0.13168769542E+03  0.13303849319E+03  0.00000000000E+00 0.  1.
</event>
<event>
 7    1  0.6058736E-006  0.1622602E+03  0.7818608E-02  0.1260998E+00
          2   -1    0    0  502    0  0.00000000000E+00  0.00000000000E+00  0.14644442264E+04  0.14644442264E+04  0.00000000000E+00 0. -1.
          1   -1    0    0  501    0 -0.00000000000E+00 -0.00000000000E+00 -0.12099897056E+04  0.12099897056E+04  0.00000000000E+00 0. -1.
         25    2    1    2    0    0  0.17095396951E+03  0.37042686303E+02  0.26996915220E+03  0.34511997187E+03  0.12500812593E+03 0.  0.
          2    1    1    2  501    0 -0.12524028708E+02 -0.73195302195E+02 -0.11655204116E+04  0.11678836557E+04  0.00000000000E+00 0. -1.
          1    1    1    2  502    0 -0.15842994080E+03  0.36152615892E+02  0.11500057801E+04  0.11614303045E+04  0.00000000000E+00 0. -1.
         22    1    3    3    0    0  0.21646837427E+02  0.32670646395E+02  0.14550274667E+03  0.15068844015E+03  0.00000000000E+00 0. -1.
         22    1    3    3    0    0  0.14930713208E+03  0.43720399075E+01  0.12446640553E+03  0.19443153172E+03  0.00000000000E+00 0. -1.
</event>
<event>
 7    1  0.6058736E-006  0.1650312E+03  0.7818608E-02  0.1212822E+00
          2   -1    0    0  502    0  0.00000000000E+00  0.00000000000E+00  0.21790679352E+04  0.21790679352E+04  0.00000000000E+00 0. -1.
          1   -1    0    0  501    0 -0.00000000000E+00 -0.00000000000E+00 -0.30013184955E+04  0.30013184955E+04  0.00000000000E+00 0. -1.
         25    2    1    2    0    0 -0.13786982896E+03  0.69377531519E+02 -0.55046349530E+03  0.58519687257E+03  0.12499595349E+03 0.  0.
          2    1    1    2  501    0  0.16682963792E+03  0.46463998764E+02 -0.24287538655E+04  0.24349201979E+04  0.00000000000E+00 0. -1.
          1    1    1    2  502    0 -0.28959808962E+02 -0.11584153028E+03  0.21569668005E+04  0.21602693603E+04  0.00000000000E+00 0. -1.
         22    1    3    3    0    0  0.15827281857E+02  0.35349967223E+02 -0.14958792318E+03  0.15452077464E+03  0.00000000000E+00 0.  1.
         22    1    3    3    0    0 -0.15369711082E+03  0.34027564297E+02 -0.40087557212E+03  0.43067609793E+03  0.00000000000E+00 0.  1.
</event>
<event>
 7    1  0.6058736E-006  0.5674776E+02  0.7818608E-02  0.1425971E+00
          2   -1    0    0  502    0  0.00000000000E+00  0.00000000000E+00  0.17462862764E+04  0.17462862764E+04  0.00000000000E+00 0. -1.
          1   -1    0    0  501    0 -0.00000000000E+00 -0.00000000000E+00 -0.11567261629E+02  0.11567261629E+02  0.00000000000E+00 0. -1.
         25    2    1    2    0    0 -0.39141603008E+02  0.20626613416E+02  0.53337185411E+03  0.54960731000E+03  0.12500055271E+03 0.  0.
          2    1    1    2  501    0  0.62283479989E+02  0.31188077940E+02  0.54112911824E+03  0.54559385141E+03  0.00000000000E+00 0. -1.
          1    1    1    2  502    0 -0.23141876981E+02 -0.51814691356E+02  0.66021804240E+03  0.66265237660E+03  0.00000000000E+00 0. -1.
         22    1    3    3    0    0 -0.60815204664E+02  0.57610771432E+02  0.26774926965E+03  0.28054796649E+03  0.00000000000E+00 0. -1.
         22    1    3    3    0    0  0.21673601656E+02 -0.36984158016E+02  0.26562258447E+03  0.26905934351E+03  0.00000000000E+00 0. -1.
</event>
<event>
 7    1  0.6058736E-006  0.9038522E+02  0.7818608E-02  0.1344288E+00
          2   -1    0    0  502    0  0.00000000000E+00  0.00000000000E+00  0.21666675680E+03  0.21666675680E+03  0.00000000000E+00 0. -1.
          1   -1    0    0  501    0 -0.00000000000E+00 -0.00000000000E+00 -0.26699029250E+03  0.26699029250E+03  0.00000000000E+00 0. -1.
         25    2    1    2    0    0 -0.38953760406E+02  0.96680268043E+01 -0.14341386457E+02  0.13207071495E+03  0.12500452868E+03 0.  0.
          2    1    1    2  501    0 -0.59721490927E+02  0.16693236716E+02 -0.17122594696E+03  0.18210888376E+03  0.00000000000E+00 0. -1.
          1    1    1    2  502    0  0.98675251333E+02 -0.26361263520E+02  0.13524379771E+03  0.16947745059E+03  0.00000000000E+00 0. -1.
         22    1    3    3    0    0 -0.49674889923E+02 -0.49118755867E+02 -0.18197557103E+02  0.72190012823E+02  0.00000000000E+00 0. -1.
         22    1    3    3    0    0  0.10721129517E+02  0.58786782672E+02  0.38561706463E+01  0.59880702126E+02  0.00000000000E+00 0. -1.
</event>
<event>
 7    1  0.6058736E-006  0.5994022E+02  0.7818608E-02  0.1439135E+00
          2   -1    0    0  502    0  0.00000000000E+00  0.00000000000E+00  0.32531108034E+04  0.32531108034E+04  0.00000000000E+00 0. -1.
          1   -1    0    0  501    0 -0.00000000000E+00 -0.00000000000E+00 -0.10788093842E+04  0.10788093842E+04  0.00000000000E+00 0. -1.
         25    2    1    2    0    0 -0.33135191871E+02 -0.97222991799E+02  0.38996261443E+02  0.16642176604E+03  0.12500097892E+03 0.  0.
          2    1    1    2  501    0  0.24107067069E+02  0.54484470644E+02 -0.10140708140E+04  0.10158195332E+04  0.00000000000E+00 0. -1.
          1    1    1    2  502    0  0.90281248025E+01  0.42738521155E+02  0.31493759717E+04  0.31496788883E+04  0.00000000000E+00 0. -1.
         22    1    3    3    0    0  0.24867375534E+02  0.13535454187E+02 -0.12823811999E+02  0.31081265100E+02  0.00000000000E+00 0.  1.
         22    1    3    3    0    0 -0.58002567405E+02 -0.11075844599E+03  0.51820073442E+02  0.13534050094E+03  0.00000000000E+00 0.  1.
</event>
<event>
 7    1  0.6058736E-006  0.7678185E+02  0.7818608E-02  0.1460264E+00
          2   -1    0    0  502    0  0.00000000000E+00  0.00000000000E+00  0.80225872948E+03  0.80225872948E+03  0.00000000000E+00 0. -1.
          1   -1    0    0  501    0 -0.00000000000E+00 -0.00000000000E+00 -0.32968888330E+03  0.32968888330E+03  0.00000000000E+00 0. -1.
         25    2    1    2    0    0  0.10769272253E+02  0.97673943479E+02  0.94625382705E+02  0.18502904715E+03  0.12500243508E+03 0.  0.
          2    1    1    2  501    0 -0.24620206906E+02 -0.71987901877E+02 -0.27907065354E+03  0.28925566939E+03  0.00000000000E+00 0. -1.
          1    1    1    2  502    0  0.13850934653E+02 -0.25686041603E+02  0.65701511702E+03  0.65766289625E+03  0.00000000000E+00 0. -1.
         22    1    3    3    0    0 -0.32429004258E+02  0.63630555936E+02 -0.46150816998E+01  0.71566660849E+02  0.00000000000E+00 0.  1.
         22    1    3    3    0    0  0.43198276511E+02  0.34043387543E+02  0.99240464405E+02  0.11346238630E+03  0.00000000000E+00 0.  1.
</event>
<event>
 7    1  0.6058736E-006  0.1364509E+03  0.7818608E-02  0.1354411E+00
          2   -1    0    0  502    0  0.00000000000E+00  0.00000000000E+00  0.15734955577E+04  0.15734955577E+04  0.00000000000E+00 0. -1.
          1   -1    0    0  501    0 -0.00000000000E+00 -0.00000000000E+00 -0.27377416500E+03  0.27377416500E+03  0.00000000000E+00 0. -1.
         25    2    1    2    0    0 -0.14600358880E+03 -0.92277777796E+02 -0.62686832091E+02  0.22222867427E+03  0.12499483403E+03 0.  0.
          2    1    1    2  501    0  0.28204874238E+02  0.24976466610E+02 -0.12546296854E+03  0.13099731024E+03  0.00000000000E+00 0. -1.
          1    1    1    2  502    0  0.11779871456E+03  0.67301311186E+02  0.14878711933E+04  0.14940437382E+04  0.00000000000E+00 0. -1.
         22    1    3    3    0    0 -0.16481792625E+03 -0.66776447579E+02 -0.37486154151E+02  0.18173952381E+03  0.00000000000E+00 0.  1.
         22    1    3    3    0    0  0.18814337444E+02 -0.25501330217E+02 -0.25200677940E+02  0.40489150459E+02  0.00000000000E+00 0.  1.
</event>
<event>
 7    1  0.6058736E-006  0.9114543E+02  0.7818608E-02  0.1348475E+00
          2   -1    0    0  502    0  0.00000000000E+00  0.00000000000E+00  0.12210687768E+04  0.12210687768E+04  0.00000000000E+00 0. -1.
          1   -1    0    0  501    0 -0.00000000000E+00 -0.00000000000E+00 -0.41302475338E+03  0.41302475338E+03  0.00000000000E+00 0. -1.
         25    2    1    2    0    0 -0.11530956004E+03  0.39410821534E+02  0.51909368556E+03  0.54765942592E+03  0.12499233942E+03 0.  0.
          2    1    1    2  501    0  0.62389529326E+02 -0.66220818527E+02 -0.39224604453E+03  0.40265942138E+03  0.00000000000E+00 0. -1.
          1    1    1    2  502    0  0.52920030716E+02  0.26809996993E+02  0.68119638241E+03  0.68377468292E+03  0.00000000000E+00 0. -1.
         22    1    3    3    0    0 -0.11194971844E+03  0.29739582220E+02  0.22211224796E+03  0.25050156267E+03  0.00000000000E+00 0.  1.
         22    1    3    3    0    0 -0.33598416055E+01  0.96712393138E+01  0.29698143761E+03  0.29715786325E+03  0.00000000000E+00 0.  1.
</event>
<event>
 7    1  0.6058736E-006  0.1293820E+03  0.7818608E-02  0.1267584E+00
          2   -1    0    0  502    0  0.00000000000E+00  0.00000000000E+00  0.15600271825E+04  0.15600271825E+04  0.00000000000E+00 0. -1.
          1   -1    0    0  501    0 -0.00000000000E+00 -0.00000000000E+00 -0.87803811462E+03  0.87803811462E+03  0.00000000000E+00 0. -1.
         25    2    1    2    0    0  0.10380771419E+03 -0.51242796511E+02  0.24745266872E+03  0.30043311784E+03  0.12500147728E+03 0.  0.
          2    1    1    2  501    0 -0.49670828810E+02 -0.71830753486E+02 -0.84577919148E+03  0.85027600762E+03  0.00000000000E+00 0. -1.
          1    1    1    2  502    0 -0.54136885381E+02  0.12307355000E+03  0.12803155906E+04  0.12873561716E+04  0.00000000000E+00 0. -1.
         22    1    3    3    0    0  0.51526388243E+02 -0.10766123681E+01  0.10429384014E+02  0.52582314807E+02  0.00000000000E+00 0. -1.
         22    1    3    3    0    0  0.52281325948E+02 -0.50166184143E+02  0.23702328470E+03  0.24785080304E+03  0.00000000000E+00 0. -1.
</event>
<event>
 7    1  0.6058736E-006  0.7593114E+02  0.7818608E-02  0.1367035E+00
          2   -1    0    0  502    0  0.00000000000E+00  0.00000000000E+00  0.42309017222E+03  0.42309017222E+03  0.00000000000E+00 0. -1.
          1   -1    0    0  501    0 -0.00000000000E+00 -0.00000000000E+00 -0.55866204449E+03  0.55866204449E+03  0.00000000000E+00 0. -1.
         25    2    1    2    0    0  0.64162443985E+01  0.11359438224E+03 -0.20344439520E+03  0.26449850581E+03  0.12499994308E+03 0.  0.
          2    1    1    2  501    0  0.34585928160E+02 -0.50119088296E+02 -0.31813941016E+03  0.32391479394E+03  0.00000000000E+00 0. -1.
          1    1    1    2  502    0 -0.41002172558E+02 -0.63475293942E+02  0.38601193309E+03  0.39333891695E+03  0.00000000000E+00 0. -1.
         22    1    3    3    0    0  0.45746735336E+02  0.16603103401E+01 -0.31396798831E+02  0.55509273110E+02  0.00000000000E+00 0.  1.
         22    1    3    3    0    0 -0.39330490938E+02  0.11193407190E+03 -0.17204759637E+03  0.20898923270E+03  0.00000000000E+00 0.  1.
</event>
<event>
 7    1  0.6058736E-006  0.1595964E+03  0.7818608E-02  0.1296577E+00
          2   -1    0    0  502    0  0.00000000000E+00  0.00000000000E+00  0.25057378708E+03  0.25057378708E+03  0.00000000000E+00 0. -1.
          1   -1    0    0  501    0 -0.00000000000E+00 -0.00000000000E+00 -0.19436066109E+04  0.19436066109E+04  0.00000000000E+00 0. -1.
         25    2    1    2    0    0 -0.81691267172E+02  0.13936697135E+03  0.30607278815E+02  0.20653800308E+03  0.12499810144E+03 0.  0.
          2    1    1    2  501    0  0.30817590414E+02 -0.15679562151E+03 -0.18465666304E+04  0.18534678069E+04  0.00000000000E+00 0. -1.
          1    1    1    2  502    0  0.50873676759E+02  0.17428650163E+02  0.12292652776E+03  0.13417458798E+03  0.00000000000E+00 0. -1.
         22    1    3    3    0    0 -0.28897518956E+02  0.14721797683E+03  0.30834494760E+02  0.15316319849E+03  0.00000000000E+00 0.  1.
         22    1    3    3    0    0 -0.52793748216E+02 -0.78510054856E+01 -0.22721594433E+00  0.53374804589E+02  0.00000000000E+00 0.  1.
</event>
<event>
 7    1  0.6058736E-006  0.6417053E+02  0.7818608E-02  0.1461142E+00
          2   -1    0    0  502    0  0.00000000000E+00  0.00000000000E+00  0.52693323861E+03  0.52693323861E+03  0.00000000000E+00 0. -1.
          1   -1    0    0  501    0 -0.00000000000E+00 -0.00000000000E+00 -0.19415727531E+04  0.19415727531E+04  0.00000000000E+00 0. -1.
         25    2    1    2    0    0  0.54315400967E+02  0.51085185289E+02 -0.42864789034E+02  0.15172583232E+03  0.12499391631E+03 0.  0.
          2    1    1    2  501    0 -0.20958222656E+02 -0.60630380693E+02 -0.18430817166E+04  0.18441977942E+04  0.00000000000E+00 0. -1.
          1    1    1    2  502    0 -0.33357178312E+02  0.95451954042E+01  0.47130699108E+03  0.47258236524E+03  0.00000000000E+00 0. -1.
         22    1    3    3    0    0  0.37680747992E+02  0.91960104187E+02 -0.41147862630E+02  0.10756228954E+03  0.00000000000E+00 0.  1.
         22    1    3    3    0    0  0.16634652975E+02 -0.40874918898E+02 -0.17169264034E+01  0.44163542779E+02  0.00000000000E+00 0.  1.
</event>
<event>
 7    1  0.6058736E-006  0.1170080E+03  0.7818608E-02  0.1397238E+00
          2   -1    0    0  502    0  0.00000000000E+00  0.00000000000E+00  0.70283102078E+03  0.70283102078E+03  0.00000000000E+00 0. -1.
          1   -1    0    0  501    0 -0.00000000000E+00 -0.00000000000E+00 -0.14885399999E+03  0.14885399999E+03  0.00000000000E+00 0. -1.
         25    2    1    2    0    0  0.12218929845E+03 -0.31031036549E+02 -0.53087447106E+02  0.18530016451E+03  0.12499889617E+03 0.  0.
          2    1    1    2  501    0 -0.54341944805E+01  0.30431157972E+02 -0.14361392324E+02  0.34085707190E+02  0.00000000000E+00 0. -1.
          1    1    1    2  502    0 -0.11675510396E+03  0.59987857706E+00  0.62142586023E+03  0.63229914907E+03  0.00000000000E+00 0. -1.
         22    1    3    3    0    0  0.80008636084E+02  0.35337690256E+02  0.48868648789E+01  0.87601459172E+02  0.00000000000E+00 0. -1.
         22    1    3    3    0    0  0.42180662362E+02 -0.66368726806E+02 -0.57974311985E+02  0.97698705340E+02  0.00000000000E+00 0. -1.
</event>
<event>
 7    1  0.6058736E-006  0.8007815E+02  0.7818608E-02  0.1489667E+00
          2   -1    0    0  502    0  0.00000000000E+00  0.00000000000E+00  0.51355642036E+03  0.51355642036E+03  0.00000000000E+00 0. -1.
          1   -1    0    0  501    0 -0.00000000000E+00 -0.00000000000E+00 -0.13077995315E+03  0.13077995315E+03  0.00000000000E+00 0. -1.
         25    2    1    2    0    0  0.59510655696E+02 -0.25828528071E+01  0.30879957893E+03  0.33841924589E+03  0.12498886657E+03 0.  0.
          2    1    1    2  501    0 -0.80069945353E+02  0.12206172316E+02 -0.10100503537E+03  0.12946893049E+03  0.00000000000E+00 0. -1.
          1    1    1    2  502    0  0.20559289657E+02 -0.96233195087E+01  0.17498192364E+03  0.17644819713E+03  0.00000000000E+00 0. -1.
         22    1    3    3    0    0 -0.28280599207E+02 -0.14960508080E+02  0.23599065042E+02  0.39755816736E+02  0.00000000000E+00 0.  1.
         22    1    3    3    0    0  0.87791254903E+02  0.12377655273E+02  0.28520051389E+03  0.29866342915E+03  0.00000000000E+00 0.  1.
</event>
<event>
 7    1  0.6058736E-006  0.1931650E+03  0.7818608E-02  0.1343499E+00
          2   -1    0    0  502    0  0.00000000000E+00  0.00000000000E+00  0.65563917016E+02  0.65563917016E+02  0.00000000000E+00 0. -1.
          1   -1    0    0  501    0 -0.00000000000E+00 -0.00000000000E+00 -0.14756632691E+04  0.14756632691E+04  0.00000000000E+00 0. -1.
         25    2    1    2    0    0 -0.12459365897E+03 -0.17280019757E+03 -0.33315496806E+03  0.41472831489E+03  0.12499541711E+03 0.  0.
          2    1    1    2  501    0  0.12329984706E+03  0.14361518226E+03 -0.10806042394E+04  0.10970568331E+04  0.00000000000E+00 0. -1.
          1    1    1    2  502    0  0.12938119069E+01  0.29185015309E+02  0.36598553582E+01  0.29442038128E+02  0.00000000000E+00 0. -1.
         22    1    3    3    0    0 -0.59555097805E+02 -0.16264215222E+03 -0.18961139253E+03  0.25681074653E+03  0.00000000000E+00 0.  1.
         22    1    3    3    0    0 -0.65038561166E+02 -0.10158045344E+02 -0.14354357552E+03  0.15791756836E+03  0.00000000000E+00 0.  1.
</event>
<event>
 7    1  0.6058736E-006  0.9636534E+02  0.7818608E-02  0.1333478E+00
          2   -1    0    0  502    0  0.00000000000E+00  0.00000000000E+00  0.13048297569E+04  0.13048297569E+04  0.00000000000E+00 0. -1.
          1   -1    0    0  501    0 -0.00000000000E+00 -0.00000000000E+00 -0.14332231455E+04  0.14332231455E+04  0.00000000000E+00 0. -1.
         25    2    1    2    0    0 -0.71614921900E+02  0.10652052569E+03  0.30952824332E+03  0.35764267876E+03  0.12500093129E+03 0.  0.
          2    1    1    2  501    0  0.62683926836E+02 -0.12317046669E+02 -0.14061342211E+04  0.14075846092E+04  0.00000000000E+00 0. -1.
          1    1    1    2  502    0  0.89309950643E+01 -0.94203479025E+02  0.96821258918E+03  0.97282561438E+03  0.00000000000E+00 0. -1.
         22    1    3    3    0    0 -0.32234425327E+02  0.10659403985E+03  0.11856930603E+03  0.16266538612E+03  0.00000000000E+00 0. -1.
         22    1    3    3    0    0 -0.39380496574E+02 -0.73514157688E-01  0.19095893729E+03  0.19497729265E+03  0.00000000000E+00 0. -1.
</event>
<event>
 7    1  0.6058736E-006  0.4883792E+02  0.7818608E-02  0.1496367E+00
          2   -1    0    0  502    0  0.00000000000E+00  0.00000000000E+00  0.82569369892E+03  0.82569369892E+03  0.00000000000E+00 0. -1.
          1   -1    0    0  501    0 -0.00000000000E+00 -0.00000000000E+00 -0.16031540526E+03  0.16031540526E+03  0.00000000000E+00 0. -1.
         25    2    1    2    0    0  0.81656624230E+02 -0.62965226534E+00  0.17794260942E+01  0.14931456999E+03  0.12499389470E+03 0.  0.
          2    1    1    2  501    0 -0.46148653516E+02 -0.63095780420E+00 -0.79940364569E+02  0.92306869823E+02  0.00000000000E+00 0. -1.
          1    1    1    2  502    0 -0.35507970714E+02  0.12606100695E+01  0.74353923214E+03  0.74438766436E+03  0.00000000000E+00 0. -1.
         22    1    3    3    0    0  0.24453949896E+02  0.57641219409E+02  0.19846623129E+02  0.65684048977E+02  0.00000000000E+00 0. -1.
         22    1    3    3    0    0  0.57202674334E+02 -0.58270871674E+02 -0.18067197034E+02  0.83630521015E+02  0.00000000000E+00 0. -1.
</event>
<event>
 7    1  0.6058736E-006  0.8116809E+02  0.7818608E-02  0.1354756E+00
          2   -1    0    0  502    0  0.00000000000E+00  0.00000000000E+00  0.31192496825E+04  0.31192496825E+04  0.00000000000E+00 0. -1.
          1   -1    0    0  501    0 -0.00000000000E+00 -0.00000000000E+00 -0.12366328576E+04  0.12366328576E+04  0.00000000000E+00 0. -1.
         25    2    1    2    0    0 -0.84054941415E+02  0.58160426096E+02  0.26439688583E+03  0.30980382691E+03  0.12499931837E+03 0.  0.
          2    1    1    2  501    0  0.23958374860E+02 -0.77554959673E+02 -0.12122199067E+04  0.12149345158E+04  0.00000000000E+00 0. -1.
          1    1    1    2  502    0  0.60096566554E+02  0.19394533577E+02  0.28304398458E+04  0.28311441973E+04  0.00000000000E+00 0. -1.
         22    1    3    3    0    0 -0.11726093979E+03  0.45758721642E+02  0.21171545402E+03  0.24630757617E+03  0.00000000000E+00 0.  1.
         22    1    3    3    0    0  0.33205998373E+02  0.12401704454E+02  0.52681431806E+02  0.63496250743E+02  0.00000000000E+00 0.  1.
</event>
<event>
 7    1  0.6058736E-006  0.6506093E+02  0.7818608E-02  0.1405073E+00
          2   -1    0    0  502    0  0.00000000000E+00  0.00000000000E+00  0.15073109398E+04  0.15073109398E+04  0.00000000000E+00 0. -1.
          1   -1    0    0  501    0 -0.00000000000E+00 -0.00000000000E+00 -0.30168414532E+02  0.30168414532E+02  0.00000000000E+00 0. -1.
         25    2    1    2    0    0  0.10185268105E+03 -0.20817269940E+02  0.41235780089E+03  0.44325088429E+03  0.12500025243E+03 0.  0.
          2    1    1    2  501    0 -0.50802464116E+02  0.31977740397E+02  0.50071136830E+02  0.78170230808E+02  0.00000000000E+00 0. -1.
          1    1    1    2  502    0 -0.51050216935E+02 -0.11160470457E+02  0.10147135875E+04  0.10160582392E+04  0.00000000000E+00 0. -1.
         22    1    3    3    0    0 -0.27761249728E+02 -0.14627697118E+02  0.10594619691E+03  0.11049548927E+03  0.00000000000E+00 0. -1.
         22    1    3    3    0    0  0.12961393078E+03 -0.61895728216E+01  0.30641160398E+03  0.33275539502E+03  0.00000000000E+00 0. -1.
</event>
<event>
 7    1  0.6058736E-006  0.9810251E+02  0.7818608E-02  0.1342461E+00
          2   -1    0    0  502    0  0.00000000000E+00  0.00000000000E+00  0.53404013893E+03  0.53404013893E+03  0.00000000000E+00 0. -1.
          1   -1    0    0  501    0 -0.00000000000E+00 -0.00000000000E+00 -0.58118418633E+03  0.58118418633E+03  0.00000000000E+00 0. -1.
         25    2    1    2    0    0  0.43498741028E+02 -0.45842979384E+00  0.27758855005E+03  0.30752731847E+03  0.12500119141E+03 0.  0.
          2    1    1    2  501    0 -0.95263548547E+02  0.26706576503E+02 -0.55831433290E+03  0.56701259177E+03  0.00000000000E+00 0. -1.
          1    1    1    2  502    0  0.51764807519E+02 -0.26248146709E+02  0.23358173544E+03  0.24068441502E+03  0.00000000000E+00 0. -1.
         22    1    3    3    0    0 -0.21331610200E+02 -0.30585608200E+02  0.19393971688E+03  0.19749210315E+03  0.00000000000E+00 0. -1.
         22    1    3    3    0    0  0.64830351227E+02  0.30127178406E+02  0.83648833175E+02  0.11003521532E+03  0.00000000000E+00 0. -1.
</event>
<event>
 7    1  0.6058736E-006  0.6301564E+02  0.7818608E-02  0.1443917E+00
          2   -1    0    0  502    0  0.00000000000E+00  0.00000000000E+00  0.14770424111E+04  0.14770424111E+04  0.00000000000E+00 0. -1.
          1   -1    0    0  501    0 -0.00000000000E+00 -0.00000000000E+00 -0.70441618459E+02  0.70441618459E+02  0.00000000000E+00 0. -1.
         25    2    1    2    0    0  0.23958698921E+02 -0.15556120587E+01  0.48060522159E+02  0.13605180612E+03  0.12499536382E+03 0.  0.
          2    1    1    2  501    0  0.38261333272E+02 -0.11985226701E+02 -0.10071307728E+02  0.41340132101E+02  0.00000000000E+00 0. -1.
          1    1    1    2  502    0 -0.62220032192E+02  0.13540838759E+02  0.13686115782E+04  0.13700920913E+04  0.00000000000E+00 0. -1.
         22    1    3    3    0    0 -0.46070117622E+02 -0.25956216657E+02  0.24165298294E+02  0.58138993477E+02  0.00000000000E+00 0.  1.
         22    1    3    3    0    0  0.70028816543E+02  0.24400604598E+02  0.23895223865E+02  0.77912812648E+02  0.00000000000E+00 0.  1.
</event>
<event>
 7    1  0.6058736E-006  0.6815669E+02  0.7818608E-02  0.1427495E+00
          2   -1    0    0  502    0  0.00000000000E+00  0.00000000000E+00  0.15454459529E+03  0.15454459529E+03  0.00000000000E+00 0. -1.
          1   -1    0    0  501    0 -0.00000000000E+00 -0.00000000000E+00 -0.13880007811E+04  0.13880007811E+04  0.00000000000E+00 0. -1.
         25    2    1    2    0    0  0.49950583232E+02  0.91652285235E+02 -0.10576673703E+04  0.10701309080E+04  0.12499876731E+03 0.  0.
          2    1    1    2  501    0 -0.32997589034E+02 -0.25889761929E+02 -0.31486316711E+03  0.31764435247E+03  0.00000000000E+00 0. -1.
          1    1    1    2  502    0 -0.16952994198E+02 -0.65762523306E+02  0.13907435166E+03  0.15477011589E+03  0.00000000000E+00 0. -1.
         22    1    3    3    0    0  0.29500523698E+02  0.11676942423E+03 -0.95262855819E+03  0.96021172103E+03  0.00000000000E+00 0.  1.
         22    1    3    3    0    0  0.20450059533E+02 -0.25117138993E+02 -0.10503881214E+03  0.10991918696E+03  0.00000000000E+00 0.  1.
</event>
<event>
 7    1  0.6058736E-006  0.7271447E+02  0.7818608E-02  0.1435189E+00
          2   -1    0    0  502    0  0.00000000000E+00  0.00000000000E+00  0.99213847927E+03  0.99213847927E+03  0.00000000000E+00 0. -1.
          1   -1    0    0  501    0 -0.00000000000E+00 -0.00000000000E+00 -0.53299344489E+02  0.53299344489E+02  0.00000000000E+00 0. -1.
         25    2    1    2    0    0 -0.85266509848E+02  0.21449652101E+02  0.49243186026E+03  0.51560130459E+03  0.12500041207E+03 0.  0.
          2    1    1    2  501    0  0.29715434540E+02  0.22195700425E+02 -0.30318437162E+02  0.47904736709E+02  0.00000000000E+00 0. -1.
          1    1    1    2  502    0  0.55551075309E+02 -0.43645352526E+02  0.47672571168E+03  0.48193178246E+03  0.00000000000E+00 0. -1.
         22    1    3    3    0    0 -0.70399725573E+02 -0.94551407201E+01  0.10568874896E+03  0.12734061686E+03  0.00000000000E+00 0. -1.
         22    1    3    3    0    0 -0.14866784276E+02  0.30904792822E+02  0.38674311130E+03  0.38826068773E+03  0.00000000000E+00 0. -1.
</event>
<event>
 7    1  0.6058736E-006  0.6748779E+02  0.7818608E-02  0.1526028E+00
          2   -1    0    0  502    0  0.00000000000E+00  0.00000000000E+00  0.56173887348E+03  0.56173887348E+03  0.00000000000E+00 0. -1.
          1   -1    0    0  501    0 -0.00000000000E+00 -0.00000000000E+00 -0.17496950431E+03  0.17496950431E+03  0.00000000000E+00 0. -1.
         25    2    1    2    0    0 -0.51211575644E+02  0.21630669877E+02 -0.78576393900E+02  0.15776384421E+03  0.12499867801E+03 0.  0.
          2    1    1    2  501    0 -0.16059086404E+02 -0.13586745320E+02 -0.52566810451E+02  0.56619461897E+02  0.00000000000E+00 0. -1.
          1    1    1    2  502    0  0.67270662047E+02 -0.80439245567E+01  0.51791257353E+03  0.52232507168E+03  0.00000000000E+00 0. -1.
         22    1    3    3    0    0 -0.23535866122E+02 -0.44052513572E+02 -0.69974621978E+02  0.85970975725E+02  0.00000000000E+00 0. -1.
         22    1    3    3    0    0 -0.27675709521E+02  0.65683183448E+02 -0.86017719214E+01  0.71792868487E+02  0.00000000000E+00 0. -1.
</event>
<event>
 7    1  0.6058736E-006  0.1028694E+03  0.7818608E-02  0.1326043E+00
          2   -1    0    0  502    0  0.00000000000E+00  0.00000000000E+00  0.83933076383E+02  0.83933076383E+02  0.00000000000E+00 0. -1.
          1   -1    0    0  501    0 -0.00000000000E+00 -0.00000000000E+00 -0.64947058031E+03  0.64947058031E+03  0.00000000000E+00 0. -1.
         25    2    1    2    0    0 -0.11462541623E+03 -0.17250361518E+02 -0.48240550096E+03  0.51164130944E+03  0.12500080461E+03 0.  0.
          2    1    1    2  501    0  0.37673327643E+02 -0.51600119306E+02 -0.98461707625E+02  0.11737359071E+03  0.00000000000E+00 0. -1.
          1    1    1    2  502    0  0.76952088586E+02  0.68850480824E+02  0.15329704658E+02  0.10438875654E+03  0.00000000000E+00 0. -1.
         22    1    3    3    0    0 -0.18408589954E+02  0.38417204804E+02 -0.52563561235E+02  0.67658597227E+02  0.00000000000E+00 0.  1.
         22    1    3    3    0    0 -0.96216826275E+02 -0.55667566322E+02 -0.42984193973E+03  0.44398271221E+03  0.00000000000E+00 0.  1.
</event>
<event>
 7    1  0.6058736E-006  0.8346002E+02  0.7818608E-02  0.1430680E+00
          2   -1    0    0  502    0  0.00000000000E+00  0.00000000000E+00  0.37654736386E+02  0.37654736386E+02  0.00000000000E+00 0. -1.
          1   -1    0    0  501    0 -0.00000000000E+00 -0.00000000000E+00 -0.56654742268E+03  0.56654742268E+03  0.00000000000E+00 0. -1.
         25    2    1    2    0    0  0.52285861114E+01  0.76676805886E+02 -0.35662632433E+03  0.38562351229E+03  0.12496594477E+03 0.  0.
          2    1    1    2  501    0  0.26339701592E+02 -0.87687165911E+02 -0.15717357049E+03  0.18189653709E+03  0.00000000000E+00 0. -1.
          1    1    1    2  502    0 -0.31568287703E+02  0.11010360025E+02 -0.15092791478E+02  0.36682109685E+02  0.00000000000E+00 0. -1.
         22    1    3    3    0    0  0.60854599618E+02  0.22259097023E+02 -0.20797610756E+03  0.21783666131E+03  0.00000000000E+00 0.  1.
         22    1    3    3    0    0 -0.55626013506E+02  0.54417708862E+02 -0.14865021676E+03  0.16778685098E+03  0.00000000000E+00 0.  1.
</event>
<event>
 7    1  0.6058736E-006  0.3307035E+02  0.7818608E-02  0.1592018E+00
          2   -1    0    0  502    0  0.00000000000E+00  0.00000000000E+00  0.59109494675E+03  0.59109494675E+03  0.00000000000E+00 0. -1.
          1   -1    0    0  501    0 -0.00000000000E+00 -0.00000000000E+00 -0.19157949969E+02  0.19157949969E+02  0.00000000000E+00 0. -1.
         25    2    1    2    0    0 -0.11498587476E+02 -0.41044901687E+01  0.38482074405E+03  0.40479767226E+03  0.12500034426E+03 0.  0.
          2    1    1    2  501    0  0.15269369480E+02  0.32085251802E+02  0.32089695080E+02  0.47878654512E+02  0.00000000000E+00 0. -1.
          1    1    1    2  502    0 -0.37707820039E+01 -0.27980761633E+02  0.15502655766E+03  0.15757656995E+03  0.00000000000E+00 0. -1.
         22    1    3    3    0    0 -0.51282682570E+02 -0.33410981895E+02  0.30374813461E+03  0.30985341135E+03  0.00000000000E+00 0.  1.
         22    1    3    3    0    0  0.39784095093E+02  0.29306491726E+02  0.81072609436E+02  0.94944260913E+02  0.00000000000E+00 0.  1.
</event>
<event>
 7    1  0.6058736E-006  0.7184031E+02  0.7818608E-02  0.1355009E+00
          2   -1    0    0  502    0  0.00000000000E+00  0.00000000000E+00  0.75762402983E+03  0.75762402983E+03  0.00000000000E+00 0. -1.
          1   -1    0    0  501    0 -0.00000000000E+00 -0.00000000000E+00 -0.15917136598E+03  0.15917136598E+03  0.00000000000E+00 0. -1.
         25    2    1    2    0    0 -0.60634438288E+02 -0.12174865836E+02  0.56605556115E+02  0.15050837929E+03  0.12499528306E+03 0.  0.
          2    1    1    2  501    0  0.22250912767E+02  0.72901586356E+02 -0.97027522888E+02  0.12338591739E+03  0.00000000000E+00 0. -1.
          1    1    1    2  502    0  0.38383525521E+02 -0.60726720519E+02  0.63887463062E+03  0.64290109913E+03  0.00000000000E+00 0. -1.
         22    1    3    3    0    0 -0.82251319148E+02 -0.20752098099E+02 -0.46807531394E+01  0.84957863244E+02  0.00000000000E+00 0.  1.
         22    1    3    3    0    0  0.21616880860E+02  0.85772322623E+01  0.61286309255E+02  0.65550516043E+02  0.00000000000E+00 0.  1.
</event>
<event>
 7    1  0.6058736E-006  0.1030350E+03  0.7818608E-02  0.1359072E+00
          2   -1    0    0  502    0  0.00000000000E+00  0.00000000000E+00  0.56973643345E+02  0.56973643345E+02  0.00000000000E+00 0. -1.
          1   -1    0    0  501    0 -0.00000000000E+00 -0.00000000000E+00 -0.12700158365E+04  0.12700158365E+04  0.00000000000E+00 0. -1.
         25    2    1    2    0    0  0.53583276806E+02  0.23816931099E+02 -0.11147111478E+03  0.17745121255E+03  0.12499883857E+03 0.  0.
          2    1    1    2  501    0 -0.98892224297E+02 -0.39562296558E+02 -0.10960971525E+04  0.11012601033E+04  0.00000000000E+00 0. -1.
          1    1    1    2  502    0  0.45308947491E+02  0.15745365459E+02 -0.54739258550E+01  0.48278164013E+02  0.00000000000E+00 0. -1.
         22    1    3    3    0    0  0.53450729257E+02  0.15792107248E+01 -0.13492224591E+03  0.14513265244E+03  0.00000000000E+00 0.  1.
         22    1    3    3    0    0  0.13254754947E+00  0.22237720374E+02  0.23451131122E+02  0.32318560104E+02  0.00000000000E+00 0.  1.
</event>
<event>
 7    1  0.6058736E-006  0.6498862E+02  0.7818608E-02  0.1511222E+00
          2   -1    0    0  502    0  0.00000000000E+00  0.00000000000E+00  0.19590345263E+04  0.19590345263E+04  0.00000000000E+00 0. -1.
          1   -1    0    0  501    0 -0.00000000000E+00 -0.00000000000E+00 -0.12947067306E+03  0.12947067306E+03  0.00000000000E+00 0. -1.
         25    2    1    2    0    0  0.13526980533E+02  0.52509825855E+02  0.92257575224E+03  0.93258306227E+03  0.12499955359E+03 0.  0.
          2    1    1    2  501    0 -0.18694750240E+02  0.15244264422E+02 -0.12216724650E+03  0.12452597079E+03  0.00000000000E+00 0. -1.
          1    1    1    2  502    0  0.51677697069E+01 -0.67754090278E+02  0.10291553475E+04  0.10313961663E+04  0.00000000000E+00 0. -1.
         22    1    3    3    0    0 -0.49482003078E+02  0.53944267798E+02  0.50502750391E+03  0.51030503855E+03  0.00000000000E+00 0.  1.
         22    1    3    3    0    0  0.63008983611E+02 -0.14344419428E+01  0.41754824832E+03  0.42227802372E+03  0.00000000000E+00 0.  1.
</event>
<event>
 7    1  0.6058736E-006  0.5820043E+02  0.7818608E-02  0.1545416E+00
          2   -1    0    0  502    0  0.00000000000E+00  0.00000000000E+00  0.17649241806E+04  0.17649241806E+04  0.00000000000E+00 0. -1.
          1   -1    0    0  501    0 -0.00000000000E+00 -0.00000000000E+00 -0.42732134791E+02  0.42732134791E+02  0.00000000000E+00 0. -1.
         25    2    1    2    0    0 -0.36622123398E+02  0.76589851063E+01  0.13953783233E+04  0.14014657046E+04  0.12500246359E+03 0.  0.
          2    1    1    2  501    0  0.56058999652E+02 -0.16812976104E+02 -0.17594087599E+02  0.61113333454E+02  0.00000000000E+00 0. -1.
          1    1    1    2  502    0 -0.19436876254E+02  0.91539909980E+01  0.34440781012E+03  0.34507727741E+03  0.00000000000E+00 0. -1.
         22    1    3    3    0    0  0.45478152269E+02 -0.79695179957E+01  0.57001963794E+03  0.57188649502E+03  0.00000000000E+00 0. -1.
         22    1    3    3    0    0 -0.82100275667E+02  0.15628503102E+02  0.82535868539E+03  0.82957920955E+03  0.00000000000E+00 0. -1.
</event>
<event>
 7    1  0.6058736E-006  0.5731842E+02  0.7818608E-02  0.1428940E+00
          2   -1    0    0  502    0  0.00000000000E+00  0.00000000000E+00  0.72826699590E+03  0.72826699590E+03  0.00000000000E+00 0. -1.
          1   -1    0    0  501    0 -0.00000000000E+00 -0.00000000000E+00 -0.22065072349E+03  0.22065072349E+03  0.00000000000E+00 0. -1.
         25    2    1    2    0    0 -0.47142499424E+02  0.14028344242E+01  0.35324724221E+03  0.37766800872E+03  0.12500050994E+03 0.  0.
          2    1    1    2  501    0  0.34411101573E+02  0.46253776602E+02 -0.20272600824E+03  0.21076377815E+03  0.00000000000E+00 0. -1.
          1    1    1    2  502    0  0.12731397851E+02 -0.47656611026E+02  0.35709503844E+03  0.36048593252E+03  0.00000000000E+00 0. -1.
         22    1    3    3    0    0 -0.78206233971E+02  0.18436330408E+02  0.13934081646E+03  0.16084768087E+03  0.00000000000E+00 0.  1.
         22    1    3    3    0    0  0.31063734547E+02 -0.17033495984E+02  0.21390642575E+03  0.21682032785E+03  0.00000000000E+00 0.  1.
</event>
<event>
 7    1  0.6058736E-006  0.7446412E+02  0.7818608E-02  0.1350440E+00
          2   -1    0    0  502    0  0.00000000000E+00  0.00000000000E+00  0.17316732632E+04  0.17316732632E+04  0.00000000000E+00 0. -1.
          1   -1    0    0  501    0 -0.00000000000E+00 -0.00000000000E+00 -0.87778030442E+02  0.87778030442E+02  0.00000000000E+00 0. -1.
         25    2    1    2    0    0  0.28869714982E+02 -0.12676837499E+03  0.29736551556E+03  0.34778737575E+03  0.12500451011E+03 0.  0.
          2    1    1    2  501    0 -0.44680651473E+02  0.55698881970E+02 -0.40923970627E+02  0.82301260261E+02  0.00000000000E+00 0. -1.
          1    1    1    2  502    0  0.15810936491E+02  0.71069493021E+02  0.13874536878E+04  0.13893626576E+04  0.00000000000E+00 0. -1.
         22    1    3    3    0    0  0.48003248478E+02 -0.99717311199E+02  0.29440806236E+03  0.31452179766E+03  0.00000000000E+00 0.  1.
         22    1    3    3    0    0 -0.19133533496E+02 -0.27051063792E+02  0.29574531920E+01  0.33265578091E+02  0.00000000000E+00 0.  1.
</event>
<event>
 7    1  0.6058736E-006  0.1422199E+03  0.7818608E-02  0.1371862E+00
          2   -1    0    0  502    0  0.00000000000E+00  0.00000000000E+00  0.41033464837E+03  0.41033464837E+03  0.00000000000E+00 0. -1.
          1   -1    0    0  501    0 -0.00000000000E+00 -0.00000000000E+00 -0.55308060156E+03  0.55308060156E+03  0.00000000000E+00 0. -1.
         25    2    1    2    0    0 -0.14343643793E+03  0.87116780648E+02 -0.13497589131E+03  0.24900979864E+03  0.12499617349E+03 0.  0.
          2    1    1    2  501    0  0.31104315641E+02 -0.28767030089E+01 -0.34640734799E+03  0.34781288736E+03  0.00000000000E+00 0. -1.
          1    1    1    2  502    0  0.11233212229E+03 -0.84240077639E+02  0.33863728611E+03  0.36659256393E+03  0.00000000000E+00 0. -1.
         22    1    3    3    0    0 -0.10425124889E+03  0.11768051508E+03 -0.85839378030E+02  0.17912405016E+03  0.00000000000E+00 0.  1.
         22    1    3    3    0    0 -0.39185189041E+02 -0.30563734437E+02 -0.49136513283E+02  0.69885748479E+02  0.00000000000E+00 0.  1.
</event>
<event>
 7    1  0.6058736E-006  0.2935153E+02  0.7818608E-02  0.1633083E+00
          2   -1    0    0  502    0  0.00000000000E+00  0.00000000000E+00  0.20926080212E+04  0.20926080212E+04  0.00000000000E+00 0. -1.
          1   -1    0    0  501    0 -0.00000000000E+00 -0.00000000000E+00 -0.29097286615E+03  0.29097286615E+03  0.00000000000E+00 0. -1.
         25    2    1    2    0    0 -0.28500098224E+02  0.14532192927E+02  0.32124352557E+03  0.34618877301E+03  0.12500329437E+03 0.  0.
          2    1    1    2  501    0  0.27470092766E+02  0.10390920574E+02 -0.27763721220E+03  0.27918631561E+03  0.00000000000E+00 0. -1.
          1    1    1    2  502    0  0.10300054584E+01 -0.24923113501E+02  0.17580288416E+04  0.17582057987E+04  0.00000000000E+00 0. -1.
         22    1    3    3    0    0  0.36201578628E+01 -0.31280244222E+02  0.26496773201E+03  0.26683226609E+03  0.00000000000E+00 0.  1.
         22    1    3    3    0    0 -0.32120256087E+02  0.45812437149E+02  0.56275793565E+02  0.79356506917E+02  0.00000000000E+00 0.  1.
</event>
<event>
 7    1  0.6058736E-006  0.3313564E+02  0.7818608E-02  0.1647557E+00
          2   -1    0    0  502    0  0.00000000000E+00  0.00000000000E+00  0.37543549015E+03  0.37543549015E+03  0.00000000000E+00 0. -1.
          1   -1    0    0  501    0 -0.00000000000E+00 -0.00000000000E+00 -0.19536611302E+04  0.19536611302E+04  0.00000000000E+00 0. -1.
         25    2    1    2    0    0 -0.39825574729E+02  0.51661968701E+01 -0.48671719484E+02  0.14002298538E+03  0.12499893665E+03 0.  0.
          2    1    1    2  501    0  0.26203790948E+02 -0.20273160083E+02 -0.18588523328E+04  0.18591475559E+04  0.00000000000E+00 0. -1.
          1    1    1    2  502    0  0.13621783781E+02  0.15106963213E+02  0.32929841222E+03  0.32992607903E+03  0.00000000000E+00 0. -1.
         22    1    3    3    0    0 -0.57596262418E+02 -0.35851757899E+02 -0.63501457663E+02  0.92925309331E+02  0.00000000000E+00 0.  1.
         22    1    3    3    0    0  0.17770687689E+02  0.41017954769E+02  0.14829738179E+02  0.47097676045E+02  0.00000000000E+00 0.  1.
</event>
<event>
 7    1  0.6058736E-006  0.4190735E+02  0.7818608E-02  0.1504001E+00
          2   -1    0    0  502    0  0.00000000000E+00  0.00000000000E+00  0.17092177852E+03  0.17092177852E+03  0.00000000000E+00 0. -1.
          1   -1    0    0  501    0 -0.00000000000E+00 -0.00000000000E+00 -0.32957812670E+03  0.32957812670E+03  0.00000000000E+00 0. -1.
         25    2    1    2    0    0 -0.59829168147E+01  0.19986938375E+02 -0.95507754466E+02  0.15868731955E+03  0.12499864489E+03 0.  0.
          2    1    1    2  501    0 -0.31710026190E+02 -0.31077296540E+02 -0.19719237141E+03  0.20212905645E+03  0.00000000000E+00 0. -1.
          1    1    1    2  502    0  0.37692943005E+02  0.11090358164E+02  0.13404377769E+03  0.13968352921E+03  0.00000000000E+00 0. -1.
         22    1    3    3    0    0 -0.63856029323E+01  0.72193168272E+02 -0.69281436668E+02  0.10026239044E+03  0.00000000000E+00 0. -1.
         22    1    3    3    0    0  0.40268611755E+00 -0.52206229897E+02 -0.26226317797E+02  0.58424929109E+02  0.00000000000E+00 0. -1.
</event>
<event>
 7    1  0.6058736E-006  0.1023096E+03  0.7818608E-02  0.1360878E+00
          2   -1    0    0  502    0  0.00000000000E+00  0.00000000000E+00  0.59158156495E+02  0.59158156495E+02  0.00000000000E+00 0. -1.
          1   -1    0    0  501    0 -0.00000000000E+00 -0.00000000000E+00 -0.12993918321E+04  0.12993918321E+04  0.00000000000E+00 0. -1.
         25    2    1    2    0    0 -0.31041100655E+02  0.11284160190E+03 -0.80425229391E+03  0.82227939640E+03  0.12499950574E+03 0.  0.
          2    1    1    2  501    0 -0.33428897140E+02 -0.33856892500E+02 -0.43160648596E+03  0.43422107164E+03  0.00000000000E+00 0. -1.
          1    1    1    2  502    0  0.64469997794E+02 -0.78984709397E+02 -0.43748957428E+01  0.10204952056E+03  0.00000000000E+00 0. -1.
         22    1    3    3    0    0 -0.56148685470E+02  0.12701031662E+03 -0.71890434479E+03  0.73219379427E+03  0.00000000000E+00 0. -1.
         22    1    3    3    0    0  0.25107584816E+02 -0.14168714725E+02 -0.85347949115E+02  0.90085602126E+02  0.00000000000E+00 0. -1.
</event>
<event>
 7    1  0.6058736E-006  0.6203579E+02  0.7818608E-02  0.1432320E+00
          2   -1    0    0  502    0  0.00000000000E+00  0.00000000000E+00  0.59994043277E+03  0.59994043277E+03  0.00000000000E+00 0. -1.
          1   -1    0    0  501    0 -0.00000000000E+00 -0.00000000000E+00 -0.18332260701E+04  0.18332260701E+04  0.00000000000E+00 0. -1.
         25    2    1    2    0    0  0.84048838827E+02 -0.65171346249E+02  0.35534650038E+03  0.39141767019E+03  0.12500058210E+03 0.  0.
          2    1    1    2  501    0 -0.49868681849E+02  0.36793521854E+02 -0.18124779984E+04  0.18135371910E+04  0.00000000000E+00 0. -1.
          1    1    1    2  502    0 -0.34180156978E+02  0.28377824395E+02  0.22384586065E+03  0.22821164164E+03  0.00000000000E+00 0. -1.
         22    1    3    3    0    0  0.13144887802E+02  0.23775451087E+02  0.18243009087E+03  0.18444185589E+03  0.00000000000E+00 0. -1.
         22    1    3    3    0    0  0.70903951025E+02 -0.88946797336E+02  0.17291640952E+03  0.20697581430E+03  0.00000000000E+00 0. -1.
</event>
<event>
 7    1  0.6058736E-006  0.1730335E+03  0.7818608E-02  0.1274018E+00
          2   -1    0    0  502    0  0.00000000000E+00  0.00000000000E+00  0.49932226887E+03  0.49932226887E+03  0.00000000000E+00 0. -1.
          1   -1    0    0  501    0 -0.00000000000E+00 -0.00000000000E+00 -0.34963670459E+03  0.34963670459E+03  0.00000000000E+00 0. -1.
         25    2    1    2    0    0  0.14057836594E+03  0.11067829812E+03  0.20771970452E+03  0.30130413275E+03  0.12499896848E+03 0.  0.
          2    1    1    2  501    0 -0.16471444400E+03 -0.54257414428E+02 -0.27337450479E+03  0.32374115424E+03  0.00000000000E+00 0. -1.
          1    1    1    2  502    0  0.24136078065E+02 -0.56420883697E+02  0.21534036455E+03  0.22391368647E+03  0.00000000000E+00 0. -1.
         22    1    3    3    0    0  0.10825780374E+03  0.13249559513E+03  0.19686423659E+03  0.26082630705E+03  0.00000000000E+00 0. -1.
         22    1    3    3    0    0  0.32320562193E+02 -0.21817297009E+02  0.10855467931E+02  0.40477825698E+02  0.00000000000E+00 0. -1.
</event>
<event>
 7    1  0.6058736E-006  0.5906552E+02  0.7818608E-02  0.1418382E+00
          2   -1    0    0  502    0  0.00000000000E+00  0.00000000000E+00  0.97086654808E+03  0.97086654808E+03  0.00000000000E+00 0. -1.
          1   -1    0    0  501    0 -0.00000000000E+00 -0.00000000000E+00 -0.16173697703E+04  0.16173697703E+04  0.00000000000E+00 0. -1.
         25    2    1    2    0    0  0.10662026657E+03 -0.16500176602E+02  0.65092690594E+03  0.67154363472E+03  0.12499951753E+03 0.  0.
          2    1    1    2  501    0 -0.54967150236E+02  0.21514330929E+02 -0.16043403185E+04  0.16054258349E+04  0.00000000000E+00 0. -1.
          1    1    1    2  502    0 -0.51653116333E+02 -0.50141543271E+01  0.30691019033E+03  0.31126684870E+03  0.00000000000E+00 0. -1.
         22    1    3    3    0    0  0.75601876501E+02 -0.36568922005E+02  0.61252600210E+03  0.61825644601E+03  0.00000000000E+00 0. -1.
         22    1    3    3    0    0  0.31018390068E+02  0.20068745403E+02  0.38400903842E+02  0.53287188707E+02  0.00000000000E+00 0. -1.
</event>
<event>
 7    1  0.6058736E-006  0.6853078E+02  0.7818608E-02  0.1366592E+00
          2   -1    0    0  502    0  0.00000000000E+00  0.00000000000E+00  0.18827876540E+04  0.18827876540E+04  0.00000000000E+00 0. -1.
          1   -1    0    0  501    0 -0.00000000000E+00 -0.00000000000E+00 -0.24998873512E+03  0.24998873512E+03  0.00000000000E+00 0. -1.
         25    2    1    2    0    0 -0.26767664741E+01  0.33210809224E+01  0.52339442042E+03  0.53813160019E+03  0.12500282052E+03 0.  0.
          2    1    1    2  501    0  0.65943341484E+02  0.20829419924E+02 -0.23682385846E+03  0.24671426581E+03  0.00000000000E+00 0. -1.
          1    1    1    2  502    0 -0.63266575010E+02 -0.24150500846E+02  0.13462283569E+04  0.13479305231E+04  0.00000000000E+00 0. -1.
         22    1    3    3    0    0 -0.52475881789E+02 -0.27851680097E+02  0.17477037759E+03  0.18459176346E+03  0.00000000000E+00 0. -1.
         22    1    3    3    0    0  0.49799115315E+02  0.31172761019E+02  0.34862404283E+03  0.35353983673E+03  0.00000000000E+00 0. -1.
</event>
<event>
 7    1  0.6058736E-006  0.1217668E+03  0.7818608E-02  0.1402673E+00
          2   -1    0    0  502    0  0.00000000000E+00  0.00000000000E+00  0.14008853091E+04  0.14008853091E+04  0.00000000000E+00 0. -1.
          1   -1    0    0  501    0 -0.00000000000E+00 -0.00000000000E+00 -0.77230270611E+03  0.77230270611E+03  0.00000000000E+00 0. -1.
         25    2    1    2    0    0 -0.79753719600E+02  0.10378551059E+03  0.18393496223E+03  0.25804878375E+03  0.12500006587E+03 0.  0.
          2    1    1    2  501    0 -0.12752801226E+02 -0.25435344254E+02 -0.73185473163E+03  0.73240763165E+03  0.00000000000E+00 0. -1.
          1    1    1    2  502    0  0.92506520825E+02 -0.78350166336E+02  0.11765023724E+04  0.11827315998E+04  0.00000000000E+00 0. -1.
         22    1    3    3    0    0 -0.55615290279E+02 -0.66441977178E+01  0.21160063018E+02  0.59874486579E+02  0.00000000000E+00 0. -1.
         22    1    3    3    0    0 -0.24138429320E+02  0.11042970831E+03  0.16277489921E+03  0.19817429717E+03  0.00000000000E+00 0. -1.
</event>
<event>
 7    1  0.6058736E-006  0.1268215E+03  0.7818608E-02  0.1336992E+00
          2   -1    0    0  502    0  0.00000000000E+00  0.00000000000E+00  0.24974132804E+03  0.24974132804E+03  0.00000000000E+00 0. -1.
          1   -1    0    0  501    0 -0.00000000000E+00 -0.00000000000E+00 -0.82693983316E+03  0.82693983316E+03  0.00000000000E+00 0. -1.
         25    2    1    2    0    0 -0.88807831598E+02 -0.11490404290E+03 -0.50973473005E+02  0.19827427955E+03  0.12499849980E+03 0.  0.
          2    1    1    2  501    0  0.47009187495E+02 -0.24897246723E+01 -0.67935294829E+03  0.68098200474E+03  0.00000000000E+00 0. -1.
          1    1    1    2  502    0  0.41798644103E+02  0.11739376757E+03  0.15312791617E+03  0.19742487691E+03  0.00000000000E+00 0. -1.
         22    1    3    3    0    0 -0.24470874589E+02  0.20481477281E+01  0.32581298922E+02  0.40799015328E+02  0.00000000000E+00 0. -1.
         22    1    3    3    0    0 -0.64336957008E+02 -0.11695219063E+03 -0.83554771926E+02  0.15747526422E+03  0.00000000000E+00 0. -1.
</event>
<event>
 7    1  0.6058736E-006  0.6474241E+02  0.7818608E-02  0.1485684E+00
          2   -1    0    0  502    0  0.00000000000E+00  0.00000000000E+00  0.32677026931E+03  0.32677026931E+03  0.00000000000E+00 0. -1.
          1   -1    0    0  501    0 -0.00000000000E+00 -0.00000000000E+00 -0.42892244381E+03  0.42892244381E+03  0.00000000000E+00 0. -1.
         25    2    1    2    0    0 -0.56933908167E+02  0.47537682639E+02 -0.53742696726E+02  0.15496727199E+03  0.12500110707E+03 0.  0.
          2    1    1    2  501    0 -0.47884830908E+01 -0.28469806095E+02 -0.32013105274E+03  0.32143016404E+03  0.00000000000E+00 0. -1.
          1    1    1    2  502    0  0.61722391258E+02 -0.19067876544E+02  0.27172157496E+03  0.27929527708E+03  0.00000000000E+00 0. -1.
         22    1    3    3    0    0 -0.68976753019E+01 -0.28836910752E+02  0.21523184046E+02  0.36638678985E+02  0.00000000000E+00 0.  1.
         22    1    3    3    0    0 -0.50036232866E+02  0.76374593391E+02 -0.75265880772E+02  0.11832859301E+03  0.00000000000E+00 0.  1.
</event>
<event>
 7    1  0.6058736E-006  0.2368877E+03  0.7818608E-02  0.1124879E+00
          2   -1    0    0  502    0  0.00000000000E+00  0.00000000000E+00  0.17224694070E+04  0.17224694070E+04  0.00000000000E+00 0. -1.
          1   -1    0    0  501    0 -0.00000000000E+00 -0.00000000000E+00 -0.51217665842E+03  0.51217665842E+03  0.00000000000E+00 0. -1.
         25    2    1    2    0    0 -0.34761428910E+01 -0.54593873501E+02 -0.25835351141E+02  0.13887221732E+03  0.12500181111E+03 0.  0.
          2    1    1    2  501    0 -0.23513953707E+03 -0.28726020458E+02 -0.38664168006E+03  0.45343971474E+03  0.00000000000E+00 0. -1.
          1    1    1    2  502    0  0.23861567996E+03  0.83319893959E+02  0.16227697798E+04  0.16423341334E+04  0.00000000000E+00 0. -1.
         22    1    3    3    0    0 -0.34578930698E+02  0.13624585776E+02  0.28032538140E+02  0.46552711847E+02  0.00000000000E+00 0.  1.
         22    1    3    3    0    0  0.31102787807E+02 -0.68218459277E+02 -0.53867889280E+02  0.92319505474E+02  0.00000000000E+00 0.  1.
</event>
<event>
 7    1  0.6058736E-006  0.9202053E+02  0.7818608E-02  0.1393948E+00
          2   -1    0    0  502    0  0.00000000000E+00  0.00000000000E+00  0.10655477961E+04  0.10655477961E+04  0.00000000000E+00 0. -1.
          1   -1    0    0  501    0 -0.00000000000E+00 -0.00000000000E+00 -0.22155962549E+03  0.22155962549E+03  0.00000000000E+00 0. -1.
         25    2    1    2    0    0 -0.49102086399E+02  0.21369864870E+02  0.20345912391E+02  0.13750270070E+03  0.12500140213E+03 0.  0.
          2    1    1    2  501    0 -0.33284262926E+02  0.22811292710E+02 -0.15822902541E+03  0.16329305470E+03  0.00000000000E+00 0. -1.
          1    1    1    2  502    0  0.82386349326E+02 -0.44181157580E+02  0.98187128362E+03  0.98631166618E+03  0.00000000000E+00 0. -1.
         22    1    3    3    0    0 -0.52310585468E+01  0.70099423500E+02  0.13485659243E+02  0.71576226178E+02  0.00000000000E+00 0. -1.
         22    1    3    3    0    0 -0.43871027853E+02 -0.48729558631E+02  0.68602531477E+01  0.65926474518E+02  0.00000000000E+00 0. -1.
</event>
<event>
 7    1  0.6058736E-006  0.1072107E+03  0.7818608E-02  0.1454338E+00
          2   -1    0    0  502    0  0.00000000000E+00  0.00000000000E+00  0.28350986074E+03  0.28350986074E+03  0.00000000000E+00 0. -1.
          1   -1    0    0  501    0 -0.00000000000E+00 -0.00000000000E+00 -0.42290415631E+03  0.42290415631E+03  0.00000000000E+00 0. -1.
         25    2    1    2    0    0  0.71404422072E+02  0.53925419276E+02  0.13643273474E+03  0.20553847643E+03  0.12500252737E+03 0.  0.
          2    1    1    2  501    0 -0.93217632916E+02 -0.54574264701E+02 -0.37968413244E+03  0.39475045013E+03  0.00000000000E+00 0. -1.
          1    1    1    2  502    0  0.21813210844E+02  0.64884542531E+00  0.10385710212E+03  0.10612509048E+03  0.00000000000E+00 0. -1.
         22    1    3    3    0    0  0.34854335325E+02  0.29935305517E+02 -0.14676056971E+02  0.48232083260E+02  0.00000000000E+00 0. -1.
         22    1    3    3    0    0  0.36550086746E+02  0.23990113758E+02  0.15110879171E+03  0.15730639317E+03  0.00000000000E+00 0. -1.
</event>
<event>
 7    1  0.6058736E-006  0.7299550E+02  0.7818608E-02  0.1438994E+00
          2   -1    0    0  502    0  0.00000000000E+00  0.00000000000E+00  0.43610601564E+03  0.43610601564E+03  0.00000000000E+00 0. -1.
          1   -1    0    0  501    0 -0.00000000000E+00 -0.00000000000E+00 -0.38775683263E+03  0.38775683263E+03  0.00000000000E+00 0. -1.
         25    2    1    2    0    0  0.45868147374E+02 -0.93159043346E+02 -0.12440231143E+03  0.20465507586E+03  0.12500108274E+03 0.  0.
          2    1    1    2  501    0 -0.24114815658E+02  0.64591292699E+02 -0.21705958786E+03  0.22774640306E+03  0.00000000000E+00 0. -1.
          1    1    1    2  502    0 -0.21753331716E+02  0.28567750647E+02  0.38981108230E+03  0.39146136936E+03  0.00000000000E+00 0. -1.
         22    1    3    3    0    0 -0.40380310451E+02 -0.39529554966E+02 -0.68236950064E+02  0.88597045898E+02  0.00000000000E+00 0.  1.
         22    1    3    3    0    0  0.86248457825E+02 -0.53629488380E+02 -0.56165361362E+02  0.11605802996E+03  0.00000000000E+00 0.  1.
</event>
<event>
 7    1  0.6058736E-006  0.1262221E+03  0.7818608E-02  0.1305932E+00
          2   -1    0    0  502    0  0.00000000000E+00  0.00000000000E+00  0.24534202313E+04  0.24534202313E+04  0.00000000000E+00 0. -1.
          1   -1    0    0  501    0 -0.00000000000E+00 -0.00000000000E+00 -0.14293629482E+04  0.14293629482E+04  0.00000000000E+00 0. -1.
         25    2    1    2    0    0  0.36931946758E+02  0.57174533389E+02  0.21536166036E+03  0.25814470343E+03  0.12500058878E+03 0.  0.
          2    1    1    2  501    0 -0.43668474569E+02 -0.11919810232E+03 -0.14046695759E+04  0.14103941792E+04  0.00000000000E+00 0. -1.
          1    1    1    2  502    0  0.67365278115E+01  0.62023568930E+02  0.22133651986E+04  0.22142442969E+04  0.00000000000E+00 0. -1.
         22    1    3    3    0    0  0.64777159012E+02 -0.56436542567E+01  0.14921673188E+03  0.16276843747E+03  0.00000000000E+00 0.  1.
         22    1    3    3    0    0 -0.27845212254E+02  0.62818187645E+02  0.66144928478E+02  0.95376265957E+02  0.00000000000E+00 0.  1.
</event>
<event>
 7    1  0.6058736E-006  0.9115341E+02  0.7818608E-02  0.1459775E+00
          2   -1    0    0  502    0  0.00000000000E+00  0.00000000000E+00  0.56489711446E+03  0.56489711446E+03  0.00000000000E+00 0. -1.
          1   -1    0    0  501    0 -0.00000000000E+00 -0.00000000000E+00 -0.12596124672E+03  0.12596124672E+03  0.00000000000E+00 0. -1.
         25    2    1    2    0    0  0.10689557135E+03  0.34025817720E+02 -0.15525397171E+02  0.16867260999E+03  0.12499996783E+03 0.  0.
          2    1    1    2  501    0 -0.18407077078E+02 -0.16423868614E+02 -0.24519529951E+02  0.34781766715E+02  0.00000000000E+00 0. -1.
          1    1    1    2  502    0 -0.88488494268E+02 -0.17601949107E+02  0.47898079486E+03  0.48740398447E+03  0.00000000000E+00 0. -1.
         22    1    3    3    0    0  0.93378116191E+02  0.53203532628E+02  0.34949195760E+02  0.11301121516E+03  0.00000000000E+00 0.  1.
         22    1    3    3    0    0  0.13517455155E+02 -0.19177714908E+02 -0.50474592930E+02  0.55661394830E+02  0.00000000000E+00 0.  1.
</event>
<event>
 7    1  0.6058736E-006  0.2630572E+03  0.7818608E-02  0.1206307E+00
          2   -1    0    0  502    0  0.00000000000E+00  0.00000000000E+00  0.11643148743E+04  0.11643148743E+04  0.00000000000E+00 0. -1.
          1   -1    0    0  501    0 -0.00000000000E+00 -0.00000000000E+00 -0.37211507118E+03  0.37211507118E+03  0.00000000000E+00 0. -1.
         25    2    1    2    0    0  0.22403283406E+03 -0.18961289980E+03  0.76658501717E+02  0.32808885422E+03  0.12498803090E+03 0.  0.
          2    1    1    2  501    0 -0.14619464982E+03  0.20938763279E+03 -0.17794270432E+03  0.31125497975E+03  0.00000000000E+00 0. -1.
          1    1    1    2  502    0 -0.77838184240E+02 -0.19774732983E+02  0.89348400571E+03  0.89708611150E+03  0.00000000000E+00 0. -1.
         22    1    3    3    0    0  0.18231592152E+03 -0.17605594336E+03  0.16966580928E+02  0.25401310065E+03  0.00000000000E+00 0. -1.
         22    1    3    3    0    0  0.41716912541E+02 -0.13556956442E+02  0.59691920789E+02  0.74075753573E+02  0.00000000000E+00 0. -1.
</event>
<event>
 7    1  0.6058736E-006  0.7597281E+02  0.7818608E-02  0.1470317E+00
          2   -1    0    0  502    0  0.00000000000E+00  0.00000000000E+00  0.21133164648E+03  0.21133164648E+03  0.00000000000E+00 0. -1.
          1   -1    0    0  501    0 -0.00000000000E+00 -0.00000000000E+00 -0.16530645970E+04  0.16530645970E+04  0.00000000000E+00 0. -1.
         25    2    1    2    0    0  0.86709924442E+02  0.20417068484E+02 -0.12374551763E+03  0.19715887227E+03  0.12499280020E+03 0.  0.
          2    1    1    2  501    0 -0.75582647086E+02  0.46560153113E+01 -0.14905680019E+04  0.14924903293E+04  0.00000000000E+00 0. -1.
          1    1    1    2  502    0 -0.11127277356E+02 -0.25073083795E+02  0.17258056900E+03  0.17474704183E+03  0.00000000000E+00 0. -1.
         22    1    3    3    0    0  0.38752277983E+02  0.46145587833E+02 -0.12910189937E+03  0.14247264560E+03  0.00000000000E+00 0. -1.
         22    1    3    3    0    0  0.47957646459E+02 -0.25728519349E+02  0.53563817418E+01  0.54686226667E+02  0.00000000000E+00 0. -1.
</event>
<event>
 7    1  0.6058736E-006  0.7085245E+02  0.7818608E-02  0.1419861E+00
          2   -1    0    0  502    0  0.00000000000E+00  0.00000000000E+00  0.74125905956E+03  0.74125905956E+03  0.00000000000E+00 0. -1.
          1   -1    0    0  501    0 -0.00000000000E+00 -0.00000000000E+00 -0.64949687043E+03  0.64949687043E+03  0.00000000000E+00 0. -1.
         25    2    1    2    0    0  0.85011083458E+02  0.27095539231E+02  0.14648115109E+03  0.21223161028E+03  0.12499790486E+03 0.  0.
          2    1    1    2  501    0 -0.69594193977E+02  0.12801887066E+02 -0.61377191300E+03  0.61783752017E+03  0.00000000000E+00 0. -1.
          1    1    1    2  502    0 -0.15416889481E+02 -0.39897426297E+02  0.55905295104E+03  0.56068679954E+03  0.00000000000E+00 0. -1.
         22    1    3    3    0    0  0.11118947696E+03  0.40437455954E+02  0.90320560097E+02  0.14884922307E+03  0.00000000000E+00 0. -1.
         22    1    3    3    0    0 -0.26178393503E+02 -0.13341916722E+02  0.56160590992E+02  0.63382387212E+02  0.00000000000E+00 0. -1.
</event>
<event>
 7    1  0.6058736E-006  0.1105132E+03  0.7818608E-02  0.1364231E+00
          2   -1    0    0  502    0  0.00000000000E+00  0.00000000000E+00  0.43718098755E+03  0.43718098755E+03  0.00000000000E+00 0. -1.
          1   -1    0    0  501    0 -0.00000000000E+00 -0.00000000000E+00 -0.13139282940E+03  0.13139282940E+03  0.00000000000E+00 0. -1.
         25    2    1    2    0    0 -0.36931754689E+02  0.77009908838E+02  0.15246342808E+03  0.21485933724E+03  0.12499982933E+03 0.  0.
          2    1    1    2  501    0 -0.36703687748E+02  0.22070076471E+02 -0.79435031288E+02  0.90245072804E+02  0.00000000000E+00 0. -1.
          1    1    1    2  502    0  0.73635442437E+02 -0.99079985309E+02  0.23275976136E+03  0.26346940691E+03  0.00000000000E+00 0. -1.
         22    1    3    3    0    0  0.32651745649E+02  0.72608060256E+02  0.98755689071E+02  0.12684933201E+03  0.00000000000E+00 0. -1.
         22    1    3    3    0    0 -0.69583500338E+02  0.44018485817E+01  0.53707739011E+02  0.88010005226E+02  0.00000000000E+00 0. -1.
</event>
<event>
 7    1  0.6058736E-006  0.7180526E+02  0.7818608E-02  0.1366697E+00
          2   -1    0    0  502    0  0.00000000000E+00  0.00000000000E+00  0.14642245427E+04  0.14642245427E+04  0.00000000000E+00 0. -1.
          1   -1    0    0  501    0 -0.00000000000E+00 -0.00000000000E+00 -0.10466922445E+04  0.10466922445E+04  0.00000000000E+00 0. -1.
         25    2    1    2    0    0  0.79961358585E+02 -0.82142126314E+02  0.71979445958E+02  0.18424764639E+03  0.12500002712E+03 0.  0.
          2    1    1    2  501    0 -0.69103626011E+02  0.18487102852E+02 -0.98848468302E+03  0.99106965076E+03  0.00000000000E+00 0. -1.
          1    1    1    2  502    0 -0.10857732574E+02  0.63655023462E+02  0.13340375352E+04  0.13355994900E+04  0.00000000000E+00 0. -1.
         22    1    3    3    0    0  0.38066186596E+02 -0.59209904339E+01  0.87767553401E+02  0.95850071046E+02  0.00000000000E+00 0.  1.
         22    1    3    3    0    0  0.41895171990E+02 -0.76221135880E+02 -0.15788107442E+02  0.88397575348E+02  0.00000000000E+00 0.  1.
</event>
<event>
 7    1  0.6058736E-006  0.1867565E+03  0.7818608E-02  0.1197010E+00
          2   -1    0    0  502    0  0.00000000000E+00  0.00000000000E+00  0.39689406032E+03  0.39689406032E+03  0.00000000000E+00 0. -1.
          1   -1    0    0  501    0 -0.00000000000E+00 -0.00000000000E+00 -0.19639502386E+04  0.19639502386E+04  0.00000000000E+00 0. -1.
         25    2    1    2    0    0  0.23944550956E+02 -0.21523525844E+03 -0.76778849885E+03  0.80747973546E+03  0.12499914485E+03 0.  0.
          2    1    1    2  501    0 -0.12339492791E+03  0.13933601080E+03 -0.11583011852E+04  0.11731591827E+04  0.00000000000E+00 0. -1.
          1    1    1    2  502    0  0.99450376956E+02  0.75899247639E+02  0.35903350582E+03  0.38020538078E+03  0.00000000000E+00 0. -1.
         22    1    3    3    0    0  0.30189456457E+02 -0.29076687694E+02 -0.46827474000E+02  0.62846395041E+02  0.00000000000E+00 0.  1.
         22    1    3    3    0    0 -0.62449055018E+01 -0.18615857074E+03 -0.72096102485E+03  0.74463334042E+03  0.00000000000E+00 0.  1.
</event>
<event>
 7    1  0.6058736E-006  0.1515269E+03  0.7818608E-02  0.1381929E+00
          2   -1    0    0  502    0  0.00000000000E+00  0.00000000000E+00  0.49195658878E+03  0.49195658878E+03  0.00000000000E+00 0. -1.
          1   -1    0    0  501    0 -0.00000000000E+00 -0.00000000000E+00 -0.73823038206E+02  0.73823038206E+02  0.00000000000E+00 0. -1.
         25    2    1    2    0    0 -0.12634777419E+03  0.82468084717E+02  0.25922188074E+03  0.32493359043E+03  0.12498443782E+03 0.  0.
          2    1    1    2  501    0  0.14659202431E+02  0.22670694966E+02  0.17175477768E+02  0.31997650894E+02  0.00000000000E+00 0. -1.
          1    1    1    2  502    0  0.11168857175E+03 -0.10513877968E+03  0.14173619207E+03  0.20884838567E+03  0.00000000000E+00 0. -1.
         22    1    3    3    0    0 -0.34991637305E+02  0.42491053094E+02  0.92645320008E+01  0.55818776657E+02  0.00000000000E+00 0. -1.
         22    1    3    3    0    0 -0.91356136880E+02  0.39977031623E+02  0.24995734874E+03  0.26911481377E+03  0.00000000000E+00 0. -1.
</event>
<event>
 7    1  0.6058736E-006  0.1008436E+03  0.7818608E-02  0.1281216E+00
          2   -1    0    0  502    0  0.00000000000E+00  0.00000000000E+00  0.21568297803E+04  0.21568297803E+04  0.00000000000E+00 0. -1.
          1   -1    0    0  501    0 -0.00000000000E+00 -0.00000000000E+00 -0.19625489776E+02  0.19625489776E+02  0.00000000000E+00 0. -1.
         25    2    1    2    0    0  0.19611957533E+02 -0.54999839381E+02  0.93216810799E+03  0.94232323805E+03  0.12500436875E+03 0.  0.
          2    1    1    2  501    0  0.82561969998E+02 -0.57904600042E+02  0.30318875800E+03  0.31951970921E+03  0.00000000000E+00 0. -1.
          1    1    1    2  502    0 -0.10217392753E+03  0.11290443942E+03  0.90184742458E+03  0.91461232286E+03  0.00000000000E+00 0. -1.
         22    1    3    3    0    0 -0.33927846911E+02  0.21760469181E+02  0.18655297105E+03  0.19085761139E+03  0.00000000000E+00 0. -1.
         22    1    3    3    0    0  0.53539804445E+02 -0.76760308562E+02  0.74561513693E+03  0.75146562666E+03  0.00000000000E+00 0. -1.
</event>
<event>
 7    1  0.6058736E-006  0.6198427E+02  0.7818608E-02  0.1404676E+00
          2   -1    0    0  502    0  0.00000000000E+00  0.00000000000E+00  0.28017437771E+04  0.28017437771E+04  0.00000000000E+00 0. -1.
          1   -1    0    0  501    0 -0.00000000000E+00 -0.00000000000E+00 -0.10383994037E+04  0.10383994037E+04  0.00000000000E+00 0. -1.
         25    2    1    2    0    0 -0.53283485518E+02 -0.17749576296E+02  0.15342516037E+03  0.20571521674E+03  0.12500117309E+03 0.  0.
          2    1    1    2  501    0  0.31653415005E+01  0.54930111564E+02 -0.10111350454E+04  0.10126309380E+04  0.00000000000E+00 0. -1.
          1    1    1    2  502    0  0.50118144018E+02 -0.37180535268E+02  0.26210542584E+04  0.26217970261E+04  0.00000000000E+00 0. -1.
         22    1    3    3    0    0  0.28660814804E+02 -0.10923509170E+02 -0.10806253750E+01  0.30690928774E+02  0.00000000000E+00 0. -1.
         22    1    3    3    0    0 -0.81944300322E+02 -0.68260671263E+01  0.15450578574E+03  0.17502428796E+03  0.00000000000E+00 0. -1.
</event>
<event>
 7    1  0.6058736E-006  0.1623772E+03  0.7818608E-02  0.1366449E+00
          2   -1    0    0  502    0  0.00000000000E+00  0.00000000000E+00  0.97670871728E+03  0.97670871728E+03  0.00000000000E+00 0. -1.
          1   -1    0    0  501    0 -0.00000000000E+00 -0.00000000000E+00 -0.78055072967E+03  0.78055072967E+03  0.00000000000E+00 0. -1.
         25    2    1    2    0    0 -0.14887761607E+03 -0.10570059965E+03 -0.26684285800E+03  0.34664892908E+03  0.12499283114E+03 0.  0.
          2    1    1    2  501    0  0.13252413167E+03  0.82219307161E+02 -0.46074359414E+03  0.48642298413E+03  0.00000000000E+00 0. -1.
          1    1    1    2  502    0  0.16353484402E+02  0.23481292490E+02  0.92374443976E+03  0.92418753375E+03  0.00000000000E+00 0. -1.
         22    1    3    3    0    0 -0.93895292737E+02 -0.11670654169E+02 -0.19331893566E+03  0.21523183095E+03  0.00000000000E+00 0.  1.
         22    1    3    3    0    0 -0.54982323331E+02 -0.94029945482E+02 -0.73523922334E+02  0.13141709813E+03  0.00000000000E+00 0.  1.
</event>
<event>
 7    1  0.6058736E-006  0.6955331E+02  0.7818608E-02  0.1528723E+00
          2   -1    0    0  502    0  0.00000000000E+00  0.00000000000E+00  0.11372181080E+04  0.11372181080E+04  0.00000000000E+00 0. -1.
          1   -1    0    0  501    0 -0.00000000000E+00 -0.00000000000E+00 -0.12215505392E+02  0.12215505392E+02  0.00000000000E+00 0. -1.
         25    2    1    2    0    0  0.95471298898E+01 -0.56599357419E+02  0.70012838173E+03  0.71351283256E+03  0.12500470541E+03 0.  0.
          2    1    1    2  501    0  0.30544370249E+01 -0.19815804074E+02  0.84211215699E+02  0.86565146140E+02  0.00000000000E+00 0. -1.
          1    1    1    2  502    0 -0.12601566915E+02  0.76415161493E+02  0.34066300519E+03  0.34935563471E+03  0.00000000000E+00 0. -1.
         22    1    3    3    0    0  0.58238358638E+02 -0.35925956874E+02  0.21789925791E+03  0.22839104052E+03  0.00000000000E+00 0. -1.
         22    1    3    3    0    0 -0.48691228748E+02 -0.20673400545E+02  0.48222912382E+03  0.48512179203E+03  0.00000000000E+00 0. -1.
</event>
<event>
 7    1  0.6058736E-006  0.5946112E+02  0.7818608E-02  0.1502777E+00
          2   -1    0    0  502    0  0.00000000000E+00  0.00000000000E+00  0.27996739240E+03  0.27996739240E+03  0.00000000000E+00 0. -1.
          1   -1    0    0  501    0 -0.00000000000E+00 -0.00000000000E+00 -0.30532133199E+03  0.30532133199E+03  0.00000000000E+00 0. -1.
         25    2    1    2    0    0 -0.21977866514E+02 -0.77242419336E+02  0.12866160580E+02  0.14913193768E+03  0.12500151514E+03 0.  0.
          2    1    1    2  501    0  0.20495880963E+02  0.18965375215E+02 -0.23206334829E+03  0.23373738301E+03  0.00000000000E+00 0. -1.
          1    1    1    2  502    0  0.14819855510E+01  0.58277044121E+02  0.19384324813E+03  0.20241940371E+03  0.00000000000E+00 0. -1.
         22    1    3    3    0    0 -0.20676630600E+02 -0.65269970426E+02 -0.50217706386E+02  0.84908834211E+02  0.00000000000E+00 0.  1.
         22    1    3    3    0    0 -0.13012359141E+01 -0.11972448910E+02  0.63083866966E+02  0.64223103469E+02  0.00000000000E+00 0.  1.
</event>
<event>
 7    1  0.6058736E-006  0.5197157E+02  0.7818608E-02  0.1529797E+00
          2   -1    0    0  502    0  0.00000000000E+00  0.00000000000E+00  0.20513117628E+03  0.20513117628E+03  0.00000000000E+00 0. -1.
          1   -1    0    0  501    0 -0.00000000000E+00 -0.00000000000E+00 -0.80504377529E+02  0.80504377529E+02  0.00000000000E+00 0. -1.
         25    2    1    2    0    0  0.23394918661E+02  0.35582535627E+02  0.40449391564E+02  0.13811263157E+03  0.12500202663E+03 0.  0.
          2    1    1    2  501    0 -0.58026824787E+01 -0.55591740916E+02 -0.33856242519E+01  0.55996207315E+02  0.00000000000E+00 0. -1.
          1    1    1    2  502    0 -0.17592236182E+02  0.20009205289E+02  0.87563031434E+02  0.91526714920E+02  0.00000000000E+00 0. -1.
         22    1    3    3    0    0 -0.89595406938E+01  0.26098166105E+02  0.80886526232E+02  0.85463546436E+02  0.00000000000E+00 0.  1.
         22    1    3    3    0    0  0.32354459355E+02  0.94843695225E+01 -0.40437134668E+02  0.52649085135E+02  0.00000000000E+00 0.  1.
</event>
<event>
 7    1  0.6058736E-006  0.5324674E+02  0.7818608E-02  0.1517641E+00
          2   -1    0    0  502    0  0.00000000000E+00  0.00000000000E+00  0.56023710266E+03  0.56023710266E+03  0.00000000000E+00 0. -1.
          1   -1    0    0  501    0 -0.00000000000E+00 -0.00000000000E+00 -0.39059038829E+03  0.39059038829E+03  0.00000000000E+00 0. -1.
         25    2    1    2    0    0 -0.22090156832E+02  0.77493007856E+02 -0.60561933699E+02  0.16061269728E+03  0.12504219055E+03 0.  0.
          2    1    1    2  501    0  0.34139604717E+01 -0.27988142906E+02 -0.27791609695E+03  0.27934270747E+03  0.00000000000E+00 0. -1.
          1    1    1    2  502    0  0.18676196360E+02 -0.49504864950E+02  0.50812474502E+03  0.51087208621E+03  0.00000000000E+00 0. -1.
         22    1    3    3    0    0  0.49175213699E+02  0.54724350922E+02 -0.24367374565E+02  0.77503065548E+02  0.00000000000E+00 0.  1.
         22    1    3    3    0    0 -0.71265370531E+02  0.22768656934E+02 -0.36194559134E+02  0.83109631730E+02  0.00000000000E+00 0.  1.
</event>
<event>
 7    1  0.6058736E-006  0.9028501E+02  0.7818608E-02  0.1303719E+00
          2   -1    0    0  502    0  0.00000000000E+00  0.00000000000E+00  0.49310730693E+03  0.49310730693E+03  0.00000000000E+00 0. -1.
          1   -1    0    0  501    0 -0.00000000000E+00 -0.00000000000E+00 -0.17870289395E+03  0.17870289395E+03  0.00000000000E+00 0. -1.
         25    2    1    2    0    0  0.63469841197E+01  0.23143226924E+00 -0.64209564892E+02  0.14066970983E+03  0.12499904508E+03 0.  0.
          2    1    1    2  501    0  0.43052685552E+02 -0.79358988615E+02 -0.42521941762E+02  0.99797286227E+02  0.00000000000E+00 0. -1.
          1    1    1    2  502    0 -0.49399669671E+02  0.79127556345E+02  0.42113591964E+03  0.43134320482E+03  0.00000000000E+00 0. -1.
         22    1    3    3    0    0  0.51315002971E+02  0.34524426626E+02 -0.10607302167E+02  0.62750939619E+02  0.00000000000E+00 0. -1.
         22    1    3    3    0    0 -0.44968018852E+02 -0.34292994357E+02 -0.53602262725E+02  0.77918770207E+02  0.00000000000E+00 0. -1.
</event>
<event>
 7    1  0.6058736E-006  0.9146351E+02  0.7818608E-02  0.1361415E+00
          2   -1    0    0  502    0  0.00000000000E+00  0.00000000000E+00  0.30062651640E+03  0.30062651640E+03  0.00000000000E+00 0. -1.
          1   -1    0    0  501    0 -0.00000000000E+00 -0.00000000000E+00 -0.12806955512E+04  0.12806955512E+04  0.00000000000E+00 0. -1.
         25    2    1    2    0    0 -0.92817641353E+02  0.38669190799E+01 -0.14729411322E+03  0.21436268942E+03  0.12500295684E+03 0.  0.
          2    1    1    2  501    0  0.13841560133E+02 -0.51141943033E+02 -0.10912753409E+04  0.10925607337E+04  0.00000000000E+00 0. -1.
          1    1    1    2  502    0  0.78976081220E+02  0.47275023953E+02  0.25850041933E+03  0.27439864447E+03  0.00000000000E+00 0. -1.
         22    1    3    3    0    0 -0.50219541899E+02  0.32940887283E+01  0.10077628831E+02  0.51326523475E+02  0.00000000000E+00 0. -1.
         22    1    3    3    0    0 -0.42598099454E+02  0.57283035164E+00 -0.15737174205E+03  0.16303616595E+03  0.00000000000E+00 0. -1.
</event>
<event>
 7    1  0.6058736E-006  0.7735027E+02  0.7818608E-02  0.1340008E+00
          2   -1    0    0  502    0  0.00000000000E+00  0.00000000000E+00  0.38361902195E+03  0.38361902195E+03  0.00000000000E+00 0. -1.
          1   -1    0    0  501    0 -0.00000000000E+00 -0.00000000000E+00 -0.85187961950E+03  0.85187961950E+03  0.00000000000E+00 0. -1.
         25    2    1    2    0    0  0.43120791982E+02  0.32571873510E+02 -0.53596839479E+03  0.55299857262E+03  0.12499988585E+03 0.  0.
          2    1    1    2  501    0 -0.61720009595E+02  0.42940749527E+02 -0.29865491648E+03  0.30797406822E+03  0.00000000000E+00 0. -1.
          1    1    1    2  502    0  0.18599217612E+02 -0.75512623036E+02  0.36636271372E+03  0.37452600061E+03  0.00000000000E+00 0. -1.
         22    1    3    3    0    0 -0.30839756475E+02 -0.89685187824E+01 -0.30954400881E+03  0.31120574914E+03  0.00000000000E+00 0. -1.
         22    1    3    3    0    0  0.73960548457E+02  0.41540392292E+02 -0.22642438598E+03  0.24179282348E+03  0.00000000000E+00 0. -1.
</event>
<event>
 7    1  0.6058736E-006  0.8308483E+02  0.7818608E-02  0.1357733E+00
          2   -1    0    0  502    0  0.00000000000E+00  0.00000000000E+00  0.56430397121E+03  0.56430397121E+03  0.00000000000E+00 0. -1.
          1   -1    0    0  501    0 -0.00000000000E+00 -0.00000000000E+00 -0.31799643805E+03  0.31799643805E+03  0.00000000000E+00 0. -1.
         25    2    1    2    0    0 -0.17584493959E+01  0.25677284713E+02 -0.95032319212E+02  0.15911700843E+03  0.12499866233E+03 0.  0.
          2    1    1    2  501    0 -0.25757619588E+02  0.54365894933E+02 -0.18270128296E+03  0.19235088847E+03  0.00000000000E+00 0. -1.
          1    1    1    2  502    0  0.27516068984E+02 -0.80043179646E+02  0.52404113533E+03  0.53083251236E+03  0.00000000000E+00 0. -1.
         22    1    3    3    0    0  0.46567347734E+02  0.53897687314E+02 -0.59661285023E+02  0.92913656172E+02  0.00000000000E+00 0.  1.
         22    1    3    3    0    0 -0.48325797130E+02 -0.28220402601E+02 -0.35371034189E+02  0.66203352263E+02  0.00000000000E+00 0.  1.
</event>
<event>
 7    1  0.6058736E-006  0.1053579E+03  0.7818608E-02  0.1441096E+00
          2   -1    0    0  502    0  0.00000000000E+00  0.00000000000E+00  0.71192730584E+03  0.71192730584E+03  0.00000000000E+00 0. -1.
          1   -1    0    0  501    0 -0.00000000000E+00 -0.00000000000E+00 -0.12881469469E+04  0.12881469469E+04  0.00000000000E+00 0. -1.
         25    2    1    2    0    0  0.10862258183E+03 -0.43782879920E+02 -0.35060301317E+03  0.39020725366E+03  0.12499368827E+03 0.  0.
          2    1    1    2  501    0 -0.20376611716E+02 -0.13585140239E+02 -0.91357516587E+03  0.91390335705E+03  0.00000000000E+00 0. -1.
          1    1    1    2  502    0 -0.88245970114E+02  0.57368020159E+02  0.68795853801E+03  0.69596364201E+03  0.00000000000E+00 0. -1.
         22    1    3    3    0    0  0.98326110195E+02  0.15468884192E+02 -0.28160636083E+03  0.29867951517E+03  0.00000000000E+00 0. -1.
         22    1    3    3    0    0  0.10296471635E+02 -0.59251764112E+02 -0.68996652348E+02  0.91527738493E+02  0.00000000000E+00 0. -1.
</event>
<event>
 7    1  0.6058736E-006  0.1407297E+03  0.7818608E-02  0.1234667E+00
          2   -1    0    0  502    0  0.00000000000E+00  0.00000000000E+00  0.25642768276E+03  0.25642768276E+03  0.00000000000E+00 0. -1.
          1   -1    0    0  501    0 -0.00000000000E+00 -0.00000000000E+00 -0.68643051265E+03  0.68643051265E+03  0.00000000000E+00 0. -1.
         25    2    1    2    0    0 -0.89781835039E+01  0.88487961043E+02 -0.56397404880E+02  0.16344492213E+03  0.12499139276E+03 0.  0.
          2    1    1    2  501    0 -0.10916365348E+03  0.22642526568E+02 -0.53743428957E+03  0.54887612706E+03  0.00000000000E+00 0. -1.
          1    1    1    2  502    0  0.11814183698E+03 -0.11113048761E+03  0.16382886457E+03  0.23053714622E+03  0.00000000000E+00 0. -1.
         22    1    3    3    0    0 -0.20489669877E+02  0.18001240253E+02  0.36939695464E+02  0.45917451185E+02  0.00000000000E+00 0. -1.
         22    1    3    3    0    0  0.11511486373E+02  0.70486720790E+02 -0.93337100344E+02  0.11752747095E+03  0.00000000000E+00 0. -1.
</event>
<event>
 7    1  0.6058736E-006  0.4712707E+02  0.7818608E-02  0.1477966E+00
          2   -1    0    0  502    0  0.00000000000E+00  0.00000000000E+00  0.11023371335E+03  0.11023371335E+03  0.00000000000E+00 0. -1.
          1   -1    0    0  501    0 -0.00000000000E+00 -0.00000000000E+00 -0.30062807765E+04  0.30062807765E+04  0.00000000000E+00 0. -1.
         25    2    1    2    0    0 -0.47376594993E+02  0.63456032785E+02 -0.37874514605E+03  0.40662547022E+03  0.12500071010E+03 0.  0.
          2    1    1    2  501    0  0.94033896922E+01 -0.45799982337E+02 -0.26088230660E+04  0.26092420071E+04  0.00000000000E+00 0. -1.
          1    1    1    2  502    0  0.37973205301E+02 -0.17656050448E+02  0.91521148867E+02  0.10064701252E+03  0.00000000000E+00 0. -1.
         22    1    3    3    0    0 -0.82286980377E+02  0.91860056450E+01 -0.19379977029E+03  0.21074601017E+03  0.00000000000E+00 0.  1.
         22    1    3    3    0    0  0.34910385383E+02  0.54270027140E+02 -0.18494537576E+03  0.19587946005E+03  0.00000000000E+00 0.  1.
</event>
<event>
 7    1  0.6058736E-006  0.1148780E+03  0.7818608E-02  0.1295801E+00
          2   -1    0    0  502    0  0.00000000000E+00  0.00000000000E+00  0.37471380586E+03  0.37471380586E+03  0.00000000000E+00 0. -1.
          1   -1    0    0  501    0 -0.00000000000E+00 -0.00000000000E+00 -0.73172794690E+03  0.73172794690E+03  0.00000000000E+00 0. -1.
         25    2    1    2    0    0  0.55756072404E+02 -0.48812832635E+02 -0.10134405916E+03  0.17715342812E+03  0.12498514522E+03 0.  0.
          2    1    1    2  501    0  0.63087475268E+02  0.41018122059E+02 -0.57944109539E+03  0.58430685337E+03  0.00000000000E+00 0. -1.
          1    1    1    2  502    0 -0.11884354767E+03  0.77947105763E+01  0.32377101351E+03  0.34498147128E+03  0.00000000000E+00 0. -1.
         22    1    3    3    0    0 -0.36578813373E+02 -0.28143520748E+02 -0.13609620452E+02  0.48117451270E+02  0.00000000000E+00 0.  1.
         22    1    3    3    0    0  0.92334885776E+02 -0.20669311887E+02 -0.87734438711E+02  0.12903597685E+03  0.00000000000E+00 0.  1.
</event>
<event>
 7    1  0.6058736E-006  0.2191418E+03  0.7818608E-02  0.1302756E+00
          2   -1    0    0  502    0  0.00000000000E+00  0.00000000000E+00  0.64167261412E+03  0.64167261412E+03  0.00000000000E+00 0. -1.
          1   -1    0    0  501    0 -0.00000000000E+00 -0.00000000000E+00 -0.11338166910E+04  0.11338166910E+04  0.00000000000E+00 0. -1.
         25    2    1    2    0    0 -0.21498298644E+03 -0.26964383630E+02 -0.70232795605E+03  0.74554079924E+03  0.12498705148E+03 0.  0.
          2    1    1    2  501    0  0.22424076835E+03 -0.88533171322E+01 -0.37854059577E+03  0.44006282059E+03  0.00000000000E+00 0. -1.
          1    1    1    2  502    0 -0.92577819092E+01  0.35817700762E+02  0.58872447498E+03  0.58988568525E+03  0.00000000000E+00 0. -1.
         22    1    3    3    0    0 -0.18349741352E+03 -0.69704291788E+02 -0.57536608430E+03  0.60792772599E+03  0.00000000000E+00 0.  1.
         22    1    3    3    0    0 -0.31485572916E+02  0.42739908158E+02 -0.12696187175E+03  0.13761307325E+03  0.00000000000E+00 0.  1.
</event>
<event>
 7    1  0.6058736E-006  0.6248073E+02  0.7818608E-02  0.1436213E+00
          2   -1    0    0  502    0  0.00000000000E+00  0.00000000000E+00  0.72866520379E+03  0.72866520379E+03  0.00000000000E+00 0. -1.
          1   -1    0    0  501    0 -0.00000000000E+00 -0.00000000000E+00 -0.43656606860E+02  0.43656606860E+02  0.00000000000E+00 0. -1.
         25    2    1    2    0    0  0.24498919453E+02 -0.47609362977E+02  0.47660066204E+03  0.49562101907E+03  0.12500061998E+03 0.  0.
          2    1    1    2  501    0  0.40077950567E+02  0.15115664398E+02 -0.12210629946E+02  0.44540149478E+02  0.00000000000E+00 0. -1.
          1    1    1    2  502    0 -0.64576870019E+02  0.32493698579E+02  0.22061856483E+03  0.23216064210E+03  0.00000000000E+00 0. -1.
         22    1    3    3    0    0  0.75772433935E+02 -0.31873886111E+02  0.27700628653E+03  0.28894616997E+03  0.00000000000E+00 0. -1.
         22    1    3    3    0    0 -0.51273514483E+02 -0.15735476866E+02  0.19959437551E+03  0.20667484911E+03  0.00000000000E+00 0. -1.
</event>
<event>
 7    1  0.6058736E-006  0.3896144E+02  0.7818608E-02  0.1539119E+00
          2   -1    0    0  502    0  0.00000000000E+00  0.00000000000E+00  0.32876792944E+03  0.32876792944E+03  0.00000000000E+00 0. -1.
          1   -1    0    0  501    0 -0.00000000000E+00 -0.00000000000E+00 -0.68153613054E+03  0.68153613054E+03  0.00000000000E+00 0. -1.
         25    2    1    2    0    0  0.23078609123E+02  0.99509378503E+01 -0.29738180085E+03  0.32356199146E+03  0.12499913392E+03 0.  0.
          2    1    1    2  501    0 -0.17203756569E+02  0.28666171520E+02 -0.36909747177E+03  0.37060850273E+03  0.00000000000E+00 0. -1.
          1    1    1    2  502    0 -0.58748525546E+01 -0.38617109371E+02  0.31371107151E+03  0.31613356579E+03  0.00000000000E+00 0. -1.
         22    1    3    3    0    0  0.57850768813E+02 -0.70496482745E+01 -0.26982963954E+03  0.27605152303E+03  0.00000000000E+00 0.  1.
         22    1    3    3    0    0 -0.34772159690E+02  0.17000586125E+02 -0.27552161312E+02  0.47510468436E+02  0.00000000000E+00 0.  1.
</event>
<event>
 7    1  0.6058736E-006  0.2125458E+03  0.7818608E-02  0.1301399E+00
          2   -1    0    0  502    0  0.00000000000E+00  0.00000000000E+00  0.84911368633E+03  0.84911368633E+03  0.00000000000E+00 0. -1.
          1   -1    0    0  501    0 -0.00000000000E+00 -0.00000000000E+00 -0.14630399237E+04  0.14630399237E+04  0.00000000000E+00 0. -1.
         25    2    1    2    0    0 -0.22797412536E+03  0.96140644772E+02 -0.11153837286E+03  0.29879815647E+03  0.12499721709E+03 0.  0.
          2    1    1    2  501    0  0.19503177534E+03 -0.75980823830E+02 -0.12486615836E+04  0.12660830262E+04  0.00000000000E+00 0. -1.
          1    1    1    2  502    0  0.32942350019E+02 -0.20159820942E+02  0.74627371910E+03  0.74727242731E+03  0.00000000000E+00 0. -1.
         22    1    3    3    0    0 -0.11521662899E+03  0.26090137904E+02  0.10343617511E+02  0.11858565392E+03  0.00000000000E+00 0.  1.
         22    1    3    3    0    0 -0.11275749636E+03  0.70050506869E+02 -0.12188199037E+03  0.18021250255E+03  0.00000000000E+00 0.  1.
</event>
<event>
 7    1  0.6058736E-006  0.1221043E+03  0.7818608E-02  0.1349145E+00
          2   -1    0    0  502    0  0.00000000000E+00  0.00000000000E+00  0.30788807702E+03  0.30788807702E+03  0.00000000000E+00 0. -1.
          1   -1    0    0  501    0 -0.00000000000E+00 -0.00000000000E+00 -0.27394686803E+03  0.27394686803E+03  0.00000000000E+00 0. -1.
         25    2    1    2    0    0  0.52072171801E+02 -0.74535775983E+02  0.10246499353E+03  0.18544865360E+03  0.12500014098E+03 0.  0.
          2    1    1    2  501    0 -0.95351757780E+02  0.82629396656E+02 -0.21178001300E+03  0.24651642706E+03  0.00000000000E+00 0. -1.
          1    1    1    2  502    0  0.43279585979E+02 -0.80936206732E+01  0.14325622846E+03  0.14986986438E+03  0.00000000000E+00 0. -1.
         22    1    3    3    0    0  0.20601394362E+02  0.30137325513E+02  0.55622759751E+02  0.66532452541E+02  0.00000000000E+00 0. -1.
         22    1    3    3    0    0  0.31470777439E+02 -0.10467310150E+03  0.46842233780E+02  0.11891620106E+03  0.00000000000E+00 0. -1.
</event>
<event>
 7    1  0.6058736E-006  0.1200248E+03  0.7818608E-02  0.1313371E+00
          2   -1    0    0  502    0  0.00000000000E+00  0.00000000000E+00  0.82923226561E+03  0.82923226561E+03  0.00000000000E+00 0. -1.
          1   -1    0    0  501    0 -0.00000000000E+00 -0.00000000000E+00 -0.43976009538E+03  0.43976009538E+03  0.00000000000E+00 0. -1.
         25    2    1    2    0    0 -0.80999715646E+02 -0.74226323008E+01  0.24025850335E+03  0.28279428736E+03  0.12502964100E+03 0.  0.
          2    1    1    2  501    0  0.11305544895E+03 -0.44856647738E+02 -0.40793667210E+03  0.42568295929E+03  0.00000000000E+00 0. -1.
          1    1    1    2  502    0 -0.32055733300E+02  0.52279280039E+02  0.55715033900E+03  0.56051511434E+03  0.00000000000E+00 0. -1.
         22    1    3    3    0    0  0.28458052859E+02 -0.35059290736E+01  0.15093111072E+02  0.32402998519E+02  0.00000000000E+00 0. -1.
         22    1    3    3    0    0 -0.10945776850E+03 -0.39167032272E+01  0.22516539227E+03  0.25039128884E+03  0.00000000000E+00 0. -1.
</event>
<event>
 7    1  0.6058736E-006  0.6314101E+02  0.7818608E-02  0.1435771E+00
          2   -1    0    0  502    0  0.00000000000E+00  0.00000000000E+00  0.23997484562E+03  0.23997484562E+03  0.00000000000E+00 0. -1.
          1   -1    0    0  501    0 -0.00000000000E+00 -0.00000000000E+00 -0.24284967294E+04  0.24284967294E+04  0.00000000000E+00 0. -1.
         25    2    1    2    0    0 -0.21835329343E+02 -0.90533334793E+01 -0.13611203432E+03  0.18630710498E+03  0.12500042810E+03 0.  0.
          2    1    1    2  501    0  0.63832541081E+02  0.23622427103E+01 -0.22647282759E+04  0.22656289055E+04  0.00000000000E+00 0. -1.
          1    1    1    2  502    0 -0.41997211737E+02  0.66910907690E+01  0.21231842649E+03  0.21653556455E+03  0.00000000000E+00 0. -1.
         22    1    3    3    0    0  0.15440189357E+02  0.36342466223E+02 -0.15880213575E+01  0.39518300955E+02  0.00000000000E+00 0. -1.
         22    1    3    3    0    0 -0.37275518701E+02 -0.45395799702E+02 -0.13452401296E+03  0.14678880403E+03  0.00000000000E+00 0. -1.
</event>
<event>
 7    1  0.6058736E-006  0.1325301E+03  0.7818608E-02  0.1393717E+00
          2   -1    0    0  502    0  0.00000000000E+00  0.00000000000E+00  0.25154850573E+03  0.25154850573E+03  0.00000000000E+00 0. -1.
          1   -1    0    0  501    0 -0.00000000000E+00 -0.00000000000E+00 -0.41996022174E+03  0.41996022174E+03  0.00000000000E+00 0. -1.
         25    2    1    2    0    0 -0.12148377201E+03 -0.60441302442E+01 -0.92210373894E+02  0.19728831309E+03  0.12500034823E+03 0.  0.
          2    1    1    2  501    0  0.13284618110E+03  0.31710388074E+02 -0.25711686522E+03  0.29114041101E+03  0.00000000000E+00 0. -1.
          1    1    1    2  502    0 -0.11362409094E+02 -0.25666257830E+02  0.18091552311E+03  0.18308000337E+03  0.00000000000E+00 0. -1.
         22    1    3    3    0    0 -0.13023535547E+03  0.31908141942E+02 -0.81426891026E+02  0.15687484158E+03  0.00000000000E+00 0.  1.
         22    1    3    3    0    0  0.87515834638E+01 -0.37952272187E+02 -0.10783482868E+02  0.40413471517E+02  0.00000000000E+00 0.  1.
</event>
<event>
 7    1  0.6058736E-006  0.4901290E+02  0.7818608E-02  0.1483856E+00
          2   -1    0    0  502    0  0.00000000000E+00  0.00000000000E+00  0.64315587569E+03  0.64315587569E+03  0.00000000000E+00 0. -1.
          1   -1    0    0  501    0 -0.00000000000E+00 -0.00000000000E+00 -0.68392228981E+03  0.68392228981E+03  0.00000000000E+00 0. -1.
         25    2    1    2    0    0  0.12144846993E+02 -0.83500740028E+01 -0.23475004495E+02  0.12803757841E+03  0.12500129841E+03 0.  0.
          2    1    1    2  501    0 -0.17277588259E+02  0.46634497497E+02 -0.60651586461E+03  0.60855138274E+03  0.00000000000E+00 0. -1.
          1    1    1    2  502    0  0.51327412667E+01 -0.38284423494E+02  0.58922445498E+03  0.59048920436E+03  0.00000000000E+00 0. -1.
         22    1    3    3    0    0 -0.41499030138E+01  0.49413557202E+02  0.20474974864E+02  0.53648354365E+02  0.00000000000E+00 0.  1.
         22    1    3    3    0    0  0.16294750006E+02 -0.57763631204E+02 -0.43949979360E+02  0.74389224041E+02  0.00000000000E+00 0.  1.
</event>
<event>
 7    1  0.6058736E-006  0.6261394E+02  0.7818608E-02  0.1418165E+00
          2   -1    0    0  502    0  0.00000000000E+00  0.00000000000E+00  0.33090787786E+04  0.33090787786E+04  0.00000000000E+00 0. -1.
          1   -1    0    0  501    0 -0.00000000000E+00 -0.00000000000E+00 -0.10615768475E+04  0.10615768475E+04  0.00000000000E+00 0. -1.
         25    2    1    2    0    0 -0.29394220279E+02 -0.73001688508E+02  0.18928969686E+04  0.18986523929E+04  0.12501483303E+03 0.  0.
          2    1    1    2  501    0  0.54477997782E+02  0.30866121263E+02 -0.10573473341E+04  0.10591996765E+04  0.00000000000E+00 0. -1.
          1    1    1    2  502    0 -0.25083777502E+02  0.42135567245E+02  0.14119522967E+04  0.14128035567E+04  0.00000000000E+00 0. -1.
         22    1    3    3    0    0  0.33687435828E+02  0.16020859796E+02  0.60085349998E+03  0.60201033190E+03  0.00000000000E+00 0.  1.
         22    1    3    3    0    0 -0.63081656107E+02 -0.89022548304E+02  0.12920434686E+04  0.12966420610E+04  0.00000000000E+00 0.  1.
</event>
<event>
 7    1  0.6058736E-006  0.1590169E+03  0.7818608E-02  0.1270115E+00
          2   -1    0    0  502    0  0.00000000000E+00  0.00000000000E+00  0.68005988423E+03  0.68005988423E+03  0.00000000000E+00 0. -1.
          1   -1    0    0  501    0 -0.00000000000E+00 -0.00000000000E+00 -0.22762868734E+03  0.22762868734E+03  0.00000000000E+00 0. -1.
         25    2    1    2    0    0 -0.17580383093E+03  0.67723389872E+02  0.64382937842E+02  0.23508224809E+03  0.12500022470E+03 0.  0.
          2    1    1    2  501    0  0.15320803048E+03 -0.21735815369E+01 -0.97839468179E+02  0.18179655275E+03  0.00000000000E+00 0. -1.
          1    1    1    2  502    0  0.22595800452E+02 -0.65549808335E+02  0.48588772723E+03  0.49080977073E+03  0.00000000000E+00 0. -1.
         22    1    3    3    0    0 -0.16160765456E+03  0.72014595481E+02  0.83543168845E+01  0.17712405423E+03  0.00000000000E+00 0. -1.
         22    1    3    3    0    0 -0.14196176368E+02 -0.42912056091E+01  0.56028620958E+02  0.57958193860E+02  0.00000000000E+00 0. -1.
</event>
<event>
 7    1  0.6058736E-006  0.6327090E+02  0.7818608E-02  0.1441882E+00
          2   -1    0    0  502    0  0.00000000000E+00  0.00000000000E+00  0.15480132723E+04  0.15480132723E+04  0.00000000000E+00 0. -1.
          1   -1    0    0  501    0 -0.00000000000E+00 -0.00000000000E+00 -0.12619419020E+04  0.12619419020E+04  0.00000000000E+00 0. -1.
         25    2    1    2    0    0  0.61067519609E+02  0.46632298526E+01  0.39524849601E+03  0.41904327676E+03  0.12499962614E+03 0.  0.
          2    1    1    2  501    0 -0.72354437948E+01 -0.39891092644E+02 -0.12488083306E+04  0.12494662450E+04  0.00000000000E+00 0. -1.
          1    1    1    2  502    0 -0.53832075814E+02  0.35227862791E+02  0.11396312048E+04  0.11414456525E+04  0.00000000000E+00 0. -1.
         22    1    3    3    0    0  0.34847579575E+02  0.59066199751E+02  0.12970853600E+03  0.14672243886E+03  0.00000000000E+00 0. -1.
         22    1    3    3    0    0  0.26219940033E+02 -0.54402969899E+02  0.26553996001E+03  0.27232083790E+03  0.00000000000E+00 0. -1.
</event>
<event>
 7    1  0.6058736E-006  0.1240838E+03  0.7818608E-02  0.1368756E+00
          2   -1    0    0  502    0  0.00000000000E+00  0.00000000000E+00  0.16947069391E+04  0.16947069391E+04  0.00000000000E+00 0. -1.
          1   -1    0    0  501    0 -0.00000000000E+00 -0.00000000000E+00 -0.48888003418E+03  0.48888003418E+03  0.00000000000E+00 0. -1.
         25    2    1    2    0    0  0.84000814195E+01  0.13853777870E+03  0.84149527068E+01  0.18697621404E+03  0.12500406270E+03 0.  0.
          2    1    1    2  501    0  0.23734248319E+02 -0.12073822878E+03 -0.38990922445E+03  0.40886457140E+03  0.00000000000E+00 0. -1.
          1    1    1    2  502    0 -0.32134329738E+02 -0.17799549920E+02  0.15873211767E+04  0.15877461878E+04  0.00000000000E+00 0. -1.
         22    1    3    3    0    0  0.30430589865E+02  0.47898609895E+02  0.58163755310E+02  0.81260815041E+02  0.00000000000E+00 0.  1.
         22    1    3    3    0    0 -0.22030508445E+02  0.90639168810E+02 -0.49748802603E+02  0.10571539900E+03  0.00000000000E+00 0.  1.
</event>
<event>
 7    1  0.6058736E-006  0.1068381E+03  0.7818608E-02  0.1317581E+00
          2   -1    0    0  502    0  0.00000000000E+00  0.00000000000E+00  0.22006204048E+04  0.22006204048E+04  0.00000000000E+00 0. -1.
          1   -1    0    0  501    0 -0.00000000000E+00 -0.00000000000E+00 -0.27802259112E+02  0.27802259112E+02  0.00000000000E+00 0. -1.
         25    2    1    2    0    0  0.97255513637E+02  0.11782641223E+03  0.79676787376E+03  0.82085649770E+03  0.12499858721E+03 0.  0.
          2    1    1    2  501    0 -0.36244404835E+02 -0.91792669540E+02  0.14896940811E+03  0.17869369215E+03  0.00000000000E+00 0. -1.
          1    1    1    2  502    0 -0.61011108803E+02 -0.26033742691E+02  0.12270808638E+04  0.12288724741E+04  0.00000000000E+00 0. -1.
         22    1    3    3    0    0 -0.64294690455E+01  0.61211210780E+02  0.45723870407E+03  0.46136252871E+03  0.00000000000E+00 0. -1.
         22    1    3    3    0    0  0.10368498268E+03  0.56615201450E+02  0.33952916969E+03  0.35949396899E+03  0.00000000000E+00 0. -1.
</event>
<event>
 7    1  0.6058736E-006  0.1019889E+03  0.7818608E-02  0.1335765E+00
          2   -1    0    0  502    0  0.00000000000E+00  0.00000000000E+00  0.56042683222E+03  0.56042683222E+03  0.00000000000E+00 0. -1.
          1   -1    0    0  501    0 -0.00000000000E+00 -0.00000000000E+00 -0.12183488465E+04  0.12183488465E+04  0.00000000000E+00 0. -1.
         25    2    1    2    0    0  0.54964474608E+02 -0.12866367049E+03 -0.12577117497E+03  0.22587326523E+03  0.12499963967E+03 0.  0.
          2    1    1    2  501    0  0.16326485895E+02  0.56868827516E+02 -0.10366604123E+04  0.10383474506E+04  0.00000000000E+00 0. -1.
          1    1    1    2  502    0 -0.71290960503E+02  0.71794842978E+02  0.50450957304E+03  0.51455496287E+03  0.00000000000E+00 0. -1.
         22    1    3    3    0    0 -0.39216597311E+02 -0.46264391671E+02 -0.26706285214E+02  0.66268854760E+02  0.00000000000E+00 0.  1.
         22    1    3    3    0    0  0.94181071919E+02 -0.82399278823E+02 -0.99064889754E+02  0.15960441047E+03  0.00000000000E+00 0.  1.
</event>
<event>
 7    1  0.6058736E-006  0.1317134E+03  0.7818608E-02  0.1306244E+00
          2   -1    0    0  502    0  0.00000000000E+00  0.00000000000E+00  0.15990489267E+04  0.15990489267E+04  0.00000000000E+00 0. -1.
          1   -1    0    0  501    0 -0.00000000000E+00 -0.00000000000E+00 -0.64532180446E+03  0.64532180446E+03  0.00000000000E+00 0. -1.
         25    2    1    2    0    0  0.60106572235E+02 -0.82224079067E+02  0.49815758094E+02  0.16876281120E+03  0.12500270991E+03 0.  0.
          2    1    1    2  501    0 -0.26889059298E+02  0.13172975432E+03 -0.57752733305E+03  0.59297012581E+03  0.00000000000E+00 0. -1.
          1    1    1    2  502    0 -0.33217512937E+02 -0.49505675258E+02  0.14814386972E+04  0.14826377941E+04  0.00000000000E+00 0. -1.
         22    1    3    3    0    0  0.65644250327E+02  0.32547730490E+01  0.50848856724E+02  0.83098540173E+02  0.00000000000E+00 0.  1.
         22    1    3    3    0    0 -0.55376780920E+01 -0.85478852116E+02 -0.10330986305E+01  0.85664271026E+02  0.00000000000E+00 0.  1.
</event>
<event>
 7    1  0.6058736E-006  0.9928415E+02  0.7818608E-02  0.1404924E+00
          2   -1    0    0  502    0  0.00000000000E+00  0.00000000000E+00  0.12071889861E+04  0.12071889861E+04  0.00000000000E+00 0. -1.
          1   -1    0    0  501    0 -0.00000000000E+00 -0.00000000000E+00 -0.15874590206E+04  0.15874590206E+04  0.00000000000E+00 0. -1.
         25    2    1    2    0    0  0.15302980469E+02  0.11348591162E+03 -0.36193159796E+03  0.39966558068E+03  0.12499944571E+03 0.  0.
          2    1    1    2  501    0  0.14753161441E+02 -0.96994059131E+02 -0.12044180901E+04  0.12084073978E+04  0.00000000000E+00 0. -1.
          1    1    1    2  502    0 -0.30056141910E+02 -0.16491852486E+02  0.11860796536E+04  0.11865750282E+04  0.00000000000E+00 0. -1.
         22    1    3    3    0    0 -0.13270922310E+02  0.68737097523E+02 -0.33078202617E+03  0.33810893923E+03  0.00000000000E+00 0.  1.
         22    1    3    3    0    0  0.28573902779E+02  0.44748814093E+02 -0.31149571796E+02  0.61556641444E+02  0.00000000000E+00 0.  1.
</event>
<event>
 7    1  0.6058736E-006  0.2912010E+02  0.7818608E-02  0.1627260E+00
          2   -1    0    0  502    0  0.00000000000E+00  0.00000000000E+00  0.34154464729E+03  0.34154464729E+03  0.00000000000E+00 0. -1.
          1   -1    0    0  501    0 -0.00000000000E+00 -0.00000000000E+00 -0.11003932083E+04  0.11003932083E+04  0.00000000000E+00 0. -1.
         25    2    1    2    0    0 -0.15420482973E+02  0.20165241824E+02 -0.65266630191E+03  0.66501313046E+03  0.12499893501E+03 0.  0.
          2    1    1    2  501    0 -0.90722612779E+01 -0.28902897287E+02 -0.44052843873E+03  0.44156878142E+03  0.00000000000E+00 0. -1.
          1    1    1    2  502    0  0.24492744250E+02  0.87376554623E+01  0.33434617963E+03  0.33535594371E+03  0.00000000000E+00 0. -1.
         22    1    3    3    0    0  0.19160384741E+02 -0.37976408770E+02 -0.10661021964E+03  0.11478269425E+03  0.00000000000E+00 0. -1.
         22    1    3    3    0    0 -0.34580867713E+02  0.58141650594E+02 -0.54605608227E+03  0.55023043621E+03  0.00000000000E+00 0. -1.
</event>
<event>
 7    1  0.6058736E-006  0.7393601E+02  0.7818608E-02  0.1356780E+00
          2   -1    0    0  502    0  0.00000000000E+00  0.00000000000E+00  0.24132178665E+02  0.24132178665E+02  0.00000000000E+00 0. -1.
          1   -1    0    0  501    0 -0.00000000000E+00 -0.00000000000E+00 -0.13387543289E+04  0.13387543289E+04  0.00000000000E+00 0. -1.
         25    2    1    2    0    0 -0.30133523409E+02  0.24695833415E+02 -0.25165636624E+03  0.28367944261E+03  0.12500074428E+03 0.  0.
          2    1    1    2  501    0 -0.10884227094E+02 -0.79118382682E+02 -0.88569110109E+03  0.88928449409E+03  0.00000000000E+00 0. -1.
          1    1    1    2  502    0  0.41017750503E+02  0.54422549267E+02 -0.17727468290E+03  0.18992257086E+03  0.00000000000E+00 0. -1.
         22    1    3    3    0    0 -0.78710603006E+02  0.75773302079E+01 -0.16241332420E+03  0.18064014735E+03  0.00000000000E+00 0. -1.
         22    1    3    3    0    0  0.48577079597E+02  0.17118503207E+02 -0.89243042040E+02  0.10303929526E+03  0.00000000000E+00 0. -1.
</event>
<event>
 7    1  0.6058736E-006  0.4900604E+02  0.7818608E-02  0.1486702E+00
          2   -1    0    0  502    0  0.00000000000E+00  0.00000000000E+00  0.10814632979E+04  0.10814632979E+04  0.00000000000E+00 0. -1.
          1   -1    0    0  501    0 -0.00000000000E+00 -0.00000000000E+00 -0.30562208613E+04  0.30562208613E+04  0.00000000000E+00 0. -1.
         25    2    1    2    0    0 -0.15686690405E+02 -0.28988626962E+02 -0.25188038631E+03  0.28311654737E+03  0.12499935054E+03 0.  0.
          2    1    1    2  501    0 -0.32454753113E+02  0.19512814478E+02 -0.27880290746E+04  0.27882862446E+04  0.00000000000E+00 0. -1.
          1    1    1    2  502    0  0.48141443518E+02  0.94758124842E+01  0.10651518975E+04  0.10662813674E+04  0.00000000000E+00 0. -1.
         22    1    3    3    0    0  0.22740478251E+02 -0.59356299158E+02 -0.20751690911E+03  0.21703356230E+03  0.00000000000E+00 0.  1.
         22    1    3    3    0    0 -0.38427168656E+02  0.30367672196E+02 -0.44363477206E+02  0.66082985067E+02  0.00000000000E+00 0.  1.
</event>
<event>
 7    1  0.6058736E-006  0.7992760E+02  0.7818608E-02  0.1458711E+00
          2   -1    0    0  502    0  0.00000000000E+00  0.00000000000E+00  0.12344698840E+04  0.12344698840E+04  0.00000000000E+00 0. -1.
          1   -1    0    0  501    0 -0.00000000000E+00 -0.00000000000E+00 -0.48523719166E+02  0.48523719166E+02  0.00000000000E+00 0. -1.
         25    2    1    2    0    0  0.49619300856E+02  0.52816438819E+02  0.14853636440E+03  0.20721679950E+03  0.12499639683E+03 0.  0.
          2    1    1    2  501    0  0.22596171677E+02 -0.17125134531E+02 -0.62333298924E+01  0.29029495495E+02  0.00000000000E+00 0. -1.
          1    1    1    2  502    0 -0.72215472533E+02 -0.35691304288E+02  0.10436431304E+04  0.10467473082E+04  0.00000000000E+00 0. -1.
         22    1    3    3    0    0 -0.36824350416E+02  0.35854616630E+02  0.29933680464E+02  0.59477823963E+02  0.00000000000E+00 0. -1.
         22    1    3    3    0    0  0.86443651271E+02  0.16961822188E+02  0.11860268393E+03  0.14773897554E+03  0.00000000000E+00 0. -1.
</event>
<event>
 7    1  0.6058736E-006  0.8215377E+02  0.7818608E-02  0.1404151E+00
          2   -1    0    0  502    0  0.00000000000E+00  0.00000000000E+00  0.78688556807E+03  0.78688556807E+03  0.00000000000E+00 0. -1.
          1   -1    0    0  501    0 -0.00000000000E+00 -0.00000000000E+00 -0.17497596665E+03  0.17497596665E+03  0.00000000000E+00 0. -1.
         25    2    1    2    0    0 -0.33734623785E+02  0.39488783309E+02  0.46912249112E+02  0.14325783437E+03  0.12499863656E+03 0.  0.
          2    1    1    2  501    0  0.75100899624E+02 -0.44632053240E+02 -0.11103736934E+03  0.14128504058E+03  0.00000000000E+00 0. -1.
          1    1    1    2  502    0 -0.41366275839E+02  0.51432699305E+01  0.67603472165E+03  0.67731865977E+03  0.00000000000E+00 0. -1.
         22    1    3    3    0    0  0.42779328085E+02  0.26069766692E+02 -0.41942222188E+01  0.50272210483E+02  0.00000000000E+00 0. -1.
         22    1    3    3    0    0 -0.76513951870E+02  0.13419016617E+02  0.51106471331E+02  0.92985623887E+02  0.00000000000E+00 0. -1.
</event>
<event>
 7    1  0.6058736E-006  0.1186301E+03  0.7818608E-02  0.1330138E+00
          2   -1    0    0  502    0  0.00000000000E+00  0.00000000000E+00  0.90578204497E+03  0.90578204497E+03  0.00000000000E+00 0. -1.
          1   -1    0    0  501    0 -0.00000000000E+00 -0.00000000000E+00 -0.22513209130E+04  0.22513209130E+04  0.00000000000E+00 0. -1.
         25    2    1    2    0    0 -0.81688537005E+02  0.12417235626E+02 -0.20167429790E+03  0.25124123967E+03  0.12498973262E+03 0.  0.
          2    1    1    2  501    0  0.11886917917E+03  0.25961795976E+02 -0.20222227012E+04  0.20258796978E+04  0.00000000000E+00 0. -1.
          1    1    1    2  502    0 -0.37180642162E+02 -0.38379031601E+02  0.87835813102E+03  0.87998202058E+03  0.00000000000E+00 0. -1.
         22    1    3    3    0    0 -0.77681228425E+02  0.45092181852E+02 -0.65557263038E+02  0.11119996785E+03  0.00000000000E+00 0.  1.
         22    1    3    3    0    0 -0.40073085802E+01 -0.32674946226E+02 -0.13611703486E+03  0.14004127181E+03  0.00000000000E+00 0.  1.
</event>
<event>
 7    1  0.6058736E-006  0.6844579E+02  0.7818608E-02  0.1395546E+00
          2   -1    0    0  502    0  0.00000000000E+00  0.00000000000E+00  0.81317483679E+03  0.81317483679E+03  0.00000000000E+00 0. -1.
          1   -1    0    0  501    0 -0.00000000000E+00 -0.00000000000E+00 -0.66875164003E+02  0.66875164003E+02  0.00000000000E+00 0. -1.
         25    2    1    2    0    0 -0.99022100519E+01 -0.22649468527E+02  0.20040685369E+03  0.23748448296E+03  0.12499968181E+03 0.  0.
          2    1    1    2  501    0  0.14183427871E+02 -0.51649501361E+02 -0.30332523575E+02  0.61554062444E+02  0.00000000000E+00 0. -1.
          1    1    1    2  502    0 -0.42812178193E+01  0.74298969888E+02  0.57622534268E+03  0.58101145539E+03  0.00000000000E+00 0. -1.
         22    1    3    3    0    0 -0.16071147235E+02 -0.71453683002E+02  0.15068369369E+03  0.16753950618E+03  0.00000000000E+00 0.  1.
         22    1    3    3    0    0  0.61689371835E+01  0.48804214475E+02  0.49723160004E+02  0.69944976783E+02  0.00000000000E+00 0.  1.
</event>
<event>
 7    1  0.6058736E-006  0.6205133E+02  0.7818608E-02  0.1402651E+00
          2   -1    0    0  502    0  0.00000000000E+00  0.00000000000E+00  0.77854106382E+03  0.77854106382E+03  0.00000000000E+00 0. -1.
          1   -1    0    0  501    0 -0.00000000000E+00 -0.00000000000E+00 -0.28857043857E+02  0.28857043857E+02  0.00000000000E+00 0. -1.
         25    2    1    2    0    0 -0.20870313634E+02  0.27140761934E+02  0.56927604384E+03  0.58384532936E+03  0.12501185375E+03 0.  0.
          2    1    1    2  501    0 -0.21075423075E+02 -0.64008659628E+02  0.57629315690E+02  0.88670288101E+02  0.00000000000E+00 0. -1.
          1    1    1    2  502    0  0.41945736709E+02  0.36867897694E+02  0.12277866043E+03  0.13488249021E+03  0.00000000000E+00 0. -1.
         22    1    3    3    0    0 -0.29156296353E+02 -0.22015672214E+01  0.54244025560E+03  0.54322773071E+03  0.00000000000E+00 0.  1.
         22    1    3    3    0    0  0.82859827189E+01  0.29342329155E+02  0.26835788238E+02  0.40617598651E+02  0.00000000000E+00 0.  1.
</event>
<event>
 7    1  0.6058736E-006  0.1010020E+03  0.7818608E-02  0.1385497E+00
          2   -1    0    0  502    0  0.00000000000E+00  0.00000000000E+00  0.15484789607E+04  0.15484789607E+04  0.00000000000E+00 0. -1.
          1   -1    0    0  501    0 -0.00000000000E+00 -0.00000000000E+00 -0.15903272966E+02  0.15903272966E+02  0.00000000000E+00 0. -1.
         25    2    1    2    0    0 -0.12079762737E+02  0.10586434128E+03  0.84272680762E+03  0.85858413925E+03  0.12500028986E+03 0.  0.
          2    1    1    2  501    0 -0.26331393569E+02 -0.97334065820E+02  0.36839966372E+03  0.38194970204E+03  0.00000000000E+00 0. -1.
          1    1    1    2  502    0  0.38411156307E+02 -0.85302754568E+01  0.32144921642E+03  0.32384839241E+03  0.00000000000E+00 0. -1.
         22    1    3    3    0    0  0.86393060631E+01  0.25860975801E+01  0.49894804964E+03  0.49902953996E+03  0.00000000000E+00 0.  1.
         22    1    3    3    0    0 -0.20719068800E+02  0.10327824370E+03  0.34377875798E+03  0.35955459929E+03  0.00000000000E+00 0.  1.
</event>
<event>
 7    1  0.6058736E-006  0.6712435E+02  0.7818608E-02  0.1455731E+00
          2   -1    0    0  502    0  0.00000000000E+00  0.00000000000E+00  0.29112900692E+04  0.29112900692E+04  0.00000000000E+00 0. -1.
          1   -1    0    0  501    0 -0.00000000000E+00 -0.00000000000E+00 -0.92688858521E+03  0.92688858521E+03  0.00000000000E+00 0. -1.
         25    2    1    2    0    0  0.43348111518E+02  0.91308066578E+02  0.13047222271E+03  0.20703819335E+03  0.12500236324E+03 0.  0.
          2    1    1    2  501    0 -0.12078075456E+02 -0.32318677833E+02 -0.88786416073E+03  0.88853426763E+03  0.00000000000E+00 0. -1.
          1    1    1    2  502    0 -0.31270036062E+02 -0.58989388745E+02  0.27417934221E+04  0.27426061935E+04  0.00000000000E+00 0. -1.
         22    1    3    3    0    0 -0.16213352978E+02  0.46599898466E+02 -0.78315729746E+01  0.49957550852E+02  0.00000000000E+00 0. -1.
         22    1    3    3    0    0  0.59561464496E+02  0.44708168112E+02  0.13830379568E+03  0.15708064250E+03  0.00000000000E+00 0. -1.
</event>
<event>
 7    1  0.6058736E-006  0.5362609E+02  0.7818608E-02  0.1524952E+00
          2   -1    0    0  502    0  0.00000000000E+00  0.00000000000E+00  0.30409694257E+03  0.30409694257E+03  0.00000000000E+00 0. -1.
          1   -1    0    0  501    0 -0.00000000000E+00 -0.00000000000E+00 -0.29205168627E+04  0.29205168627E+04  0.00000000000E+00 0. -1.
         25    2    1    2    0    0  0.29633309476E+02  0.92439552615E+01 -0.59655004237E+02  0.14193929085E+03  0.12499783605E+03 0.  0.
          2    1    1    2  501    0 -0.53734739205E+02  0.21587901305E+01 -0.28187866999E+04  0.28192996545E+04  0.00000000000E+00 0. -1.
          1    1    1    2  502    0  0.24101429729E+02 -0.11402745392E+02  0.26202178401E+03  0.26337485987E+03  0.00000000000E+00 0. -1.
         22    1    3    3    0    0 -0.40028457843E+02 -0.19889426931E+02 -0.47910249902E+02  0.65522963811E+02  0.00000000000E+00 0. -1.
         22    1    3    3    0    0  0.69661767319E+02  0.29133382193E+02 -0.11744754334E+02  0.76416327040E+02  0.00000000000E+00 0. -1.
</event>
<event>
 7    1  0.6058736E-006  0.1539334E+03  0.7818608E-02  0.1269802E+00
          2   -1    0    0  502    0  0.00000000000E+00  0.00000000000E+00  0.14307285154E+04  0.14307285154E+04  0.00000000000E+00 0. -1.
          1   -1    0    0  501    0 -0.00000000000E+00 -0.00000000000E+00 -0.86904314498E+02  0.86904314498E+02  0.00000000000E+00 0. -1.
         25    2    1    2    0    0  0.34413330661E+02 -0.16609548822E+03  0.44412244430E+03  0.49156990024E+03  0.12499693097E+03 0.  0.
          2    1    1    2  501    0 -0.69766129898E+02  0.17146120849E+02 -0.34291672680E+02  0.79606665276E+02  0.00000000000E+00 0. -1.
          1    1    1    2  502    0  0.35352799237E+02  0.14894936737E+03  0.93399342925E+03  0.94645626435E+03  0.00000000000E+00 0. -1.
         22    1    3    3    0    0  0.67830781870E+02 -0.15730805639E+03  0.40272886496E+03  0.43764983519E+03  0.00000000000E+00 0.  1.
         22    1    3    3    0    0 -0.33417451209E+02 -0.87874318318E+01  0.41393579342E+02  0.53920065043E+02  0.00000000000E+00 0.  1.
</event>
<event>
 7    1  0.6058736E-006  0.8527784E+02  0.7818608E-02  0.1372601E+00
          2   -1    0    0  502    0  0.00000000000E+00  0.00000000000E+00  0.92100240444E+03  0.92100240444E+03  0.00000000000E+00 0. -1.
          1   -1    0    0  501    0 -0.00000000000E+00 -0.00000000000E+00 -0.22444300457E+03  0.22444300457E+03  0.00000000000E+00 0. -1.
         25    2    1    2    0    0 -0.29031260162E+02  0.79333297139E+02  0.74542510832E+02  0.16828616019E+03  0.12500823849E+03 0.  0.
          2    1    1    2  501    0 -0.41834920510E+02 -0.30508946015E+02 -0.17141994266E+03  0.17906912940E+03  0.00000000000E+00 0. -1.
          1    1    1    2  502    0  0.70866180672E+02 -0.48824351124E+02  0.79343683170E+03  0.79809011942E+03  0.00000000000E+00 0. -1.
         22    1    3    3    0    0 -0.42031439889E+02  0.10620465241E+03  0.77888058736E+02  0.13824839900E+03  0.00000000000E+00 0. -1.
         22    1    3    3    0    0  0.13000179727E+02 -0.26871355269E+02 -0.33455479034E+01  0.30037761196E+02  0.00000000000E+00 0. -1.
</event>
<event>
 7    1  0.6058736E-006  0.1197007E+03  0.7818608E-02  0.1355887E+00
          2   -1    0    0  502    0  0.00000000000E+00  0.00000000000E+00  0.17724517910E+03  0.17724517910E+03  0.00000000000E+00 0. -1.
          1   -1    0    0  501    0 -0.00000000000E+00 -0.00000000000E+00 -0.12859680387E+04  0.12859680387E+04  0.00000000000E+00 0. -1.
         25    2    1    2    0    0 -0.64063366751E+02  0.10416785570E+03 -0.94898649085E+02  0.19896195617E+03  0.12500019714E+03 0.  0.
          2    1    1    2  501    0  0.23828061313E+02 -0.11758225359E+03 -0.11321835928E+04  0.11385223102E+04  0.00000000000E+00 0. -1.
          1    1    1    2  502    0  0.40235305438E+02  0.13414397897E+02  0.11835938227E+03  0.12572895150E+03  0.00000000000E+00 0. -1.
         22    1    3    3    0    0  0.34209688048E+02  0.29584869174E+02 -0.33830945732E+01  0.45354300449E+02  0.00000000000E+00 0. -1.
         22    1    3    3    0    0 -0.98273054799E+02  0.74582986522E+02 -0.91515554512E+02  0.15360765572E+03  0.00000000000E+00 0. -1.
</event>
<event>
 7    1  0.6058736E-006  0.1270571E+03  0.7818608E-02  0.1289418E+00
          2   -1    0    0  502    0  0.00000000000E+00  0.00000000000E+00  0.30097208756E+04  0.30097208756E+04  0.00000000000E+00 0. -1.
          1   -1    0    0  501    0 -0.00000000000E+00 -0.00000000000E+00 -0.34091040568E+03  0.34091040568E+03  0.00000000000E+00 0. -1.
         25    2    1    2    0    0 -0.19789534514E+03  0.50396555762E+00  0.62623358123E+03  0.66854416911E+03  0.12497994312E+03 0.  0.
          2    1    1    2  501    0  0.12569348714E+03 -0.15518956560E+01 -0.30682473966E+03  0.33157605758E+03  0.00000000000E+00 0. -1.
          1    1    1    2  502    0  0.72201857993E+02  0.10479300984E+01  0.23494016283E+04  0.23505110546E+04  0.00000000000E+00 0. -1.
         22    1    3    3    0    0 -0.46741081421E+02  0.30717026860E+01  0.35456207535E+03  0.35764287959E+03  0.00000000000E+00 0. -1.
         22    1    3    3    0    0 -0.15115426372E+03 -0.25677371284E+01  0.27167150588E+03  0.31090128951E+03  0.00000000000E+00 0. -1.
</event>
<event>
 7    1  0.6058736E-006  0.3849237E+02  0.7818608E-02  0.1541092E+00
          2   -1    0    0  502    0  0.00000000000E+00  0.00000000000E+00  0.26290634202E+03  0.26290634202E+03  0.00000000000E+00 0. -1.
          1   -1    0    0  501    0 -0.00000000000E+00 -0.00000000000E+00 -0.51604689388E+02  0.51604689388E+02  0.00000000000E+00 0. -1.
         25    2    1    2    0    0 -0.40745210126E+02  0.89116399683E+01  0.13732104353E+03  0.19031822385E+03  0.12499747141E+03 0.  0.
          2    1    1    2  501    0  0.31943332453E+02  0.23315934796E+02 -0.36136228030E+01  0.39712310099E+02  0.00000000000E+00 0. -1.
          1    1    1    2  502    0  0.88018776727E+01 -0.32227574765E+02  0.77594231902E+02  0.84480497455E+02  0.00000000000E+00 0. -1.
         22    1    3    3    0    0 -0.33821353739E+02  0.23577149691E+02 -0.97420614754E+01  0.42363589533E+02  0.00000000000E+00 0.  1.
         22    1    3    3    0    0 -0.69238563867E+01 -0.14665509723E+02  0.14706310500E+03  0.14795463432E+03  0.00000000000E+00 0.  1.
</event>
<event>
 7    1  0.6058736E-006  0.1006476E+03  0.7818608E-02  0.1279765E+00
          2   -1    0    0  502    0  0.00000000000E+00  0.00000000000E+00  0.55416310503E+03  0.55416310503E+03  0.00000000000E+00 0. -1.
          1   -1    0    0  501    0 -0.00000000000E+00 -0.00000000000E+00 -0.45830175009E+04  0.45830175009E+04  0.00000000000E+00 0. -1.
         25    2    1    2    0    0  0.29547731428E+02  0.12663789624E+03 -0.76086247386E+03  0.78195124434E+03  0.12500327676E+03 0.  0.
          2    1    1    2  501    0 -0.89890340875E+02 -0.47072157208E+02 -0.38063429015E+04  0.38076951486E+04  0.00000000000E+00 0. -1.
          1    1    1    2  502    0  0.60342609447E+02 -0.79565739033E+02  0.53835097942E+03  0.54753421299E+03  0.00000000000E+00 0. -1.
         22    1    3    3    0    0  0.57144526192E+02  0.43981439685E+02 -0.16947865969E+03  0.18418164947E+03  0.00000000000E+00 0.  1.
         22    1    3    3    0    0 -0.27596794764E+02  0.82656456556E+02 -0.59138381418E+03  0.59776959488E+03  0.00000000000E+00 0.  1.
</event>
<event>
 7    1  0.6058736E-006  0.1620894E+03  0.7818608E-02  0.1262214E+00
          2   -1    0    0  502    0  0.00000000000E+00  0.00000000000E+00  0.13874480966E+04  0.13874480966E+04  0.00000000000E+00 0. -1.
          1   -1    0    0  501    0 -0.00000000000E+00 -0.00000000000E+00 -0.10264794581E+04  0.10264794581E+04  0.00000000000E+00 0. -1.
         25    2    1    2    0    0 -0.14685209689E+03 -0.61598753496E+02 -0.42662067651E+03  0.47221068360E+03  0.12497112979E+03 0.  0.
          2    1    1    2  501    0  0.40687764932E+02 -0.61158524227E+02 -0.56987260408E+03  0.57458736863E+03  0.00000000000E+00 0. -1.
          1    1    1    2  502    0  0.10616433196E+03  0.12275727772E+03  0.13574619191E+04  0.13671295024E+04  0.00000000000E+00 0. -1.
         22    1    3    3    0    0 -0.14147726314E+03 -0.39832945785E+02 -0.22125132608E+03  0.26562121310E+03  0.00000000000E+00 0. -1.
         22    1    3    3    0    0 -0.53748337505E+01 -0.21765807711E+02 -0.20536935044E+03  0.20658947050E+03  0.00000000000E+00 0. -1.
</event>
<event>
 7    1  0.6058736E-006  0.8816360E+02  0.7818608E-02  0.1409586E+00
          2   -1    0    0  502    0  0.00000000000E+00  0.00000000000E+00  0.71226566942E+03  0.71226566942E+03  0.00000000000E+00 0. -1.
          1   -1    0    0  501    0 -0.00000000000E+00 -0.00000000000E+00 -0.19020596786E+03  0.19020596786E+03  0.00000000000E+00 0. -1.
         25    2    1    2    0    0 -0.73712728801E+02 -0.32449921443E+02  0.18568244943E+03  0.23788519720E+03  0.12499932493E+03 0.  0.
          2    1    1    2  501    0  0.58995911561E+02  0.66640177695E+02 -0.15127526462E+03  0.17551534563E+03  0.00000000000E+00 0. -1.
          1    1    1    2  502    0  0.14716817240E+02 -0.34190256252E+02  0.48765251676E+03  0.48907109446E+03  0.00000000000E+00 0. -1.
         22    1    3    3    0    0  0.21310075663E+02 -0.47897776581E+02  0.64599505661E+02  0.83195026641E+02  0.00000000000E+00 0.  1.
         22    1    3    3    0    0 -0.95022804465E+02  0.15447855138E+02  0.12108294376E+03  0.15469017056E+03  0.00000000000E+00 0.  1.
</event>
<event>
 7    1  0.6058736E-006  0.4351094E+02  0.7818608E-02  0.1489352E+00
          2   -1    0    0  502    0  0.00000000000E+00  0.00000000000E+00  0.96162832695E+03  0.96162832695E+03  0.00000000000E+00 0. -1.
          1   -1    0    0  501    0 -0.00000000000E+00 -0.00000000000E+00 -0.25492298593E+04  0.25492298593E+04  0.00000000000E+00 0. -1.
         25    2    1    2    0    0  0.34085807584E+02 -0.60856245646E+02  0.92641608193E+01  0.14344033650E+03  0.12499592212E+03 0.  0.
          2    1    1    2  501    0  0.39244323366E+01  0.43298382659E+02 -0.24814561926E+04  0.24818370186E+04  0.00000000000E+00 0. -1.
          1    1    1    2  502    0 -0.38010239920E+02  0.17557862987E+02  0.88459049941E+03  0.88558083117E+03  0.00000000000E+00 0. -1.
         22    1    3    3    0    0  0.77820601310E+02 -0.14121750229E+02  0.68625804074E+01  0.79388694583E+02  0.00000000000E+00 0. -1.
         22    1    3    3    0    0 -0.43734793726E+02 -0.46734495417E+02  0.24015804119E+01  0.64051641920E+02  0.00000000000E+00 0. -1.
</event>
<event>
 7    1  0.6058736E-006  0.6078891E+02  0.7818608E-02  0.1467020E+00
          2   -1    0    0  502    0  0.00000000000E+00  0.00000000000E+00  0.57554309695E+03  0.57554309695E+03  0.00000000000E+00 0. -1.
          1   -1    0    0  501    0 -0.00000000000E+00 -0.00000000000E+00 -0.66045386888E+03  0.66045386888E+03  0.00000000000E+00 0. -1.
         25    2    1    2    0    0 -0.56730704116E+02 -0.45754898195E+02 -0.79255172905E+02  0.16498069345E+03  0.12500145311E+03 0.  0.
          2    1    1    2  501    0  0.59682186116E+02  0.10775460600E+02 -0.53604581903E+03  0.53946565599E+03  0.00000000000E+00 0. -1.
          1    1    1    2  502    0 -0.29514819991E+01  0.34979437595E+02  0.53039022001E+03  0.53155061639E+03  0.00000000000E+00 0. -1.
         22    1    3    3    0    0 -0.40304641734E+02 -0.73637622580E+02 -0.51341120533E+01  0.84103048168E+02  0.00000000000E+00 0.  1.
         22    1    3    3    0    0 -0.16426062383E+02  0.27882724385E+02 -0.74121060852E+02  0.80877645282E+02  0.00000000000E+00 0.  1.
</event>
<event>
 7    1  0.6058736E-006  0.5796347E+02  0.7818608E-02  0.1423406E+00
          2   -1    0    0  502    0  0.00000000000E+00  0.00000000000E+00  0.17430492358E+04  0.17430492358E+04  0.00000000000E+00 0. -1.
          1   -1    0    0  501    0 -0.00000000000E+00 -0.00000000000E+00 -0.65856870612E+02  0.65856870612E+02  0.00000000000E+00 0. -1.
         25    2    1    2    0    0 -0.11918691107E+02  0.90752816535E+01  0.60634744796E+03  0.61927877981E+03  0.12499825415E+03 0.  0.
          2    1    1    2  501    0 -0.50494478972E+02  0.62571489989E+01 -0.47399143288E+02  0.69537925657E+02  0.00000000000E+00 0. -1.
          1    1    1    2  502    0  0.62413170080E+02 -0.15332430652E+02  0.11182440605E+04  0.11200894009E+04  0.00000000000E+00 0. -1.
         22    1    3    3    0    0 -0.31404845917E+02 -0.39843979252E+02  0.12271983596E+03  0.13279294095E+03  0.00000000000E+00 0.  1.
         22    1    3    3    0    0  0.19486154810E+02  0.48919260905E+02  0.48362761200E+03  0.48648583885E+03  0.00000000000E+00 0.  1.
</event>
<event>
 7    1  0.6058736E-006  0.6349409E+02  0.7818608E-02  0.1408413E+00
          2   -1    0    0  502    0  0.00000000000E+00  0.00000000000E+00  0.97153229616E+03  0.97153229616E+03  0.00000000000E+00 0. -1.
          1   -1    0    0  501    0 -0.00000000000E+00 -0.00000000000E+00 -0.36914765325E+03  0.36914765325E+03  0.00000000000E+00 0. -1.
         25    2    1    2    0    0  0.42123073287E+02  0.11284135459E+02  0.91533984753E+02  0.16094807470E+03  0.12499650943E+03 0.  0.
          2    1    1    2  501    0  0.87851069381E+01 -0.51416302477E+02 -0.33115330409E+03  0.33523622280E+03  0.00000000000E+00 0. -1.
          1    1    1    2  502    0 -0.50908180225E+02  0.40132167018E+02  0.84200396225E+03  0.84449565191E+03  0.00000000000E+00 0. -1.
         22    1    3    3    0    0  0.55121068126E+02  0.56761767291E+02  0.33089441031E+02  0.85762121505E+02  0.00000000000E+00 0.  1.
         22    1    3    3    0    0 -0.12997994839E+02 -0.45477631832E+02  0.58444543722E+02  0.75185953194E+02  0.00000000000E+00 0.  1.
</event>
<event>
 7    1  0.6058736E-006  0.3748614E+02  0.7818608E-02  0.1528418E+00
          2   -1    0    0  502    0  0.00000000000E+00  0.00000000000E+00  0.81073985519E+03  0.81073985519E+03  0.00000000000E+00 0. -1.
          1   -1    0    0  501    0 -0.00000000000E+00 -0.00000000000E+00 -0.84996038360E+03  0.84996038360E+03  0.00000000000E+00 0. -1.
         25    2    1    2    0    0 -0.27309806492E+02 -0.13424843710E+02  0.48396634994E+03  0.50077416108E+03  0.12500112227E+03 0.  0.
          2    1    1    2  501    0  0.25315826537E+02 -0.27361374258E+02 -0.83983194473E+03  0.84065880788E+03  0.00000000000E+00 0. -1.
          1    1    1    2  502    0  0.19939799549E+01  0.40786217968E+02  0.31664506637E+03  0.31926726983E+03  0.00000000000E+00 0. -1.
         22    1    3    3    0    0 -0.37142542731E+02 -0.33866908824E+02  0.47284774194E+03  0.47551185374E+03  0.00000000000E+00 0. -1.
         22    1    3    3    0    0  0.98327362385E+01  0.20442065114E+02  0.11118608006E+02  0.25262307338E+02  0.00000000000E+00 0. -1.
</event>
<event>
 7    1  0.6058736E-006  0.5973107E+02  0.7818608E-02  0.1507471E+00
          2   -1    0    0  502    0  0.00000000000E+00  0.00000000000E+00  0.16302455651E+03  0.16302455651E+03  0.00000000000E+00 0. -1.
          1   -1    0    0  501    0 -0.00000000000E+00 -0.00000000000E+00 -0.16607633728E+04  0.16607633728E+04  0.00000000000E+00 0. -1.
         25    2    1    2    0    0  0.80754503950E+02 -0.22374596210E+02 -0.25320698460E+03  0.29455048703E+03  0.12499719955E+03 0.  0.
          2    1    1    2  501    0 -0.53887354697E+02  0.24089492594E+02 -0.13849774914E+04  0.13862347573E+04  0.00000000000E+00 0. -1.
          1    1    1    2  502    0 -0.26867149254E+02 -0.17148963839E+01  0.14044565972E+03  0.14300268498E+03  0.00000000000E+00 0. -1.
         22    1    3    3    0    0 -0.33916336518E+02 -0.72494691411E+01 -0.63892431468E+02  0.72698799746E+02  0.00000000000E+00 0.  1.
         22    1    3    3    0    0  0.11467084047E+03 -0.15125127069E+02 -0.18931455313E+03  0.22185168728E+03  0.00000000000E+00 0.  1.
</event>
<event>
 7    1  0.6058736E-006  0.7227763E+02  0.7818608E-02  0.1385282E+00
          2   -1    0    0  502    0  0.00000000000E+00  0.00000000000E+00  0.46660413448E+03  0.46660413448E+03  0.00000000000E+00 0. -1.
          1   -1    0    0  501    0 -0.00000000000E+00 -0.00000000000E+00 -0.66068794423E+03  0.66068794423E+03  0.00000000000E+00 0. -1.
         25    2    1    2    0    0 -0.44029264444E+02 -0.91794774323E+01 -0.20530185619E+03  0.24453396508E+03  0.12500067596E+03 0.  0.
          2    1    1    2  501    0 -0.13942774374E+02  0.53285775653E+02 -0.43103819391E+03  0.43454309275E+03  0.00000000000E+00 0. -1.
          1    1    1    2  502    0  0.57972038818E+02 -0.44106298220E+02  0.44225624034E+03  0.44821502089E+03  0.00000000000E+00 0. -1.
         22    1    3    3    0    0 -0.22826535281E+02 -0.39700342324E+02 -0.11521071874E+02  0.47221848659E+02  0.00000000000E+00 0. -1.
         22    1    3    3    0    0 -0.21202729163E+02  0.30520864892E+02 -0.19378078431E+03  0.19731211642E+03  0.00000000000E+00 0. -1.
</event>
<event>
 7    1  0.6058736E-006  0.1304273E+03  0.7818608E-02  0.1321990E+00
          2   -1    0    0  502    0  0.00000000000E+00  0.00000000000E+00  0.32051134897E+03  0.32051134897E+03  0.00000000000E+00 0. -1.
          1   -1    0    0  501    0 -0.00000000000E+00 -0.00000000000E+00 -0.13690039387E+04  0.13690039387E+04  0.00000000000E+00 0. -1.
         25    2    1    2    0    0  0.59140778856E+02 -0.71001833918E+02  0.20542110777E+01  0.15546880667E+03  0.12500975130E+03 0.  0.
          2    1    1    2  501    0  0.11485403508E+02 -0.50958354215E+02 -0.12711743619E+04  0.12722471956E+04  0.00000000000E+00 0. -1.
          1    1    1    2  502    0 -0.70626182364E+02  0.12196018813E+03  0.22062756110E+03  0.26179928541E+03  0.00000000000E+00 0. -1.
         22    1    3    3    0    0  0.19078166349E+02 -0.79673113757E+01 -0.56756763973E+02  0.60405171455E+02  0.00000000000E+00 0. -1.
         22    1    3    3    0    0  0.40062612507E+02 -0.63034522543E+02  0.58810975051E+02  0.95063635211E+02  0.00000000000E+00 0. -1.
</event>
<event>
 7    1  0.6058736E-006  0.9449465E+02  0.7818608E-02  0.1307366E+00
          2   -1    0    0  502    0  0.00000000000E+00  0.00000000000E+00  0.37789585877E+03  0.37789585877E+03  0.00000000000E+00 0. -1.
          1   -1    0    0  501    0 -0.00000000000E+00 -0.00000000000E+00 -0.97102991962E+03  0.97102991962E+03  0.00000000000E+00 0. -1.
         25    2    1    2    0    0 -0.13254017043E+03 -0.61985135955E+02 -0.47814691556E+03  0.51542289690E+03  0.12500894340E+03 0.  0.
          2    1    1    2  501    0  0.39010317409E+02  0.72413160773E+02 -0.46440539635E+03  0.47163316559E+03  0.00000000000E+00 0. -1.
          1    1    1    2  502    0  0.93529853017E+02 -0.10428024818E+02  0.34941825107E+03  0.36186971590E+03  0.00000000000E+00 0. -1.
         22    1    3    3    0    0 -0.12679513780E+03 -0.15501821846E+02 -0.42864994285E+03  0.44727853398E+03  0.00000000000E+00 0. -1.
         22    1    3    3    0    0 -0.57450326267E+01 -0.46483314109E+02 -0.49496972710E+02  0.68144362921E+02  0.00000000000E+00 0. -1.
</event>
<event>
 7    1  0.6058736E-006  0.3401702E+03  0.7818608E-02  0.1096049E+00
          2   -1    0    0  502    0  0.00000000000E+00  0.00000000000E+00  0.27147319165E+04  0.27147319165E+04  0.00000000000E+00 0. -1.
          1   -1    0    0  501    0 -0.00000000000E+00 -0.00000000000E+00 -0.44045322192E+03  0.44045322192E+03  0.00000000000E+00 0. -1.
         25    2    1    2    0    0  0.23900635184E+03 -0.22386192518E+03 -0.91386083335E+02  0.36223522983E+03  0.12499899095E+03 0.  0.
          2    1    1    2  501    0 -0.19662939948E+03 -0.11814040388E+03 -0.13665523557E+03  0.26701110310E+03  0.00000000000E+00 0. -1.
          1    1    1    2  502    0 -0.42376952361E+02  0.34200232906E+03  0.25023200135E+04  0.25259388055E+04  0.00000000000E+00 0. -1.
         22    1    3    3    0    0  0.21338667905E+03 -0.23691018406E+03 -0.96299312279E+02  0.33306736203E+03  0.00000000000E+00 0.  1.
         22    1    3    3    0    0  0.25619672788E+02  0.13048258872E+02  0.49132289441E+01  0.29167867800E+02  0.00000000000E+00 0.  1.
</event>
<event>
 7    1  0.1259760E-005  0.1154137E+03  0.7818608E-02  0.1320716E+00
          2   -1    0    0  502    0  0.00000000000E+00  0.00000000000E+00  0.23745771501E+04  0.23745771501E+04  0.00000000000E+00 0. -1.
          1   -1    0    0  501    0 -0.00000000000E+00 -0.00000000000E+00 -0.13839635071E+04  0.13839635071E+04  0.00000000000E+00 0. -1.
         25    2    1    2    0    0 -0.23516387851E+02 -0.51811841959E+02 -0.10871958310E+03  0.17516329981E+03  0.12499898554E+03 0.  0.
          2    1    1    2  501    0 -0.13247250378E+02 -0.58218140044E+02 -0.12398662397E+04  0.12413029984E+04  0.00000000000E+00 0. -1.
          1    1    1    2  502    0  0.36763638229E+02  0.11002998200E+03  0.23391994658E+04  0.23420743590E+04  0.00000000000E+00 0. -1.
         22    1    3    3    0    0 -0.11243866056E+02 -0.88004724167E+02 -0.41741350624E+02  0.98048948753E+02  0.00000000000E+00 0. -1.
         22    1    3    3    0    0 -0.12272521796E+02  0.36192882209E+02 -0.66978232473E+02  0.77114351058E+02  0.00000000000E+00 0. -1.
</event>
<event>
 7    1  0.6058736E-006  0.5219934E+02  0.7818608E-02  0.1471609E+00
          2   -1    0    0  502    0  0.00000000000E+00  0.00000000000E+00  0.10464124390E+03  0.10464124390E+03  0.00000000000E+00 0. -1.
          1   -1    0    0  501    0 -0.00000000000E+00 -0.00000000000E+00 -0.34414411669E+03  0.34414411669E+03  0.00000000000E+00 0. -1.
         25    2    1    2    0    0  0.70502039089E+02 -0.16664962163E+02 -0.17709258049E+03  0.22854124674E+03  0.12498424268E+03 0.  0.
          2    1    1    2  501    0 -0.47612562212E+02 -0.15596942438E+02 -0.13145027515E+03  0.14067478640E+03  0.00000000000E+00 0. -1.
          1    1    1    2  502    0 -0.22889476877E+02  0.32261904602E+02  0.69039982836E+02  0.79569327446E+02  0.00000000000E+00 0. -1.
         22    1    3    3    0    0  0.93904977483E+02 -0.25612168678E+02 -0.73518768739E+02  0.12198006943E+03  0.00000000000E+00 0.  1.
         22    1    3    3    0    0 -0.23402938394E+02  0.89472065153E+01 -0.10357381175E+03  0.10656117731E+03  0.00000000000E+00 0.  1.
</event>
<event>
 7    1  0.6058736E-006  0.8811123E+02  0.7818608E-02  0.1366732E+00
          2   -1    0    0  502    0  0.00000000000E+00  0.00000000000E+00  0.10834261594E+04  0.10834261594E+04  0.00000000000E+00 0. -1.
          1   -1    0    0  501    0 -0.00000000000E+00 -0.00000000000E+00 -0.31918672794E+03  0.31918672794E+03  0.00000000000E+00 0. -1.
         25    2    1    2    0    0  0.83490308803E+02 -0.88307968469E+02 -0.21194749479E+03  0.27443699120E+03  0.12499997053E+03 0.  0.
          2    1    1    2  501    0 -0.55614073149E+02  0.43691510228E+02 -0.58725650196E+02  0.91927010118E+02  0.00000000000E+00 0. -1.
          1    1    1    2  502    0 -0.27876235654E+02  0.44616458241E+02  0.10349125764E+04  0.10362488860E+04  0.00000000000E+00 0. -1.
         22    1    3    3    0    0  0.98721462796E+02 -0.46135872637E+02 -0.80293276887E+02  0.13535677402E+03  0.00000000000E+00 0. -1.
         22    1    3    3    0    0 -0.15231153993E+02 -0.42172095833E+02 -0.13165421791E+03  0.13908021718E+03  0.00000000000E+00 0. -1.
</event>
<event>
 7    1  0.6058736E-006  0.1388526E+03  0.7818608E-02  0.1404681E+00
          2   -1    0    0  502    0  0.00000000000E+00  0.00000000000E+00  0.21424676472E+03  0.21424676472E+03  0.00000000000E+00 0. -1.
          1   -1    0    0  501    0 -0.00000000000E+00 -0.00000000000E+00 -0.17629474636E+03  0.17629474636E+03  0.00000000000E+00 0. -1.
         25    2    1    2    0    0 -0.13572333935E+03 -0.73960710474E+02  0.45861951077E+01  0.19883858319E+03  0.12499894977E+03 0.  0.
          2    1    1    2  501    0  0.11270818634E+03  0.65385700181E+02 -0.21059759135E+02  0.13199219110E+03  0.00000000000E+00 0. -1.
          1    1    1    2  502    0  0.23015153003E+02  0.85750102930E+01  0.54425582384E+02  0.59710736783E+02  0.00000000000E+00 0. -1.
         22    1    3    3    0    0 -0.82420751599E-01 -0.62541195032E+02  0.47021252277E+01  0.62717763439E+02  0.00000000000E+00 0.  1.
         22    1    3    3    0    0 -0.13564091860E+03 -0.11419515443E+02 -0.11593011996E+00  0.13612081975E+03  0.00000000000E+00 0.  1.
</event>
<event>
 7    1  0.6058736E-006  0.9095695E+02  0.7818608E-02  0.1306144E+00
          2   -1    0    0  502    0  0.00000000000E+00  0.00000000000E+00  0.38997313755E+04  0.38997313755E+04  0.00000000000E+00 0. -1.
          1   -1    0    0  501    0 -0.00000000000E+00 -0.00000000000E+00 -0.26403391000E+02  0.26403391000E+02  0.00000000000E+00 0. -1.
         25    2    1    2    0    0 -0.36918600263E+01 -0.22059894006E+02  0.77313865540E+03  0.78349811036E+03  0.12500255883E+03 0.  0.
          2    1    1    2  501    0 -0.81172494377E+02  0.54789200017E+02  0.96224985415E+02  0.13729558660E+03  0.00000000000E+00 0. -1.
          1    1    1    2  502    0  0.84864354403E+02 -0.32729306011E+02  0.30039643437E+04  0.30053410696E+04  0.00000000000E+00 0. -1.
         22    1    3    3    0    0  0.44377965765E+02  0.31760850660E+02  0.30864430141E+03  0.31343174740E+03  0.00000000000E+00 0. -1.
         22    1    3    3    0    0 -0.48069825791E+02 -0.53820744666E+02  0.46449435398E+03  0.47006636296E+03  0.00000000000E+00 0. -1.
</event>
<event>
 7    1  0.6058736E-006  0.5649063E+02  0.7818608E-02  0.1478439E+00
          2   -1    0    0  502    0  0.00000000000E+00  0.00000000000E+00  0.95408525922E+02  0.95408525922E+02  0.00000000000E+00 0. -1.
          1   -1    0    0  501    0 -0.00000000000E+00 -0.00000000000E+00 -0.31544236215E+04  0.31544236215E+04  0.00000000000E+00 0. -1.
         25    2    1    2    0    0 -0.31755045848E+02 -0.37142753733E+02 -0.18257291152E+04  0.18306561538E+04  0.12500873703E+03 0.  0.
          2    1    1    2  501    0 -0.23624868330E+02  0.25577967971E+02 -0.13173705271E+04  0.13178305933E+04  0.00000000000E+00 0. -1.
          1    1    1    2  502    0  0.55379914178E+02  0.11564785762E+02  0.84084546750E+02  0.10134540032E+03  0.00000000000E+00 0. -1.
         22    1    3    3    0    0  0.28007202975E+01 -0.22444823253E+02 -0.54216460140E+02  0.58745541747E+02  0.00000000000E+00 0.  1.
         22    1    3    3    0    0 -0.34555766145E+02 -0.14697930480E+02 -0.17715126551E+04  0.17719106121E+04  0.00000000000E+00 0.  1.
</event>
<event>
 7    1  0.6058736E-006  0.1881217E+03  0.7818608E-02  0.1249420E+00
          2   -1    0    0  502    0  0.00000000000E+00  0.00000000000E+00  0.76038572795E+03  0.76038572795E+03  0.00000000000E+00 0. -1.
          1   -1    0    0  501    0 -0.00000000000E+00 -0.00000000000E+00 -0.90491459484E+03  0.90491459484E+03  0.00000000000E+00 0. -1.
         25    2    1    2    0    0  0.13726990233E+03 -0.71563789479E+02 -0.26223960593E+03  0.32917926495E+03  0.12499990202E+03 0.  0.
          2    1    1    2  501    0  0.51460301065E+02  0.50118064016E+02 -0.59459823683E+03  0.59892156930E+03  0.00000000000E+00 0. -1.
          1    1    1    2  502    0 -0.18873020340E+03  0.21445725463E+02  0.71230897587E+03  0.73719948855E+03  0.00000000000E+00 0. -1.
         22    1    3    3    0    0 -0.55965118859E+01 -0.42122820741E+02 -0.11193768550E+03  0.11973177693E+03  0.00000000000E+00 0. -1.
         22    1    3    3    0    0  0.14286641422E+03 -0.29440968738E+02 -0.15030192042E+03  0.20944748801E+03  0.00000000000E+00 0. -1.
</event>
<event>
 7    1  0.6058736E-006  0.8670067E+02  0.7818608E-02  0.1345130E+00
          2   -1    0    0  502    0  0.00000000000E+00  0.00000000000E+00  0.57398754029E+03  0.57398754029E+03  0.00000000000E+00 0. -1.
          1   -1    0    0  501    0 -0.00000000000E+00 -0.00000000000E+00 -0.16618032470E+04  0.16618032470E+04  0.00000000000E+00 0. -1.
         25    2    1    2    0    0 -0.11436028631E+03  0.75232004103E+02 -0.66570155355E+03  0.69102887551E+03  0.12499687544E+03 0.  0.
          2    1    1    2  501    0  0.51518443469E+02 -0.62197470076E+02 -0.97993684763E+03  0.98325932522E+03  0.00000000000E+00 0. -1.
          1    1    1    2  502    0  0.62841842837E+02 -0.13034534027E+02  0.55782269445E+03  0.56150258657E+03  0.00000000000E+00 0. -1.
         22    1    3    3    0    0 -0.21421932686E+02  0.81028026434E+00 -0.83894537846E+01  0.23020397236E+02  0.00000000000E+00 0.  1.
         22    1    3    3    0    0 -0.92938353620E+02  0.74421723839E+02 -0.65731209976E+03  0.66800847828E+03  0.00000000000E+00 0.  1.
</event>
<event>
 7    1  0.6058736E-006  0.1396889E+03  0.7818608E-02  0.1289553E+00
          2   -1    0    0  502    0  0.00000000000E+00  0.00000000000E+00  0.97786462169E+03  0.97786462169E+03  0.00000000000E+00 0. -1.
          1   -1    0    0  501    0 -0.00000000000E+00 -0.00000000000E+00 -0.17145243679E+04  0.17145243679E+04  0.00000000000E+00 0. -1.
         25    2    1    2    0    0 -0.18375733936E+03 -0.86749165195E+02  0.67140508367E+02  0.24783987885E+03  0.12499832102E+03 0.  0.
          2    1    1    2  501    0  0.12118201708E+03  0.67070766667E+02 -0.16199034654E+04  0.16258138904E+04  0.00000000000E+00 0. -1.
          1    1    1    2  502    0  0.62575322274E+02  0.19678398528E+02  0.81610321081E+03  0.81873522034E+03  0.00000000000E+00 0. -1.
         22    1    3    3    0    0 -0.18284433871E+03 -0.10433163324E+03  0.38184447604E+02  0.21395138217E+03  0.00000000000E+00 0.  1.
         22    1    3    3    0    0 -0.91300064658E+00  0.17582468044E+02  0.28956060763E+02  0.33888496686E+02  0.00000000000E+00 0.  1.
</event>
<event>
 7    1  0.6058736E-006  0.3600364E+02  0.7818608E-02  0.1540002E+00
          2   -1    0    0  502    0  0.00000000000E+00  0.00000000000E+00  0.14077125643E+02  0.14077125643E+02  0.00000000000E+00 0. -1.
          1   -1    0    0  501    0 -0.00000000000E+00 -0.00000000000E+00 -0.95345345262E+03  0.95345345262E+03  0.00000000000E+00 0. -1.
         25    2    1    2    0    0 -0.39077754647E+01  0.11661054195E+02 -0.43175630932E+03  0.44966324496E+03  0.12502908596E+03 0.  0.
          2    1    1    2  501    0 -0.35748777854E+02  0.39954234252E+01 -0.40700863482E+03  0.40859511419E+03  0.00000000000E+00 0. -1.
          1    1    1    2  502    0  0.39656553319E+02 -0.15656477620E+02 -0.10061138284E+03  0.10927221911E+03  0.00000000000E+00 0. -1.
         22    1    3    3    0    0 -0.39429250988E+02  0.49737995768E+02 -0.14597954253E+03  0.15918090618E+03  0.00000000000E+00 0. -1.
         22    1    3    3    0    0  0.35521475523E+02 -0.38076941573E+02 -0.28577676679E+03  0.29048233878E+03  0.00000000000E+00 0. -1.
</event>
<event>
 7    1  0.6058736E-006  0.2368765E+02  0.7818608E-02  0.1682716E+00
          2   -1    0    0  502    0  0.00000000000E+00  0.00000000000E+00  0.25010239058E+02  0.25010239058E+02  0.00000000000E+00 0. -1.
          1   -1    0    0  501    0 -0.00000000000E+00 -0.00000000000E+00 -0.52973681259E+03  0.52973681259E+03  0.00000000000E+00 0. -1.
         25    2    1    2    0    0  0.26635152909E+01 -0.16400407888E+01 -0.19245732541E+03  0.22950962208E+03  0.12500024190E+03 0.  0.
          2    1    1    2  501    0  0.20331633654E+02 -0.11618339374E+02 -0.28897408889E+03  0.28992134311E+03  0.00000000000E+00 0. -1.
          1    1    1    2  502    0 -0.22995148945E+02  0.13258380163E+02 -0.23295159224E+02  0.35316086460E+02  0.00000000000E+00 0. -1.
         22    1    3    3    0    0 -0.19059129304E+01  0.54006497333E+02 -0.40243427243E+02  0.67378540312E+02  0.00000000000E+00 0. -1.
         22    1    3    3    0    0  0.45694282213E+01 -0.55646538122E+02 -0.15221389817E+03  0.16213108177E+03  0.00000000000E+00 0. -1.
</event>
<event>
 7    1  0.6058736E-006  0.1951479E+03  0.7818608E-02  0.1242801E+00
          2   -1    0    0  502    0  0.00000000000E+00  0.00000000000E+00  0.15979843986E+04  0.15979843986E+04  0.00000000000E+00 0. -1.
          1   -1    0    0  501    0 -0.00000000000E+00 -0.00000000000E+00 -0.22546960918E+04  0.22546960918E+04  0.00000000000E+00 0. -1.
         25    2    1    2    0    0 -0.15636419106E+03  0.21262097878E+02 -0.32306622591E+03  0.38065535251E+03  0.12499949607E+03 0.  0.
          2    1    1    2  501    0 -0.34564060405E+02 -0.65444584849E+02 -0.18959917785E+04  0.18974357675E+04  0.00000000000E+00 0. -1.
          1    1    1    2  502    0  0.19092825146E+03  0.44182486971E+02  0.15623463112E+04  0.15745893704E+04  0.00000000000E+00 0. -1.
         22    1    3    3    0    0 -0.10531435180E+02  0.45360878616E+02 -0.40288276934E+02  0.61576502776E+02  0.00000000000E+00 0. -1.
         22    1    3    3    0    0 -0.14583275587E+03 -0.24098780738E+02 -0.28277794898E+03  0.31907884973E+03  0.00000000000E+00 0. -1.
</event>
<event>
 7    1  0.6058736E-006  0.5086943E+02  0.7818608E-02  0.1535565E+00
          2   -1    0    0  502    0  0.00000000000E+00  0.00000000000E+00  0.40931720991E+03  0.40931720991E+03  0.00000000000E+00 0. -1.
          1   -1    0    0  501    0 -0.00000000000E+00 -0.00000000000E+00 -0.46307050089E+03  0.46307050089E+03  0.00000000000E+00 0. -1.
         25    2    1    2    0    0 -0.28951019246E+02 -0.79205170394E+01 -0.29943452559E+03  0.32586354178E+03  0.12500046658E+03 0.  0.
          2    1    1    2  501    0 -0.10974417266E+02 -0.23799122710E+02 -0.14762142387E+03  0.14992971974E+03  0.00000000000E+00 0. -1.
          1    1    1    2  502    0  0.39925436512E+02  0.31719639750E+02  0.39330265848E+03  0.39659444927E+03  0.00000000000E+00 0. -1.
         22    1    3    3    0    0 -0.28726922437E+02 -0.64880296659E+02 -0.18204908694E+03  0.19538822642E+03  0.00000000000E+00 0.  1.
         22    1    3    3    0    0 -0.22409680955E+00  0.56959779620E+02 -0.11738543865E+03  0.13047531537E+03  0.00000000000E+00 0.  1.
</event>
<event>
 7    1  0.6058736E-006  0.8696342E+02  0.7818608E-02  0.1311318E+00
          2   -1    0    0  502    0  0.00000000000E+00  0.00000000000E+00  0.63340894978E+03  0.63340894978E+03  0.00000000000E+00 0. -1.
          1   -1    0    0  501    0 -0.00000000000E+00 -0.00000000000E+00 -0.72612453914E+03  0.72612453914E+03  0.00000000000E+00 0. -1.
         25    2    1    2    0    0 -0.32434853454E+02  0.39460771347E+01 -0.23529557971E+03  0.26844906930E+03  0.12503320251E+03 0.  0.
          2    1    1    2  501    0  0.74650545291E+02 -0.79975494100E+02 -0.46480445295E+03  0.47750598221E+03  0.00000000000E+00 0. -1.
          1    1    1    2  502    0 -0.42215691837E+02  0.76029416965E+02  0.60738444330E+03  0.61357843740E+03  0.00000000000E+00 0. -1.
         22    1    3    3    0    0 -0.76191790436E+02 -0.93600037266E+01 -0.10291817315E+03  0.12839372634E+03  0.00000000000E+00 0. -1.
         22    1    3    3    0    0  0.43756936982E+02  0.13306080861E+02 -0.13237740656E+03  0.14005534296E+03  0.00000000000E+00 0. -1.
</event>
<event>
 7    1  0.6058736E-006  0.2019440E+03  0.7818608E-02  0.1282627E+00
          2   -1    0    0  502    0  0.00000000000E+00  0.00000000000E+00  0.17810121842E+04  0.17810121842E+04  0.00000000000E+00 0. -1.
          1   -1    0    0  501    0 -0.00000000000E+00 -0.00000000000E+00 -0.16666690880E+03  0.16666690880E+03  0.00000000000E+00 0. -1.
         25    2    1    2    0    0 -0.54105704112E+02  0.21481768549E+03  0.24924696619E+03  0.35612272640E+03  0.12500112355E+03 0.  0.
          2    1    1    2  501    0  0.46053845438E+02 -0.14999000190E+02 -0.10093067884E+03  0.11195056327E+03  0.00000000000E+00 0. -1.
          1    1    1    2  502    0  0.80518586744E+01 -0.19981868530E+03  0.14660289881E+04  0.14796058034E+04  0.00000000000E+00 0. -1.
         22    1    3    3    0    0  0.18144418363E+02 -0.80241229577E+01  0.23999937980E+02  0.31138456770E+02  0.00000000000E+00 0.  1.
         22    1    3    3    0    0 -0.72250122476E+02  0.22284180845E+03  0.22524702821E+03  0.32498426963E+03  0.00000000000E+00 0.  1.
</event>
<event>
 7    1  0.6058736E-006  0.7606128E+02  0.7818608E-02  0.1402995E+00
          2   -1    0    0  502    0  0.00000000000E+00  0.00000000000E+00  0.30992107913E+02  0.30992107913E+02  0.00000000000E+00 0. -1.
          1   -1    0    0  501    0 -0.00000000000E+00 -0.00000000000E+00 -0.78803535709E+03  0.78803535709E+03  0.00000000000E+00 0. -1.
         25    2    1    2    0    0 -0.29960615648E+01  0.11425592024E+03 -0.45575348279E+03  0.48621145691E+03  0.12500780798E+03 0.  0.
          2    1    1    2  501    0  0.31603244874E+01 -0.45325417612E+02 -0.22688079675E+03  0.23138555933E+03  0.00000000000E+00 0. -1.
          1    1    1    2  502    0 -0.16426292255E+00 -0.68930502628E+02 -0.74408969638E+02  0.10143044877E+03  0.00000000000E+00 0. -1.
         22    1    3    3    0    0  0.53409365687E+02  0.23786021214E+02 -0.21694802379E+03  0.22468818432E+03  0.00000000000E+00 0. -1.
         22    1    3    3    0    0 -0.56405427251E+02  0.90469899026E+02 -0.23880545900E+03  0.26152327258E+03  0.00000000000E+00 0. -1.
</event>
<event>
 7    1  0.6058736E-006  0.3041507E+02  0.7818608E-02  0.1594676E+00
          2   -1    0    0  502    0  0.00000000000E+00  0.00000000000E+00  0.17075679933E+04  0.17075679933E+04  0.00000000000E+00 0. -1.
          1   -1    0    0  501    0 -0.00000000000E+00 -0.00000000000E+00 -0.36148189162E+03  0.36148189162E+03  0.00000000000E+00 0. -1.
         25    2    1    2    0    0 -0.31971133844E+02  0.43409557526E+02 -0.70035249084E+02  0.15308856083E+03  0.12499851303E+03 0.  0.
          2    1    1    2  501    0  0.27065233285E+02 -0.13414922701E+02 -0.24886801077E+03  0.25069458268E+03  0.00000000000E+00 0. -1.
          1    1    1    2  502    0  0.49059005592E+01 -0.29994634825E+02  0.16649893615E+04  0.16652667414E+04  0.00000000000E+00 0. -1.
         22    1    3    3    0    0 -0.29701047796E+01 -0.15180670582E+02  0.29902981528E+02  0.33666936095E+02  0.00000000000E+00 0.  1.
         22    1    3    3    0    0 -0.29001029064E+02  0.58590228109E+02 -0.99938230613E+02  0.11942162474E+03  0.00000000000E+00 0.  1.
</event>
<event>
 7    1  0.6058736E-006  0.8030211E+02  0.7818608E-02  0.1489053E+00
          2   -1    0    0  502    0  0.00000000000E+00  0.00000000000E+00  0.29340580506E+03  0.29340580506E+03  0.00000000000E+00 0. -1.
          1   -1    0    0  501    0 -0.00000000000E+00 -0.00000000000E+00 -0.84946661592E+03  0.84946661592E+03  0.00000000000E+00 0. -1.
         25    2    1    2    0    0  0.33274030097E+02  0.83701446581E+02 -0.18741209924E+03  0.24261218503E+03  0.12499713655E+03 0.  0.
          2    1    1    2  501    0 -0.46096050473E+02 -0.64928478823E+02 -0.63146340067E+03  0.63646412281E+03  0.00000000000E+00 0. -1.
          1    1    1    2  502    0  0.12822020375E+02 -0.18772967758E+02  0.26281468905E+03  0.26379611314E+03  0.00000000000E+00 0. -1.
         22    1    3    3    0    0  0.10614218578E+02 -0.32446153166E+02 -0.57600056235E+02  0.66956560317E+02  0.00000000000E+00 0. -1.
         22    1    3    3    0    0  0.22659811519E+02  0.11614759975E+03 -0.12981204301E+03  0.17565562472E+03  0.00000000000E+00 0. -1.
</event>
<event>
 7    1  0.6058736E-006  0.2550746E+03  0.7818608E-02  0.1265759E+00
          2   -1    0    0  502    0  0.00000000000E+00  0.00000000000E+00  0.21668479637E+04  0.21668479637E+04  0.00000000000E+00 0. -1.
          1   -1    0    0  501    0 -0.00000000000E+00 -0.00000000000E+00 -0.41239656087E+03  0.41239656087E+03  0.00000000000E+00 0. -1.
         25    2    1    2    0    0  0.21076233260E+03 -0.16179083831E+03  0.70148503487E+03  0.76046248890E+03  0.12499962669E+03 0.  0.
          2    1    1    2  501    0 -0.17318392860E+03  0.18671082104E+03 -0.34015987375E+03  0.42492628011E+03  0.00000000000E+00 0. -1.
          1    1    1    2  502    0 -0.37578404003E+02 -0.24919982738E+02  0.13931262417E+04  0.13938557555E+04  0.00000000000E+00 0. -1.
         22    1    3    3    0    0 -0.17061723644E+02 -0.12576904922E+02  0.45708862159E+02  0.50384333190E+02  0.00000000000E+00 0.  1.
         22    1    3    3    0    0  0.22782405625E+03 -0.14921393339E+03  0.65577617271E+03  0.71007815571E+03  0.00000000000E+00 0.  1.
</event>
<event>
 7    1  0.6058736E-006  0.8199470E+02  0.7818608E-02  0.1360562E+00
          2   -1    0    0  502    0  0.00000000000E+00  0.00000000000E+00  0.40695578426E+04  0.40695578426E+04  0.00000000000E+00 0. -1.
          1   -1    0    0  501    0 -0.00000000000E+00 -0.00000000000E+00 -0.10339253848E+03  0.10339253848E+03  0.00000000000E+00 0. -1.
         25    2    1    2    0    0 -0.32744897979E+02 -0.11105515927E+03  0.22020533653E+04  0.22086351303E+04  0.12499855381E+03 0.  0.
          2    1    1    2  501    0  0.58401641890E+02  0.57343226702E+02 -0.82811155333E+02  0.11643317771E+03  0.00000000000E+00 0. -1.
          1    1    1    2  502    0 -0.25656743911E+02  0.53711932569E+02  0.18469230942E+04  0.18478820731E+04  0.00000000000E+00 0. -1.
         22    1    3    3    0    0  0.20303813503E+02 -0.11380566858E+03  0.16439103894E+04  0.16479700675E+04  0.00000000000E+00 0.  1.
         22    1    3    3    0    0 -0.53048711482E+02  0.27505093082E+01  0.55814297590E+03  0.56066506279E+03  0.00000000000E+00 0.  1.
</event>
<event>
 7    1  0.6058736E-006  0.5908155E+02  0.7818608E-02  0.1411307E+00
          2   -1    0    0  502    0  0.00000000000E+00  0.00000000000E+00  0.15792419757E+04  0.15792419757E+04  0.00000000000E+00 0. -1.
          1   -1    0    0  501    0 -0.00000000000E+00 -0.00000000000E+00 -0.75980159083E+02  0.75980159083E+02  0.00000000000E+00 0. -1.
         25    2    1    2    0    0 -0.23848695645E+02 -0.12565781420E+02  0.48544755869E+03  0.50200687786E+03  0.12499965614E+03 0.  0.
          2    1    1    2  501    0 -0.31762828649E+02  0.44662462696E+02 -0.55490046574E+02  0.77992038867E+02  0.00000000000E+00 0. -1.
          1    1    1    2  502    0  0.55611524294E+02 -0.32096681276E+02  0.10733043045E+04  0.10752232180E+04  0.00000000000E+00 0. -1.
         22    1    3    3    0    0 -0.41983853410E+02  0.48046476848E+02  0.21569023300E+03  0.22492973235E+03  0.00000000000E+00 0.  1.
         22    1    3    3    0    0  0.18135157765E+02 -0.60612258268E+02  0.26975732569E+03  0.27707714551E+03  0.00000000000E+00 0.  1.
</event>
<event>
 7    1  0.6058736E-006  0.8239290E+02  0.7818608E-02  0.1370899E+00
          2   -1    0    0  502    0  0.00000000000E+00  0.00000000000E+00  0.18362621856E+04  0.18362621856E+04  0.00000000000E+00 0. -1.
          1   -1    0    0  501    0 -0.00000000000E+00 -0.00000000000E+00 -0.21457958211E+03  0.21457958211E+03  0.00000000000E+00 0. -1.
         25    2    1    2    0    0  0.28515158642E+02 -0.17324249216E+02  0.16357544787E+03  0.20855491377E+03  0.12499992412E+03 0.  0.
          2    1    1    2  501    0 -0.54898370067E+02  0.64840235648E+02 -0.18222356541E+03  0.20105599962E+03  0.00000000000E+00 0. -1.
          1    1    1    2  502    0  0.26383211425E+02 -0.47515986432E+02  0.16403307210E+04  0.16412308543E+04  0.00000000000E+00 0. -1.
         22    1    3    3    0    0  0.96814618701E+01 -0.22121598632E+02 -0.15326328968E+02  0.28600562750E+02  0.00000000000E+00 0. -1.
         22    1    3    3    0    0  0.18833696772E+02  0.47973494162E+01  0.17890177684E+03  0.17995435102E+03  0.00000000000E+00 0. -1.
</event>
<event>
 7    1  0.6058736E-006  0.8857020E+02  0.7818608E-02  0.1395304E+00
          2   -1    0    0  502    0  0.00000000000E+00  0.00000000000E+00  0.11081962769E+03  0.11081962769E+03  0.00000000000E+00 0. -1.
          1   -1    0    0  501    0 -0.00000000000E+00 -0.00000000000E+00 -0.43631430951E+03  0.43631430951E+03  0.00000000000E+00 0. -1.
         25    2    1    2    0    0  0.11223626875E+02  0.74353733497E+02 -0.12143340521E+02  0.14637851501E+03  0.12499904581E+03 0.  0.
          2    1    1    2  501    0 -0.52686391693E+02 -0.73492017464E+02 -0.33976108970E+03  0.35158858141E+03  0.00000000000E+00 0. -1.
          1    1    1    2  502    0  0.41462764818E+02 -0.86171603330E+00  0.26409748406E+02  0.49166840774E+02  0.00000000000E+00 0. -1.
         22    1    3    3    0    0 -0.40156733778E+02  0.18302534052E+01 -0.36419741027E+02  0.54243069895E+02  0.00000000000E+00 0. -1.
         22    1    3    3    0    0  0.51380360653E+02  0.72523480092E+02  0.24276400506E+02  0.92135445117E+02  0.00000000000E+00 0. -1.
</event>
<event>
 7    1  0.6058736E-006  0.8569509E+02  0.7818608E-02  0.1346740E+00
          2   -1    0    0  502    0  0.00000000000E+00  0.00000000000E+00  0.62784176730E+03  0.62784176730E+03  0.00000000000E+00 0. -1.
          1   -1    0    0  501    0 -0.00000000000E+00 -0.00000000000E+00 -0.10579153795E+04  0.10579153795E+04  0.00000000000E+00 0. -1.
         25    2    1    2    0    0  0.75802296335E+02 -0.33598153386E+02  0.25175149872E+03  0.29304863489E+03  0.12499544497E+03 0.  0.
          2    1    1    2  501    0 -0.80351703831E+02 -0.30281634151E+02 -0.10325855111E+04  0.10361497051E+04  0.00000000000E+00 0. -1.
          1    1    1    2  502    0  0.45494074963E+01  0.63879787537E+02  0.35076040019E+03  0.35655880680E+03  0.00000000000E+00 0. -1.
         22    1    3    3    0    0 -0.28091802473E+02 -0.91759265634E+01  0.11952549138E+03  0.12312469324E+03  0.00000000000E+00 0.  1.
         22    1    3    3    0    0  0.10389409881E+03 -0.24422226822E+02  0.13222600733E+03  0.16992394165E+03  0.00000000000E+00 0.  1.
</event>
<event>
 7    1  0.6058736E-006  0.2757908E+02  0.7818608E-02  0.1667556E+00
          2   -1    0    0  502    0  0.00000000000E+00  0.00000000000E+00  0.42398251422E+02  0.42398251422E+02  0.00000000000E+00 0. -1.
          1   -1    0    0  501    0 -0.00000000000E+00 -0.00000000000E+00 -0.10487418392E+04  0.10487418392E+04  0.00000000000E+00 0. -1.
         25    2    1    2    0    0  0.70106951180E+01 -0.15955315739E+02 -0.57999908630E+02  0.13886813719E+03  0.12496658825E+03 0.  0.
          2    1    1    2  501    0 -0.26832468704E+02  0.67546727548E+01 -0.88175633540E+03  0.88219036608E+03  0.00000000000E+00 0. -1.
          1    1    1    2  502    0  0.19821773586E+02  0.92006429839E+01 -0.66587343750E+02  0.70081587362E+02  0.00000000000E+00 0. -1.
         22    1    3    3    0    0 -0.45717564636E+01 -0.79268691696E+01  0.39402682805E+02  0.40451299413E+02  0.00000000000E+00 0.  1.
         22    1    3    3    0    0  0.11582451582E+02 -0.80284465690E+01 -0.97402591435E+02  0.98416837773E+02  0.00000000000E+00 0.  1.
</event>
<event>
 7    1  0.6058736E-006  0.1662864E+03  0.7818608E-02  0.1380818E+00
          2   -1    0    0  502    0  0.00000000000E+00  0.00000000000E+00  0.10396857297E+04  0.10396857297E+04  0.00000000000E+00 0. -1.
          1   -1    0    0  501    0 -0.00000000000E+00 -0.00000000000E+00 -0.10023389406E+04  0.10023389406E+04  0.00000000000E+00 0. -1.
         25    2    1    2    0    0  0.92932869605E+01  0.15872918456E+03 -0.56727079513E+02  0.21005708631E+03  0.12499879498E+03 0.  0.
          2    1    1    2  501    0  0.24394594701E+02  0.45994086665E+01 -0.86154697610E+03  0.86190454392E+03  0.00000000000E+00 0. -1.
          1    1    1    2  502    0 -0.33687881661E+02 -0.16332859323E+03  0.95562084476E+03  0.97006304005E+03  0.00000000000E+00 0. -1.
         22    1    3    3    0    0 -0.32921551947E+02  0.71399993536E+00  0.84430985433E+01  0.33994474426E+02  0.00000000000E+00 0.  1.
         22    1    3    3    0    0  0.42214838908E+02  0.15801518462E+03 -0.65170178057E+02  0.17606261189E+03  0.00000000000E+00 0.  1.
</event>
<event>
 7    1  0.6058736E-006  0.4779123E+02  0.7818608E-02  0.1552067E+00
          2   -1    0    0  502    0  0.00000000000E+00  0.00000000000E+00  0.67257841284E+03  0.67257841284E+03  0.00000000000E+00 0. -1.
          1   -1    0    0  501    0 -0.00000000000E+00 -0.00000000000E+00 -0.16174918562E+03  0.16174918562E+03  0.00000000000E+00 0. -1.
         25    2    1    2    0    0 -0.27006086958E+02  0.37426398251E+02  0.62312119991E+03  0.63720899545E+03  0.12500084037E+03 0.  0.
          2    1    1    2  501    0  0.43933079283E+02 -0.18936183689E+02 -0.14683847913E+03  0.15443520798E+03  0.00000000000E+00 0. -1.
          1    1    1    2  502    0 -0.16926992324E+02 -0.18490214562E+02  0.34546506452E+02  0.42683395035E+02  0.00000000000E+00 0. -1.
         22    1    3    3    0    0 -0.32487252360E+02  0.65161353864E+02  0.58621179188E+03  0.59071625045E+03  0.00000000000E+00 0. -1.
         22    1    3    3    0    0  0.54811654019E+01 -0.27734955614E+02  0.36909408020E+02  0.46492744998E+02  0.00000000000E+00 0. -1.
</event>
<event>
 7    1  0.6058736E-006  0.1306528E+03  0.7818608E-02  0.1299434E+00
          2   -1    0    0  502    0  0.00000000000E+00  0.00000000000E+00  0.46947507095E+03  0.46947507095E+03  0.00000000000E+00 0. -1.
          1   -1    0    0  501    0 -0.00000000000E+00 -0.00000000000E+00 -0.14790670418E+04  0.14790670418E+04  0.00000000000E+00 0. -1.
         25    2    1    2    0    0 -0.18239641364E+03  0.29328629967E+02 -0.30038027012E+02  0.22507605906E+03  0.12501331551E+03 0.  0.
          2    1    1    2  501    0  0.56105574648E+02 -0.30744560890E+02 -0.13400034800E+04  0.13415298692E+04  0.00000000000E+00 0. -1.
          1    1    1    2  502    0  0.12629083899E+03  0.14159309232E+01  0.36044953618E+03  0.38193618447E+03  0.00000000000E+00 0. -1.
         22    1    3    3    0    0 -0.19023053168E+03 -0.11717671205E+00 -0.14262950753E+02  0.19076451629E+03  0.00000000000E+00 0.  1.
         22    1    3    3    0    0  0.78341180387E+01  0.29445806679E+02 -0.15775076259E+02  0.34311542772E+02  0.00000000000E+00 0.  1.
</event>
<event>
 7    1  0.6058736E-006  0.8017271E+02  0.7818608E-02  0.1377816E+00
          2   -1    0    0  502    0  0.00000000000E+00  0.00000000000E+00  0.37212077786E+02  0.37212077786E+02  0.00000000000E+00 0. -1.
          1   -1    0    0  501    0 -0.00000000000E+00 -0.00000000000E+00 -0.30190686274E+04  0.30190686274E+04  0.00000000000E+00 0. -1.
         25    2    1    2    0    0  0.59602983503E+02  0.58692829064E+02 -0.99207069744E+03  0.10034076330E+04  0.12500098162E+03 0.  0.
          2    1    1    2  501    0 -0.48250926776E+02  0.21355836692E+02 -0.19685822356E+04  0.19692892733E+04  0.00000000000E+00 0. -1.
          1    1    1    2  502    0 -0.11352056727E+02 -0.80048665756E+02 -0.21203616600E+02  0.83583798898E+02  0.00000000000E+00 0. -1.
         22    1    3    3    0    0  0.55932317997E+02 -0.24079874399E+02 -0.28078143706E+03  0.28730903213E+03  0.00000000000E+00 0.  1.
         22    1    3    3    0    0  0.36706655063E+01  0.82772703463E+02 -0.71128926038E+03  0.71609860086E+03  0.00000000000E+00 0.  1.
</event>
<event>
 7    1  0.6058736E-006  0.6783497E+02  0.7818608E-02  0.1433827E+00
          2   -1    0    0  502    0  0.00000000000E+00  0.00000000000E+00  0.69425086940E+03  0.69425086940E+03  0.00000000000E+00 0. -1.
          1   -1    0    0  501    0 -0.00000000000E+00 -0.00000000000E+00 -0.55037946878E+03  0.55037946878E+03  0.00000000000E+00 0. -1.
         25    2    1    2    0    0  0.79077966448E+02 -0.68970333703E+02  0.72818857747E+02  0.17870828229E+03  0.12499532954E+03 0.  0.
          2    1    1    2  501    0 -0.35561371286E+02  0.18677564251E+02 -0.49467278858E+03  0.49630094730E+03  0.00000000000E+00 0. -1.
          1    1    1    2  502    0 -0.43516595161E+02  0.50292769453E+02  0.56572533144E+03  0.56962110859E+03  0.00000000000E+00 0. -1.
         22    1    3    3    0    0  0.76907824606E+02 -0.96777457143E+01 -0.85720608794E+01  0.77986873738E+02  0.00000000000E+00 0. -1.
         22    1    3    3    0    0  0.21701418414E+01 -0.59292587989E+02  0.81390918627E+02  0.10072140855E+03  0.00000000000E+00 0. -1.
</event>
<event>
 7    1  0.6058736E-006  0.1410039E+03  0.7818608E-02  0.1409806E+00
          2   -1    0    0  502    0  0.00000000000E+00  0.00000000000E+00  0.84233966741E+03  0.84233966741E+03  0.00000000000E+00 0. -1.
          1   -1    0    0  501    0 -0.00000000000E+00 -0.00000000000E+00 -0.19231205453E+03  0.19231205453E+03  0.00000000000E+00 0. -1.
         25    2    1    2    0    0 -0.15447166431E+03 -0.19361431085E+02  0.18621243768E+03  0.27301240488E+03  0.12499736470E+03 0.  0.
          2    1    1    2  501    0  0.13902722629E+03  0.20036171101E+01 -0.11617232630E+03  0.18118662625E+03  0.00000000000E+00 0. -1.
          1    1    1    2  502    0  0.15444438015E+02  0.17357813974E+02  0.57998750150E+03  0.58045269081E+03  0.00000000000E+00 0. -1.
         22    1    3    3    0    0  0.39593611780E+01 -0.38162423498E+02  0.22791723752E+02  0.44626335047E+02  0.00000000000E+00 0.  1.
         22    1    3    3    0    0 -0.15843102549E+03  0.18800992413E+02  0.16342071393E+03  0.22838606983E+03  0.00000000000E+00 0.  1.
</event>
<event>
 7    1  0.6058736E-006  0.5436169E+02  0.7818608E-02  0.1493987E+00
          2   -1    0    0  502    0  0.00000000000E+00  0.00000000000E+00  0.89049501429E+02  0.89049501429E+02  0.00000000000E+00 0. -1.
          1   -1    0    0  501    0 -0.00000000000E+00 -0.00000000000E+00 -0.20244904772E+04  0.20244904772E+04  0.00000000000E+00 0. -1.
         25    2    1    2    0    0 -0.53975045369E+02  0.65975290982E+02 -0.22760271328E+03  0.27330279987E+03  0.12500152311E+03 0.  0.
          2    1    1    2  501    0  0.17926170291E+02 -0.27048959476E+02 -0.17632344856E+04  0.17635330576E+04  0.00000000000E+00 0. -1.
          1    1    1    2  502    0  0.36048875078E+02 -0.38926331506E+02  0.55396223111E+02  0.76704121231E+02  0.00000000000E+00 0. -1.
         22    1    3    3    0    0 -0.23174230561E+02  0.10154850059E+03 -0.15248229119E+03  0.18466183163E+03  0.00000000000E+00 0.  1.
         22    1    3    3    0    0 -0.30800814808E+02 -0.35573209612E+02 -0.75120422093E+02  0.88640968239E+02  0.00000000000E+00 0.  1.
</event>
<event>
 7    1  0.6058736E-006  0.8472954E+02  0.7818608E-02  0.1317604E+00
          2   -1    0    0  502    0  0.00000000000E+00  0.00000000000E+00  0.13211705411E+03  0.13211705411E+03  0.00000000000E+00 0. -1.
          1   -1    0    0  501    0 -0.00000000000E+00 -0.00000000000E+00 -0.60691728018E+03  0.60691728018E+03  0.00000000000E+00 0. -1.
         25    2    1    2    0    0 -0.98494103106E+01  0.14824774926E+02 -0.84284278798E+02  0.15180764243E+03  0.12499974325E+03 0.  0.
          2    1    1    2  501    0 -0.71857744609E+02  0.42772997606E+02 -0.45867387034E+03  0.46623468781E+03  0.00000000000E+00 0. -1.
          1    1    1    2  502    0  0.81707154920E+02 -0.57597772532E+02  0.68157923066E+02  0.12099200404E+03  0.00000000000E+00 0. -1.
         22    1    3    3    0    0 -0.49515006606E+02 -0.11201852663E+02 -0.90692945767E+02  0.10393472853E+03  0.00000000000E+00 0.  1.
         22    1    3    3    0    0  0.39665596295E+02  0.26026627589E+02  0.64086669688E+01  0.47872913902E+02  0.00000000000E+00 0.  1.
</event>
<event>
 7    1  0.6058736E-006  0.5538642E+02  0.7818608E-02  0.1561056E+00
          2   -1    0    0  502    0  0.00000000000E+00  0.00000000000E+00  0.12370067361E+03  0.12370067361E+03  0.00000000000E+00 0. -1.
          1   -1    0    0  501    0 -0.00000000000E+00 -0.00000000000E+00 -0.71710928887E+03  0.71710928887E+03  0.00000000000E+00 0. -1.
         25    2    1    2    0    0 -0.31098654136E+01 -0.69176180789E+02 -0.19852890939E+03  0.24460935610E+03  0.12499997590E+03 0.  0.
          2    1    1    2  501    0 -0.12211789977E+02  0.16375095813E+02 -0.48780323348E+03  0.48823075095E+03  0.00000000000E+00 0. -1.
          1    1    1    2  502    0  0.15321655390E+02  0.52801084976E+02  0.92923527610E+02  0.10796985543E+03  0.00000000000E+00 0. -1.
         22    1    3    3    0    0  0.23099451204E+02 -0.15458199689E+02  0.85476028485E+01  0.29079238264E+02  0.00000000000E+00 0.  1.
         22    1    3    3    0    0 -0.26209316618E+02 -0.53717981100E+02 -0.20707651224E+03  0.21553011783E+03  0.00000000000E+00 0.  1.
</event>
<event>
 7    1  0.6058736E-006  0.9744616E+02  0.7818608E-02  0.1293880E+00
          2   -1    0    0  502    0  0.00000000000E+00  0.00000000000E+00  0.13611534098E+04  0.13611534098E+04  0.00000000000E+00 0. -1.
          1   -1    0    0  501    0 -0.00000000000E+00 -0.00000000000E+00 -0.28344856813E+03  0.28344856813E+03  0.00000000000E+00 0. -1.
         25    2    1    2    0    0  0.14313088544E+03  0.68815259827E+02  0.49476901679E+01  0.20216502464E+03  0.12499690874E+03 0.  0.
          2    1    1    2  501    0 -0.92281856056E+02  0.58172108628E+01 -0.17153638878E+03  0.19487050463E+03  0.00000000000E+00 0. -1.
          1    1    1    2  502    0 -0.50849029387E+02 -0.74632470690E+02  0.12442935403E+04  0.12475664487E+04  0.00000000000E+00 0. -1.
         22    1    3    3    0    0  0.10454397989E+03 -0.18739650267E+02 -0.20354364686E+01  0.10622975678E+03  0.00000000000E+00 0. -1.
         22    1    3    3    0    0  0.38586905554E+02  0.87554910094E+02  0.69831266365E+01  0.95935267861E+02  0.00000000000E+00 0. -1.
</event>
<event>
 7    1  0.6058736E-006  0.1088638E+03  0.7818608E-02  0.1451031E+00
          2   -1    0    0  502    0  0.00000000000E+00  0.00000000000E+00  0.33121107270E+03  0.33121107270E+03  0.00000000000E+00 0. -1.
          1   -1    0    0  501    0 -0.00000000000E+00 -0.00000000000E+00 -0.11804793870E+04  0.11804793870E+04  0.00000000000E+00 0. -1.
         25    2    1    2    0    0 -0.10581173385E+03  0.59503883287E+02 -0.54321241731E+02  0.18252115894E+03  0.12500536394E+03 0.  0.
          2    1    1    2  501    0  0.49166635139E+01 -0.21463570625E+02 -0.10510561093E+04  0.10512867370E+04  0.00000000000E+00 0. -1.
          1    1    1    2  502    0  0.10089507033E+03 -0.38040312662E+02  0.25610903669E+03  0.27788256382E+03  0.00000000000E+00 0. -1.
         22    1    3    3    0    0 -0.17222321185E+02  0.37829359251E+02 -0.77921859898E+02  0.88314693105E+02  0.00000000000E+00 0.  1.
         22    1    3    3    0    0 -0.88589412661E+02  0.21674524036E+02  0.23600618167E+02  0.94206465838E+02  0.00000000000E+00 0.  1.
</event>
<event>
 7    1  0.6058736E-006  0.9116594E+02  0.7818608E-02  0.1391483E+00
          2   -1    0    0  502    0  0.00000000000E+00  0.00000000000E+00  0.15960988237E+03  0.15960988237E+03  0.00000000000E+00 0. -1.
          1   -1    0    0  501    0 -0.00000000000E+00 -0.00000000000E+00 -0.52078785531E+03  0.52078785531E+03  0.00000000000E+00 0. -1.
         25    2    1    2    0    0  0.51358370100E+02 -0.85406395274E+01 -0.23777329101E+03  0.27362626196E+03  0.12499827445E+03 0.  0.
          2    1    1    2  501    0  0.40466222212E+02 -0.93865274238E+01 -0.24772292376E+03  0.25118174494E+03  0.00000000000E+00 0. -1.
          1    1    1    2  502    0 -0.91824592312E+02  0.17927166951E+02  0.12431824184E+03  0.15558973077E+03  0.00000000000E+00 0. -1.
         22    1    3    3    0    0 -0.21040313871E+02 -0.46081953648E+02 -0.12117229932E+03  0.13133532420E+03  0.00000000000E+00 0.  1.
         22    1    3    3    0    0  0.72398683971E+02  0.37541314121E+02 -0.11660099169E+03  0.14229093777E+03  0.00000000000E+00 0.  1.
</event>
<event>
 7    1  0.6058736E-006  0.8436488E+02  0.7818608E-02  0.1473106E+00
          2   -1    0    0  502    0  0.00000000000E+00  0.00000000000E+00  0.97734388595E+03  0.97734388595E+03  0.00000000000E+00 0. -1.
          1   -1    0    0  501    0 -0.00000000000E+00 -0.00000000000E+00 -0.16348435854E+03  0.16348435854E+03  0.00000000000E+00 0. -1.
         25    2    1    2    0    0 -0.88461813704E+02 -0.14529598011E+02  0.19024316655E+03  0.24464898281E+03  0.12499624261E+03 0.  0.
          2    1    1    2  501    0  0.47949290193E+01  0.23735713037E+02 -0.13285280086E+03  0.13504163104E+03  0.00000000000E+00 0. -1.
          1    1    1    2  502    0  0.83666884685E+02 -0.92061150258E+01  0.75646916172E+03  0.76113763064E+03  0.00000000000E+00 0. -1.
         22    1    3    3    0    0 -0.54762878947E+02  0.54032995448E+02  0.85680227266E+02  0.11515050522E+03  0.00000000000E+00 0.  1.
         22    1    3    3    0    0 -0.33698934757E+02 -0.68562593459E+02  0.10456293929E+03  0.12949847759E+03  0.00000000000E+00 0.  1.
</event>
<event>
 7    1  0.6058736E-006  0.1082807E+03  0.7818608E-02  0.1373933E+00
          2   -1    0    0  502    0  0.00000000000E+00  0.00000000000E+00  0.18024895878E+04  0.18024895878E+04  0.00000000000E+00 0. -1.
          1   -1    0    0  501    0 -0.00000000000E+00 -0.00000000000E+00 -0.91702279931E+03  0.91702279931E+03  0.00000000000E+00 0. -1.
         25    2    1    2    0    0  0.12659880966E+03 -0.11852790720E+02  0.76828470330E+03  0.78870376653E+03  0.12499799504E+03 0.  0.
          2    1    1    2  501    0 -0.29768315172E+02 -0.27214408383E+02 -0.90370056132E+03  0.90460017750E+03  0.00000000000E+00 0. -1.
          1    1    1    2  502    0 -0.96830494489E+02  0.39067199103E+02  0.10208826466E+04  0.10262084431E+04  0.00000000000E+00 0. -1.
         22    1    3    3    0    0 -0.46386725713E+01  0.52967251772E+01  0.34801057964E+03  0.34808179516E+03  0.00000000000E+00 0.  1.
         22    1    3    3    0    0  0.13123748223E+03 -0.17149515898E+02  0.42027412366E+03  0.44062197137E+03  0.00000000000E+00 0.  1.
</event>
<event>
 7    1  0.6058736E-006  0.3744988E+02  0.7818608E-02  0.1554310E+00
          2   -1    0    0  502    0  0.00000000000E+00  0.00000000000E+00  0.10845344032E+04  0.10845344032E+04  0.00000000000E+00 0. -1.
          1   -1    0    0  501    0 -0.00000000000E+00 -0.00000000000E+00 -0.32053072036E+02  0.32053072036E+02  0.00000000000E+00 0. -1.
         25    2    1    2    0    0  0.17239113188E+02  0.59409039362E+02  0.40895659697E+03  0.43208430690E+03  0.12499891635E+03 0.  0.
          2    1    1    2  501    0 -0.21479877560E+02 -0.23088207762E+02 -0.75306818072E+01  0.32421623126E+02  0.00000000000E+00 0. -1.
          1    1    1    2  502    0  0.42407643718E+01 -0.36320831599E+02  0.65105541605E+03  0.65208154526E+03  0.00000000000E+00 0. -1.
         22    1    3    3    0    0 -0.25620267987E+02  0.76893871054E+00  0.30026893461E+03  0.30136095050E+03  0.00000000000E+00 0. -1.
         22    1    3    3    0    0  0.42859381175E+02  0.58640100651E+02  0.10868766236E+03  0.13072335640E+03  0.00000000000E+00 0. -1.
</event>
<event>
 7    1  0.7151721E-006  0.6373088E+02  0.7818608E-02  0.1469712E+00
          2   -1    0    0  502    0  0.00000000000E+00  0.00000000000E+00  0.16959645620E+04  0.16959645620E+04  0.00000000000E+00 0. -1.
          1   -1    0    0  501    0 -0.00000000000E+00 -0.00000000000E+00 -0.73496449040E+03  0.73496449040E+03  0.00000000000E+00 0. -1.
         25    2    1    2    0    0 -0.31982218160E+02 -0.77120115208E+01 -0.35268878873E+03  0.37562962511E+03  0.12500358460E+03 0.  0.
          2    1    1    2  501    0 -0.31799477926E+02  0.82109446556E+01 -0.36947282222E+03  0.37092963318E+03  0.00000000000E+00 0. -1.
          1    1    1    2  502    0  0.63781696086E+02 -0.49893313472E+00  0.16831616825E+04  0.16843697941E+04  0.00000000000E+00 0. -1.
         22    1    3    3    0    0 -0.43638809507E+02 -0.17674343852E+02 -0.37829058135E+02  0.60396736379E+02  0.00000000000E+00 0.  1.
         22    1    3    3    0    0  0.11656591347E+02  0.99623323309E+01 -0.31485973059E+03  0.31523288873E+03  0.00000000000E+00 0.  1.
</event>
<event>
 7    1  0.6058736E-006  0.3165469E+03  0.7818608E-02  0.1251300E+00
          2   -1    0    0  502    0  0.00000000000E+00  0.00000000000E+00  0.71262780634E+03  0.71262780634E+03  0.00000000000E+00 0. -1.
          1   -1    0    0  501    0 -0.00000000000E+00 -0.00000000000E+00 -0.30597261687E+04  0.30597261687E+04  0.00000000000E+00 0. -1.
         25    2    1    2    0    0  0.60374265053E+01  0.34423937416E+03 -0.94315495014E+02  0.37822964737E+03  0.12500022521E+03 0.  0.
          2    1    1    2  501    0 -0.34030863911E+02 -0.31306817203E+03 -0.28138893012E+04  0.28314559470E+04  0.00000000000E+00 0. -1.
          1    1    1    2  502    0  0.27993437406E+02 -0.31171202131E+02  0.56110643394E+03  0.56266838066E+03  0.00000000000E+00 0. -1.
         22    1    3    3    0    0  0.33777069187E+02  0.36247909539E+02  0.12438491515E+02  0.51083435867E+02  0.00000000000E+00 0. -1.
         22    1    3    3    0    0 -0.27739642682E+02  0.30799146463E+03 -0.10675398653E+03  0.32714621150E+03  0.00000000000E+00 0. -1.
</event>
<event>
 7    1  0.6058736E-006  0.1303350E+03  0.7818608E-02  0.1300362E+00
          2   -1    0    0  502    0  0.00000000000E+00  0.00000000000E+00  0.17392765211E+04  0.17392765211E+04  0.00000000000E+00 0. -1.
          1   -1    0    0  501    0 -0.00000000000E+00 -0.00000000000E+00 -0.70272102859E+03  0.70272102859E+03  0.00000000000E+00 0. -1.
         25    2    1    2    0    0  0.35022038767E+02  0.95714490209E+02  0.90272146918E+03  0.91701538102E+03  0.12499340491E+03 0.  0.
          2    1    1    2  501    0  0.41948519866E+02  0.47786747310E+02 -0.68609698067E+03  0.68903724023E+03  0.00000000000E+00 0. -1.
          1    1    1    2  502    0 -0.76970558633E+02 -0.14350123752E+03  0.81993100402E+03  0.83594492846E+03  0.00000000000E+00 0. -1.
         22    1    3    3    0    0 -0.22140999435E+02  0.57916229638E+02  0.70564475784E+03  0.70836363386E+03  0.00000000000E+00 0. -1.
         22    1    3    3    0    0  0.57163038202E+02  0.37798260572E+02  0.19707671134E+03  0.20865174716E+03  0.00000000000E+00 0. -1.
</event>
<event>
 7    1  0.6058736E-006  0.1094052E+03  0.7818608E-02  0.1294302E+00
          2   -1    0    0  502    0  0.00000000000E+00  0.00000000000E+00  0.17863803029E+04  0.17863803029E+04  0.00000000000E+00 0. -1.
          1   -1    0    0  501    0 -0.00000000000E+00 -0.00000000000E+00 -0.93381087122E+03  0.93381087122E+03  0.00000000000E+00 0. -1.
         25    2    1    2    0    0 -0.11728936840E+03  0.21784371096E+02 -0.46911723065E+03  0.49992722136E+03  0.12499958319E+03 0.  0.
          2    1    1    2  501    0  0.98983489201E+02  0.56218175126E+02 -0.44115368436E+03  0.45560376159E+03  0.00000000000E+00 0. -1.
          1    1    1    2  502    0  0.18305879203E+02 -0.78002546222E+02  0.17628403467E+04  0.17646601911E+04  0.00000000000E+00 0. -1.
         22    1    3    3    0    0 -0.12979696977E+02  0.33933428550E+02 -0.26360093557E+02  0.44886575266E+02  0.00000000000E+00 0.  1.
         22    1    3    3    0    0 -0.10430967143E+03 -0.12149057454E+02 -0.44275713709E+03  0.45504064609E+03  0.00000000000E+00 0.  1.
</event>
<event>
 7    1  0.6058736E-006  0.6270685E+02  0.7818608E-02  0.1450327E+00
          2   -1    0    0  502    0  0.00000000000E+00  0.00000000000E+00  0.26909524101E+03  0.26909524101E+03  0.00000000000E+00 0. -1.
          1   -1    0    0  501    0 -0.00000000000E+00 -0.00000000000E+00 -0.10082484251E+04  0.10082484251E+04  0.00000000000E+00 0. -1.
         25    2    1    2    0    0  0.81577050997E+01  0.35116745707E+02 -0.61091344291E+02  0.14371541831E+03  0.12498894004E+03 0.  0.
          2    1    1    2  501    0  0.21162893557E+02 -0.59953217392E+02 -0.90309887774E+03  0.90533410370E+03  0.00000000000E+00 0. -1.
          1    1    1    2  502    0 -0.29320598657E+02  0.24836471684E+02  0.22503703789E+03  0.22829414415E+03  0.00000000000E+00 0. -1.
         22    1    3    3    0    0 -0.26651526062E+02  0.51136402555E+02 -0.81859277937E+02  0.10013079892E+03  0.00000000000E+00 0. -1.
         22    1    3    3    0    0  0.34809231162E+02 -0.16019656848E+02  0.20767933646E+02  0.43584619392E+02  0.00000000000E+00 0. -1.
</event>
<event>
 7    1  0.6058736E-006  0.5857677E+02  0.7818608E-02  0.1443386E+00
          2   -1    0    0  502    0  0.00000000000E+00  0.00000000000E+00  0.45913967994E+03  0.45913967994E+03  0.00000000000E+00 0. -1.
          1   -1    0    0  501    0 -0.00000000000E+00 -0.00000000000E+00 -0.18974994892E+04  0.18974994892E+04  0.00000000000E+00 0. -1.
         25    2    1    2    0    0 -0.52358413476E+02  0.85015037518E+02 -0.56650297405E+03  0.58865879421E+03  0.12499838531E+03 0.  0.
          2    1    1    2  501    0  0.30376971786E+02 -0.30861211939E+02 -0.13176555212E+04  0.13183668865E+04  0.00000000000E+00 0. -1.
          1    1    1    2  502    0  0.21981441690E+02 -0.54153825580E+02  0.44579868597E+03  0.44961348847E+03  0.00000000000E+00 0. -1.
         22    1    3    3    0    0  0.32498226201E+02  0.11007788635E+02 -0.54347409646E+02  0.64272443956E+02  0.00000000000E+00 0.  1.
         22    1    3    3    0    0 -0.84856639677E+02  0.74007248883E+02 -0.51215556440E+03  0.52438635026E+03  0.00000000000E+00 0.  1.
</event>
<event>
 7    1  0.6058736E-006  0.1229945E+03  0.7818608E-02  0.1368312E+00
          2   -1    0    0  502    0  0.00000000000E+00  0.00000000000E+00  0.63039040399E+03  0.63039040399E+03  0.00000000000E+00 0. -1.
          1   -1    0    0  501    0 -0.00000000000E+00 -0.00000000000E+00 -0.50286298527E+03  0.50286298527E+03  0.00000000000E+00 0. -1.
         25    2    1    2    0    0  0.80404509556E+02 -0.82416716693E+02  0.38745760606E+03  0.42309093414E+03  0.12500056683E+03 0.  0.
          2    1    1    2  501    0 -0.14479335228E+02 -0.34262860418E+02 -0.46429084640E+03  0.46577847182E+03  0.00000000000E+00 0. -1.
          1    1    1    2  502    0 -0.65925174328E+02  0.11667957711E+03  0.20436065906E+03  0.24438398331E+03  0.00000000000E+00 0. -1.
         22    1    3    3    0    0 -0.23676760520E+02 -0.54603324031E+02  0.17564949023E+03  0.18545850049E+03  0.00000000000E+00 0. -1.
         22    1    3    3    0    0  0.10408127008E+03 -0.27813392662E+02  0.21180811583E+03  0.23763243365E+03  0.00000000000E+00 0. -1.
</event>
<event>
 7    1  0.6058736E-006  0.8066435E+02  0.7818608E-02  0.1352979E+00
          2   -1    0    0  502    0  0.00000000000E+00  0.00000000000E+00  0.39361185400E+04  0.39361185400E+04  0.00000000000E+00 0. -1.
          1   -1    0    0  501    0 -0.00000000000E+00 -0.00000000000E+00 -0.76276246518E+02  0.76276246518E+02  0.00000000000E+00 0. -1.
         25    2    1    2    0    0  0.28466205710E+02  0.28845755201E+01  0.58025566763E+03  0.59425528203E+03  0.12499621897E+03 0.  0.
          2    1    1    2  501    0  0.34307914366E+02  0.54627985796E+02 -0.53597296154E+02  0.83868468302E+02  0.00000000000E+00 0. -1.
          1    1    1    2  502    0 -0.62774120076E+02 -0.57512561316E+02  0.33331839220E+04  0.33342710362E+04  0.00000000000E+00 0. -1.
         22    1    3    3    0    0 -0.46896549141E+02 -0.10536484867E+02  0.29580444934E+03  0.29968412718E+03  0.00000000000E+00 0.  1.
         22    1    3    3    0    0  0.75362754851E+02  0.13421060387E+02  0.28445121829E+03  0.29457115485E+03  0.00000000000E+00 0.  1.
</event>
<event>
 7    1  0.6058736E-006  0.9058040E+02  0.7818608E-02  0.1419232E+00
          2   -1    0    0  502    0  0.00000000000E+00  0.00000000000E+00  0.82116644520E+03  0.82116644520E+03  0.00000000000E+00 0. -1.
          1   -1    0    0  501    0 -0.00000000000E+00 -0.00000000000E+00 -0.43701963413E+03  0.43701963413E+03  0.00000000000E+00 0. -1.
         25    2    1    2    0    0 -0.11353907879E+03 -0.24240226898E+02 -0.15103235061E+03  0.22784816899E+03  0.12500122467E+03 0.  0.
          2    1    1    2  501    0  0.31152867242E+02 -0.12639404525E+02 -0.24381988070E+03  0.24612677609E+03  0.00000000000E+00 0. -1.
          1    1    1    2  502    0  0.82386211552E+02  0.36879631423E+02  0.77899904238E+03  0.78421113426E+03  0.00000000000E+00 0. -1.
         22    1    3    3    0    0 -0.98056082034E+02 -0.49129111770E+02 -0.46223998716E+02  0.11901816208E+03  0.00000000000E+00 0.  1.
         22    1    3    3    0    0 -0.15482996760E+02  0.24888884872E+02 -0.10480835189E+03  0.10883000691E+03  0.00000000000E+00 0.  1.
</event>
<event>
 7    1  0.6058736E-006  0.2370218E+03  0.7818608E-02  0.1168681E+00
          2   -1    0    0  502    0  0.00000000000E+00  0.00000000000E+00  0.21855584347E+04  0.21855584347E+04  0.00000000000E+00 0. -1.
          1   -1    0    0  501    0 -0.00000000000E+00 -0.00000000000E+00 -0.62629982227E+03  0.62629982227E+03  0.00000000000E+00 0. -1.
         25    2    1    2    0    0 -0.81085473704E+02 -0.94865548936E+02  0.20214957838E+03  0.26844747283E+03  0.12500106882E+03 0.  0.
          2    1    1    2  501    0  0.20999712750E+03  0.13603511471E+03 -0.56427837587E+03  0.61726366447E+03  0.00000000000E+00 0. -1.
          1    1    1    2  502    0 -0.12891165380E+03 -0.41169565778E+02  0.19213874099E+04  0.19261471196E+04  0.00000000000E+00 0. -1.
         22    1    3    3    0    0  0.26022499717E+02 -0.23890477907E+02  0.94282010957E+02  0.10068278411E+03  0.00000000000E+00 0.  1.
         22    1    3    3    0    0 -0.10710797342E+03 -0.70975071028E+02  0.10786756743E+03  0.16776468872E+03  0.00000000000E+00 0.  1.
</event>
<event>
 7    1  0.6058736E-006  0.1524863E+03  0.7818608E-02  0.1288352E+00
          2   -1    0    0  502    0  0.00000000000E+00  0.00000000000E+00  0.83406925576E+03  0.83406925576E+03  0.00000000000E+00 0. -1.
          1   -1    0    0  501    0 -0.00000000000E+00 -0.00000000000E+00 -0.23199798252E+03  0.23199798252E+03  0.00000000000E+00 0. -1.
         25    2    1    2    0    0  0.57624407033E+02  0.12776826914E+03  0.14814712580E+03  0.23920397540E+03  0.12500267230E+03 0.  0.
          2    1    1    2  501    0  0.57182727043E+02 -0.20577481210E+02 -0.17153572296E+03  0.18198296969E+03  0.00000000000E+00 0. -1.
          1    1    1    2  502    0 -0.11480713408E+03 -0.10719078793E+03  0.62545987041E+03  0.64488029319E+03  0.00000000000E+00 0. -1.
         22    1    3    3    0    0 -0.21619733608E+02  0.56563040661E+02  0.11088148384E+03  0.12633880603E+03  0.00000000000E+00 0.  1.
         22    1    3    3    0    0  0.79244140641E+02  0.71205228474E+02  0.37265641963E+02  0.11286516938E+03  0.00000000000E+00 0.  1.
</event>
<event>
 7    1  0.6058736E-006  0.8287004E+02  0.7818608E-02  0.1495696E+00
          2   -1    0    0  502    0  0.00000000000E+00  0.00000000000E+00  0.90708480078E+03  0.90708480078E+03  0.00000000000E+00 0. -1.
          1   -1    0    0  501    0 -0.00000000000E+00 -0.00000000000E+00 -0.13285796289E+03  0.13285796289E+03  0.00000000000E+00 0. -1.
         25    2    1    2    0    0  0.70659076288E+02  0.72981603704E+02  0.42376971579E+03  0.45334659429E+03  0.12499337180E+03 0.  0.
          2    1    1    2  501    0 -0.62375236552E+02 -0.53644931522E+02 -0.10346481003E+03  0.13218704826E+03  0.00000000000E+00 0. -1.
          1    1    1    2  502    0 -0.82838397355E+01 -0.19336672181E+02  0.45392193213E+03  0.45440912113E+03  0.00000000000E+00 0. -1.
         22    1    3    3    0    0  0.10537766043E+02  0.94674352252E+02  0.21865311996E+03  0.23850254580E+03  0.00000000000E+00 0. -1.
         22    1    3    3    0    0  0.60121310245E+02 -0.21692748548E+02  0.20511659583E+03  0.21484404849E+03  0.00000000000E+00 0. -1.
</event>
<event>
 7    1  0.6058736E-006  0.3322294E+03  0.7818608E-02  0.1178262E+00
          2   -1    0    0  502    0  0.00000000000E+00  0.00000000000E+00  0.28843275778E+04  0.28843275778E+04  0.00000000000E+00 0. -1.
          1   -1    0    0  501    0 -0.00000000000E+00 -0.00000000000E+00 -0.41099192993E+03  0.41099192993E+03  0.00000000000E+00 0. -1.
         25    2    1    2    0    0 -0.38333853368E+03 -0.11277454828E+03  0.24336335144E+03  0.48427088565E+03  0.12500415881E+03 0.  0.
          2    1    1    2  501    0  0.30888405418E+03  0.68581429726E+02 -0.20339508504E+03  0.37614137242E+03  0.00000000000E+00 0. -1.
          1    1    1    2  502    0  0.74454479492E+02  0.44193118552E+02  0.24333673815E+04  0.24349072497E+04  0.00000000000E+00 0. -1.
         22    1    3    3    0    0  0.58749991224E+01  0.84367786682E+01  0.18435511390E+01  0.10444784813E+02  0.00000000000E+00 0.  1.
         22    1    3    3    0    0 -0.38921353280E+03 -0.12121132695E+03  0.24151980030E+03  0.47382610083E+03  0.00000000000E+00 0.  1.
</event>
<event>
 7    1  0.6058736E-006  0.1307386E+03  0.7818608E-02  0.1230999E+00
          2   -1    0    0  502    0  0.00000000000E+00  0.00000000000E+00  0.24586981754E+03  0.24586981754E+03  0.00000000000E+00 0. -1.
          1   -1    0    0  501    0 -0.00000000000E+00 -0.00000000000E+00 -0.70002676198E+03  0.70002676198E+03  0.00000000000E+00 0. -1.
         25    2    1    2    0    0  0.41847972674E+02 -0.47978766201E+02 -0.17490556457E+03  0.22420985490E+03  0.12499955077E+03 0.  0.
          2    1    1    2  501    0  0.83359485429E+02  0.10071637375E+03 -0.46980629391E+03  0.48765822617E+03  0.00000000000E+00 0. -1.
          1    1    1    2  502    0 -0.12520745810E+03 -0.52737607545E+02  0.19055491405E+03  0.23402849844E+03  0.00000000000E+00 0. -1.
         22    1    3    3    0    0  0.15031716486E+02 -0.86917669360E+02 -0.13988188990E+03  0.16537102790E+03  0.00000000000E+00 0.  1.
         22    1    3    3    0    0  0.26816256188E+02  0.38938903159E+02 -0.35023674674E+02  0.58838827001E+02  0.00000000000E+00 0.  1.
</event>
<event>
 7    1  0.6058736E-006  0.1638420E+03  0.7818608E-02  0.1197631E+00
          2   -1    0    0  502    0  0.00000000000E+00  0.00000000000E+00  0.25903144090E+03  0.25903144090E+03  0.00000000000E+00 0. -1.
          1   -1    0    0  501    0 -0.00000000000E+00 -0.00000000000E+00 -0.81392865124E+03  0.81392865124E+03  0.00000000000E+00 0. -1.
         25    2    1    2    0    0 -0.10313894269E+03 -0.41702449771E+02 -0.10634704752E+03  0.19826466552E+03  0.12498978862E+03 0.  0.
          2    1    1    2  501    0  0.40645445081E+02 -0.13568191430E+03 -0.61037090273E+03  0.62658939743E+03  0.00000000000E+00 0. -1.
          1    1    1    2  502    0  0.62493497613E+02  0.17738436407E+03  0.16182073991E+03  0.24810602920E+03  0.00000000000E+00 0. -1.
         22    1    3    3    0    0 -0.12091804711E+02  0.38977753383E+02 -0.49016749636E+02  0.63781805751E+02  0.00000000000E+00 0.  1.
         22    1    3    3    0    0 -0.91047137983E+02 -0.80680203155E+02 -0.57330297884E+02  0.13448285977E+03  0.00000000000E+00 0.  1.
</event>
<event>
 7    1  0.6058736E-006  0.1179172E+03  0.7818608E-02  0.1276477E+00
          2   -1    0    0  502    0  0.00000000000E+00  0.00000000000E+00  0.59634939696E+03  0.59634939696E+03  0.00000000000E+00 0. -1.
          1   -1    0    0  501    0 -0.00000000000E+00 -0.00000000000E+00 -0.69719001449E+03  0.69719001449E+03  0.00000000000E+00 0. -1.
         25    2    1    2    0    0  0.48294352924E+02 -0.43212918539E+02  0.68837069090E+02  0.15672441319E+03  0.12499719499E+03 0.  0.
          2    1    1    2  501    0  0.82248582459E+02  0.31156282066E+02 -0.64130393300E+03  0.64730694243E+03  0.00000000000E+00 0. -1.
          1    1    1    2  502    0 -0.13054293538E+03  0.12056636473E+02  0.47162624638E+03  0.48950805584E+03  0.00000000000E+00 0. -1.
         22    1    3    3    0    0  0.19385932367E+02  0.12556063330E+02  0.88055314891E+02  0.91034101197E+02  0.00000000000E+00 0.  1.
         22    1    3    3    0    0  0.28908420557E+02 -0.55768981869E+02 -0.19218245802E+02  0.65690311991E+02  0.00000000000E+00 0.  1.
</event>
<event>
 7    1  0.6058736E-006  0.6915368E+02  0.7818608E-02  0.1510943E+00
          2   -1    0    0  502    0  0.00000000000E+00  0.00000000000E+00  0.91419860688E+03  0.91419860688E+03  0.00000000000E+00 0. -1.
          1   -1    0    0  501    0 -0.00000000000E+00 -0.00000000000E+00 -0.40153856805E+03  0.40153856805E+03  0.00000000000E+00 0. -1.
         25    2    1    2    0    0 -0.12448278744E+02  0.74337916589E+02 -0.44064231791E+02  0.15247182545E+03  0.12499966218E+03 0.  0.
          2    1    1    2  501    0  0.21938195504E+02 -0.58787533811E+01 -0.30145406957E+03  0.30230845212E+03  0.00000000000E+00 0. -1.
          1    1    1    2  502    0 -0.94899167598E+01 -0.68459163208E+02  0.85817834019E+03  0.86095689737E+03  0.00000000000E+00 0. -1.
         22    1    3    3    0    0  0.10017624259E+02  0.65267466809E+02 -0.83337550114E+02  0.10632658312E+03  0.00000000000E+00 0. -1.
         22    1    3    3    0    0 -0.22465903004E+02  0.90704497806E+01  0.39273318323E+02  0.46145242323E+02  0.00000000000E+00 0. -1.
</event>
<event>
 7    1  0.6058736E-006  0.8263642E+02  0.7818608E-02  0.1411419E+00
          2   -1    0    0  502    0  0.00000000000E+00  0.00000000000E+00  0.65092956927E+03  0.65092956927E+03  0.00000000000E+00 0. -1.
          1   -1    0    0  501    0 -0.00000000000E+00 -0.00000000000E+00 -0.14932241547E+04  0.14932241547E+04  0.00000000000E+00 0. -1.
         25    2    1    2    0    0  0.46736437358E+02  0.27221341017E+02 -0.48330971302E+02  0.14452142578E+03  0.12500105495E+03 0.  0.
          2    1    1    2  501    0  0.44440082810E+01  0.38896079526E+02 -0.13936225462E+04  0.13941723191E+04  0.00000000000E+00 0. -1.
          1    1    1    2  502    0 -0.51180445639E+02 -0.66117420543E+02  0.59965893210E+03  0.60545997900E+03  0.00000000000E+00 0. -1.
         22    1    3    3    0    0  0.68932543017E+02  0.60983564686E+02 -0.48675025246E+02  0.10411507447E+03  0.00000000000E+00 0.  1.
         22    1    3    3    0    0 -0.22196105659E+02 -0.33762223669E+02  0.34405394443E+00  0.40406351316E+02  0.00000000000E+00 0.  1.
</event>
<event>
 7    1  0.6058736E-006  0.1313702E+03  0.7818608E-02  0.1318175E+00
          2   -1    0    0  502    0  0.00000000000E+00  0.00000000000E+00  0.32131371397E+04  0.32131371397E+04  0.00000000000E+00 0. -1.
          1   -1    0    0  501    0 -0.00000000000E+00 -0.00000000000E+00 -0.85625866202E+03  0.85625866202E+03  0.00000000000E+00 0. -1.
         25    2    1    2    0    0  0.15638152252E+03 -0.74022607250E+02  0.32739640326E+03  0.39083034104E+03  0.12500169454E+03 0.  0.
          2    1    1    2  501    0 -0.53450389166E+02 -0.47349168452E+01 -0.82219526825E+03  0.82394442936E+03  0.00000000000E+00 0. -1.
          1    1    1    2  502    0 -0.10293113335E+03  0.78757524095E+02  0.28516773427E+04  0.28546210313E+04  0.00000000000E+00 0. -1.
         22    1    3    3    0    0  0.16003843249E+03 -0.98180579622E+02  0.30186508245E+03  0.35549156684E+03  0.00000000000E+00 0.  1.
         22    1    3    3    0    0 -0.36569099747E+01  0.24157972372E+02  0.25531320810E+02  0.35338774201E+02  0.00000000000E+00 0.  1.
</event>
<event>
 7    1  0.6058736E-006  0.1242913E+03  0.7818608E-02  0.1322614E+00
          2   -1    0    0  502    0  0.00000000000E+00  0.00000000000E+00  0.29491576834E+03  0.29491576834E+03  0.00000000000E+00 0. -1.
          1   -1    0    0  501    0 -0.00000000000E+00 -0.00000000000E+00 -0.74883008278E+03  0.74883008278E+03  0.00000000000E+00 0. -1.
         25    2    1    2    0    0  0.14288636650E+02  0.75642708127E+02 -0.14392617717E+03  0.20558525358E+03  0.12499827033E+03 0.  0.
          2    1    1    2  501    0 -0.12737438731E+02  0.53002984278E+02 -0.55699521499E+03  0.55965634832E+03  0.00000000000E+00 0. -1.
          1    1    1    2  502    0 -0.15511979193E+01 -0.12864569240E+03  0.24700707772E+03  0.27850424922E+03  0.00000000000E+00 0. -1.
         22    1    3    3    0    0  0.45720361297E+02 -0.36575061637E+01 -0.99150909954E+02  0.10924574011E+03  0.00000000000E+00 0.  1.
         22    1    3    3    0    0 -0.31431724648E+02  0.79300214291E+02 -0.44775267215E+02  0.96339513467E+02  0.00000000000E+00 0.  1.
</event>
<event>
 7    1  0.6058736E-006  0.6709752E+02  0.7818608E-02  0.1377340E+00
          2   -1    0    0  502    0  0.00000000000E+00  0.00000000000E+00  0.24199197439E+04  0.24199197439E+04  0.00000000000E+00 0. -1.
          1   -1    0    0  501    0 -0.00000000000E+00 -0.00000000000E+00 -0.38417686370E+03  0.38417686370E+03  0.00000000000E+00 0. -1.
         25    2    1    2    0    0  0.10352388662E+03 -0.63032023457E+02  0.15485779234E+04  0.15583379884E+04  0.12503387603E+03 0.  0.
          2    1    1    2  501    0 -0.41033735555E+02  0.52976235190E+02 -0.37516830167E+03  0.38110563303E+03  0.00000000000E+00 0. -1.
          1    1    1    2  502    0 -0.62490151068E+02  0.10055788267E+02  0.86233325845E+03  0.86465298617E+03  0.00000000000E+00 0. -1.
         22    1    3    3    0    0 -0.85205367980E+01 -0.40092984044E+02  0.16399746577E+03  0.16904205304E+03  0.00000000000E+00 0.  1.
         22    1    3    3    0    0  0.11204442342E+03 -0.22939039413E+02  0.13845804576E+04  0.13892959354E+04  0.00000000000E+00 0.  1.
</event>
<event>
 7    1  0.6058736E-006  0.1296660E+03  0.7818608E-02  0.1386047E+00
          2   -1    0    0  502    0  0.00000000000E+00  0.00000000000E+00  0.52536321817E+03  0.52536321817E+03  0.00000000000E+00 0. -1.
          1   -1    0    0  501    0 -0.00000000000E+00 -0.00000000000E+00 -0.17938970439E+04  0.17938970439E+04  0.00000000000E+00 0. -1.
         25    2    1    2    0    0 -0.60433273559E+02  0.10757467343E+03  0.13554329806E+02  0.17616205715E+03  0.12499943842E+03 0.  0.
          2    1    1    2  501    0  0.88347206342E+02 -0.95251736559E+02 -0.17095847905E+04  0.17145140064E+04  0.00000000000E+00 0. -1.
          1    1    1    2  502    0 -0.27913932783E+02 -0.12322936875E+02  0.42749663491E+03  0.42858419859E+03  0.00000000000E+00 0. -1.
         22    1    3    3    0    0 -0.18209091697E+02  0.60047079363E+02  0.67951500493E+02  0.92491238394E+02  0.00000000000E+00 0. -1.
         22    1    3    3    0    0 -0.42224181862E+02  0.47527594071E+02 -0.54397170687E+02  0.83670818753E+02  0.00000000000E+00 0. -1.
</event>
<event>
 7    1  0.6058736E-006  0.9718468E+02  0.7818608E-02  0.1442089E+00
          2   -1    0    0  502    0  0.00000000000E+00  0.00000000000E+00  0.11584709411E+04  0.11584709411E+04  0.00000000000E+00 0. -1.
          1   -1    0    0  501    0 -0.00000000000E+00 -0.00000000000E+00 -0.76191284076E+02  0.76191284076E+02  0.00000000000E+00 0. -1.
         25    2    1    2    0    0  0.11158772284E+03 -0.30613714229E+02  0.10735085856E+03  0.20133817966E+03  0.12499534538E+03 0.  0.
          2    1    1    2  501    0 -0.24306701390E+02 -0.10183564429E+02 -0.20410116597E+02  0.33333070312E+02  0.00000000000E+00 0. -1.
          1    1    1    2  502    0 -0.87281021449E+02  0.40797278658E+02  0.99533891502E+03  0.99999097516E+03  0.00000000000E+00 0. -1.
         22    1    3    3    0    0  0.54263416301E+02  0.47430080001E+02  0.33072321346E+02  0.79296338357E+02  0.00000000000E+00 0. -1.
         22    1    3    3    0    0  0.57324306537E+02 -0.78043794230E+02  0.74278537209E+02  0.12204184130E+03  0.00000000000E+00 0. -1.
</event>
<event>
 7    1  0.6058736E-006  0.7783213E+02  0.7818608E-02  0.1390429E+00
          2   -1    0    0  502    0  0.00000000000E+00  0.00000000000E+00  0.13560956019E+04  0.13560956019E+04  0.00000000000E+00 0. -1.
          1   -1    0    0  501    0 -0.00000000000E+00 -0.00000000000E+00 -0.22127607896E+03  0.22127607896E+03  0.00000000000E+00 0. -1.
         25    2    1    2    0    0 -0.10918910458E+03 -0.27030898053E+02  0.10014727815E+04  0.10154934501E+04  0.12500514020E+03 0.  0.
          2    1    1    2  501    0  0.47712999484E+02  0.11461783829E+02 -0.20850122205E+03  0.21419771802E+03  0.00000000000E+00 0. -1.
          1    1    1    2  502    0  0.61476105099E+02  0.15569114225E+02  0.34184796354E+03  0.34768051282E+03  0.00000000000E+00 0. -1.
         22    1    3    3    0    0  0.78613691192E+01  0.30974334011E+02  0.11167468628E+03  0.11615698880E+03  0.00000000000E+00 0.  1.
         22    1    3    3    0    0 -0.11705047370E+03 -0.58005232064E+02  0.88979809521E+03  0.89933646128E+03  0.00000000000E+00 0.  1.
</event>
<event>
 7    1  0.6058736E-006  0.4325530E+02  0.7818608E-02  0.1537634E+00
          2   -1    0    0  502    0  0.00000000000E+00  0.00000000000E+00  0.21599243226E+04  0.21599243226E+04  0.00000000000E+00 0. -1.
          1   -1    0    0  501    0 -0.00000000000E+00 -0.00000000000E+00 -0.17100377847E+02  0.17100377847E+02  0.00000000000E+00 0. -1.
         25    2    1    2    0    0  0.35621014229E+02 -0.50896987755E+02  0.17892786678E+04  0.17947149873E+04  0.12499749767E+03 0.  0.
          2    1    1    2  501    0 -0.37783870744E+02  0.20567365754E+02  0.20103845466E+02  0.47484755712E+02  0.00000000000E+00 0. -1.
          1    1    1    2  502    0  0.21628565153E+01  0.30329622001E+02  0.33344143147E+03  0.33482495746E+03  0.00000000000E+00 0. -1.
         22    1    3    3    0    0 -0.35201417266E+02  0.19017780187E+02  0.53630496056E+03  0.53779533882E+03  0.00000000000E+00 0. -1.
         22    1    3    3    0    0  0.70822431495E+02 -0.69914767942E+02  0.12529737073E+04  0.12569196484E+04  0.00000000000E+00 0. -1.
</event>
<event>
 7    1  0.6058736E-006  0.8328115E+02  0.7818608E-02  0.1386390E+00
          2   -1    0    0  502    0  0.00000000000E+00  0.00000000000E+00  0.84015189257E+02  0.84015189257E+02  0.00000000000E+00 0. -1.
          1   -1    0    0  501    0 -0.00000000000E+00 -0.00000000000E+00 -0.20654215036E+04  0.20654215036E+04  0.00000000000E+00 0. -1.
         25    2    1    2    0    0  0.21052081253E+02  0.36703311271E+02 -0.18765703335E+03  0.22941117742E+03  0.12499601184E+03 0.  0.
          2    1    1    2  501    0  0.27819223650E+02  0.38348454600E+02 -0.18246640828E+04  0.18252790275E+04  0.00000000000E+00 0. -1.
          1    1    1    2  502    0 -0.48871304904E+02 -0.75051765872E+02  0.30914801813E+02  0.94746487927E+02  0.00000000000E+00 0. -1.
         22    1    3    3    0    0  0.22975025928E+02  0.55857986510E+02 -0.24590797841E+02  0.65212528028E+02  0.00000000000E+00 0. -1.
         22    1    3    3    0    0 -0.19229446749E+01 -0.19154675239E+02 -0.16306623551E+03  0.16419864939E+03  0.00000000000E+00 0. -1.
</event>
<event>
 7    1  0.6058736E-006  0.1080677E+03  0.7818608E-02  0.1407424E+00
          2   -1    0    0  502    0  0.00000000000E+00  0.00000000000E+00  0.13281751614E+04  0.13281751614E+04  0.00000000000E+00 0. -1.
          1   -1    0    0  501    0 -0.00000000000E+00 -0.00000000000E+00 -0.28631095878E+04  0.28631095878E+04  0.00000000000E+00 0. -1.
         25    2    1    2    0    0  0.97308962876E+02 -0.44830911992E+01 -0.26712037379E+03  0.31060027703E+03  0.12502042088E+03 0.  0.
          2    1    1    2  501    0 -0.10310166705E+03  0.34819998786E+02 -0.25729164028E+04  0.25752167291E+04  0.00000000000E+00 0. -1.
          1    1    1    2  502    0  0.57927041757E+01 -0.30336907587E+02  0.13051023503E+04  0.13054677430E+04  0.00000000000E+00 0. -1.
         22    1    3    3    0    0  0.10552472280E+03 -0.44714934142E+02 -0.22027282024E+03  0.24830426455E+03  0.00000000000E+00 0. -1.
         22    1    3    3    0    0 -0.82157599236E+01  0.40231842943E+02 -0.46847553553E+02  0.62296012485E+02  0.00000000000E+00 0. -1.
</event>
<event>
 7    1  0.6058736E-006  0.8149270E+02  0.7818608E-02  0.1344816E+00
          2   -1    0    0  502    0  0.00000000000E+00  0.00000000000E+00  0.17898072800E+04  0.17898072800E+04  0.00000000000E+00 0. -1.
          1   -1    0    0  501    0 -0.00000000000E+00 -0.00000000000E+00 -0.82061593286E+03  0.82061593286E+03  0.00000000000E+00 0. -1.
         25    2    1    2    0    0 -0.39121440457E+02 -0.11643664037E+03  0.15244796155E+03  0.23227883565E+03  0.12500039274E+03 0.  0.
          2    1    1    2  501    0 -0.18298348030E+02  0.79147537693E+02 -0.77785071935E+03  0.78208113636E+03  0.00000000000E+00 0. -1.
          1    1    1    2  502    0  0.57419788487E+02  0.37289102675E+02  0.15945941049E+04  0.15960632408E+04  0.00000000000E+00 0. -1.
         22    1    3    3    0    0 -0.45604244512E+02 -0.41794969344E+02  0.14419415602E+03  0.15690290377E+03  0.00000000000E+00 0. -1.
         22    1    3    3    0    0  0.64828040543E+01 -0.74641671024E+02  0.82538055319E+01  0.75375931884E+02  0.00000000000E+00 0. -1.
</event>
<event>
 7    1  0.6058736E-006  0.4289427E+02  0.7818608E-02  0.1578329E+00
          2   -1    0    0  502    0  0.00000000000E+00  0.00000000000E+00  0.73444091224E+03  0.73444091224E+03  0.00000000000E+00 0. -1.
          1   -1    0    0  501    0 -0.00000000000E+00 -0.00000000000E+00 -0.83445294019E+03  0.83445294019E+03  0.00000000000E+00 0. -1.
         25    2    1    2    0    0 -0.91544945740E+01  0.26949290079E+02 -0.23050910672E+02  0.13025573668E+03  0.12500057380E+03 0.  0.
          2    1    1    2  501    0 -0.89882848569E+01 -0.42157412038E+02 -0.75698050031E+03  0.75820677556E+03  0.00000000000E+00 0. -1.
          1    1    1    2  502    0  0.18142779431E+02  0.15208121959E+02  0.68001938303E+03  0.68043134019E+03  0.00000000000E+00 0. -1.
         22    1    3    3    0    0 -0.40576027984E+02 -0.24294352198E+02 -0.45942411409E+02  0.65934321576E+02  0.00000000000E+00 0. -1.
         22    1    3    3    0    0  0.31421533410E+02  0.51243642276E+02  0.22891500738E+02  0.64321415109E+02  0.00000000000E+00 0. -1.
</event>
<event>
 7    1  0.6058736E-006  0.1047063E+03  0.7818608E-02  0.1399860E+00
          2   -1    0    0  502    0  0.00000000000E+00  0.00000000000E+00  0.11429176753E+04  0.11429176753E+04  0.00000000000E+00 0. -1.
          1   -1    0    0  501    0 -0.00000000000E+00 -0.00000000000E+00 -0.88302842210E+02  0.88302842210E+02  0.00000000000E+00 0. -1.
         25    2    1    2    0    0  0.20320168190E+02 -0.12808692597E+03  0.43734340258E+03  0.47298587655E+03  0.12500887088E+03 0.  0.
          2    1    1    2  501    0 -0.18541237588E+02  0.28300191026E+02 -0.62556710729E+02  0.71119760690E+02  0.00000000000E+00 0. -1.
          1    1    1    2  502    0 -0.17789306022E+01  0.99786734943E+02  0.67982814127E+03  0.68711488030E+03  0.00000000000E+00 0. -1.
         22    1    3    3    0    0  0.55271866561E+02 -0.12861701466E+03  0.29675735691E+03  0.32811925358E+03  0.00000000000E+00 0.  1.
         22    1    3    3    0    0 -0.34951698371E+02  0.53008869084E+00  0.14058604567E+03  0.14486662297E+03  0.00000000000E+00 0.  1.
</event>
<event>
 7    1  0.6058736E-006  0.1594720E+03  0.7818608E-02  0.1343482E+00
          2   -1    0    0  502    0  0.00000000000E+00  0.00000000000E+00  0.12252863374E+04  0.12252863374E+04  0.00000000000E+00 0. -1.
          1   -1    0    0  501    0 -0.00000000000E+00 -0.00000000000E+00 -0.77188949471E+03  0.77188949471E+03  0.00000000000E+00 0. -1.
         25    2    1    2    0    0  0.78241187994E+02 -0.11827196040E+03 -0.92864310584E+02  0.21061366178E+03  0.12499757690E+03 0.  0.
          2    1    1    2  501    0 -0.18287259561E+02 -0.30300290562E+02 -0.61413712433E+03  0.61515602814E+03  0.00000000000E+00 0. -1.
          1    1    1    2  502    0 -0.59953928434E+02  0.14857225096E+03  0.11603982776E+04  0.11714061421E+04  0.00000000000E+00 0. -1.
         22    1    3    3    0    0  0.35130533201E+02  0.16178887280E+02  0.47426614638E+01  0.38966698531E+02  0.00000000000E+00 0.  1.
         22    1    3    3    0    0  0.43110654793E+02 -0.13445084768E+03 -0.97606972048E+02  0.17164696324E+03  0.00000000000E+00 0.  1.
</event>
<event>
 7    1  0.6058736E-006  0.6849438E+02  0.7818608E-02  0.1385150E+00
          2   -1    0    0  502    0  0.00000000000E+00  0.00000000000E+00  0.25630401276E+04  0.25630401276E+04  0.00000000000E+00 0. -1.
          1   -1    0    0  501    0 -0.00000000000E+00 -0.00000000000E+00 -0.50625835898E+02  0.50625835898E+02  0.00000000000E+00 0. -1.
         25    2    1    2    0    0 -0.83304962147E+02 -0.86165936096E+02  0.37543004035E+03  0.41344667720E+03  0.12500461763E+03 0.  0.
          2    1    1    2  501    0  0.25185036623E+02  0.52451196796E+02 -0.38681501383E+01  0.58312749039E+02  0.00000000000E+00 0. -1.
          1    1    1    2  502    0  0.58119925524E+02  0.33714739299E+02  0.21408524015E+04  0.21419065372E+04  0.00000000000E+00 0. -1.
         22    1    3    3    0    0  0.13031498279E+02  0.23628638449E+02  0.52992352962E+02  0.59466982223E+02  0.00000000000E+00 0.  1.
         22    1    3    3    0    0 -0.96336460426E+02 -0.10979457454E+03  0.32243768739E+03  0.35397969498E+03  0.00000000000E+00 0.  1.
</event>
<event>
 7    1  0.6058736E-006  0.6846344E+02  0.7818608E-02  0.1415159E+00
          2   -1    0    0  502    0  0.00000000000E+00  0.00000000000E+00  0.63957097614E+03  0.63957097614E+03  0.00000000000E+00 0. -1.
          1   -1    0    0  501    0 -0.00000000000E+00 -0.00000000000E+00 -0.23096862878E+04  0.23096862878E+04  0.00000000000E+00 0. -1.
         25    2    1    2    0    0  0.48267858088E+02  0.71711269973E+01 -0.44642425438E+03  0.46615642583E+03  0.12500394893E+03 0.  0.
          2    1    1    2  501    0 -0.46534093539E+02 -0.53039447922E+02 -0.18518867323E+04  0.18532304428E+04  0.00000000000E+00 0. -1.
          1    1    1    2  502    0 -0.17337645486E+01  0.45868320925E+02  0.62819567500E+03  0.62987039532E+03  0.00000000000E+00 0. -1.
         22    1    3    3    0    0  0.72738653646E+02  0.11852452207E+01 -0.13195679881E+03  0.15068149618E+03  0.00000000000E+00 0.  1.
         22    1    3    3    0    0 -0.24470795558E+02  0.59858817766E+01 -0.31446745558E+03  0.31547492964E+03  0.00000000000E+00 0.  1.
</event>
<event>
 7    1  0.6058736E-006  0.6527787E+02  0.7818608E-02  0.1483405E+00
          2   -1    0    0  502    0  0.00000000000E+00  0.00000000000E+00  0.51774367214E+03  0.51774367214E+03  0.00000000000E+00 0. -1.
          1   -1    0    0  501    0 -0.00000000000E+00 -0.00000000000E+00 -0.35622883638E+03  0.35622883638E+03  0.00000000000E+00 0. -1.
         25    2    1    2    0    0  0.43316939365E+02  0.33335029683E+02  0.48103515292E+02  0.14466018869E+03  0.12500016227E+03 0.  0.
          2    1    1    2  501    0 -0.13580580257E+02  0.25730596297E+02 -0.30465861222E+03  0.30604471200E+03  0.00000000000E+00 0. -1.
          1    1    1    2  502    0 -0.29736359107E+02 -0.59065625980E+02  0.41806993268E+03  0.42326760783E+03  0.00000000000E+00 0. -1.
         22    1    3    3    0    0  0.85608130708E+01  0.70835921956E+02  0.58758558148E+02  0.92431507157E+02  0.00000000000E+00 0. -1.
         22    1    3    3    0    0  0.34756126294E+02 -0.37500892273E+02 -0.10655042856E+02  0.52228681531E+02  0.00000000000E+00 0. -1.
</event>
<event>
 7    1  0.6058736E-006  0.1111549E+03  0.7818608E-02  0.1387577E+00
          2   -1    0    0  502    0  0.00000000000E+00  0.00000000000E+00  0.24664503221E+04  0.24664503221E+04  0.00000000000E+00 0. -1.
          1   -1    0    0  501    0 -0.00000000000E+00 -0.00000000000E+00 -0.93213297440E+02  0.93213297440E+02  0.00000000000E+00 0. -1.
         25    2    1    2    0    0 -0.40055284482E+02  0.13916301083E+03  0.83767920968E+03  0.85924419741E+03  0.12499345204E+03 0.  0.
          2    1    1    2  501    0  0.31889337984E+02 -0.10496694930E+03 -0.45648386184E+02  0.11882241154E+03  0.00000000000E+00 0. -1.
          1    1    1    2  502    0  0.81659464975E+01 -0.34196061529E+02  0.15812062012E+04  0.15815970106E+04  0.00000000000E+00 0. -1.
         22    1    3    3    0    0 -0.48761577700E+02  0.92625755876E+02  0.76739383155E+03  0.77450017095E+03  0.00000000000E+00 0.  1.
         22    1    3    3    0    0  0.87062932180E+01  0.46537254957E+02  0.70285378134E+02  0.84744026456E+02  0.00000000000E+00 0.  1.
</event>
<event>
 7    1  0.6058736E-006  0.7637716E+02  0.7818608E-02  0.1362968E+00
          2   -1    0    0  502    0  0.00000000000E+00  0.00000000000E+00  0.16554262621E+04  0.16554262621E+04  0.00000000000E+00 0. -1.
          1   -1    0    0  501    0 -0.00000000000E+00 -0.00000000000E+00 -0.68241087334E+03  0.68241087334E+03  0.00000000000E+00 0. -1.
         25    2    1    2    0    0 -0.38357280276E+02 -0.10465032909E+02  0.47384507730E+03  0.49166753053E+03  0.12500802150E+03 0.  0.
          2    1    1    2  501    0  0.59253121214E+02 -0.48573699910E+02 -0.67048016162E+03  0.67484367362E+03  0.00000000000E+00 0. -1.
          1    1    1    2  502    0 -0.20895840938E+02  0.59038732819E+02  0.11696504731E+04  0.11713259313E+04  0.00000000000E+00 0. -1.
         22    1    3    3    0    0 -0.70343514439E+02  0.29642280645E+02  0.33663062686E+03  0.34517684419E+03  0.00000000000E+00 0.  1.
         22    1    3    3    0    0  0.31986234163E+02 -0.40107313554E+02  0.13721445044E+03  0.14649068634E+03  0.00000000000E+00 0.  1.
</event>
<event>
 7    1  0.6058736E-006  0.4394517E+02  0.7818608E-02  0.1482409E+00
          2   -1    0    0  502    0  0.00000000000E+00  0.00000000000E+00  0.11823818865E+04  0.11823818865E+04  0.00000000000E+00 0. -1.
          1   -1    0    0  501    0 -0.00000000000E+00 -0.00000000000E+00 -0.15471514044E+03  0.15471514044E+03  0.00000000000E+00 0. -1.
         25    2    1    2    0    0  0.53822811754E+02 -0.30960187316E+02  0.38541177645E+02  0.14479562376E+03  0.12499968809E+03 0.  0.
          2    1    1    2  501    0 -0.11299199168E+02  0.42029859623E+02 -0.96461539423E+02  0.10582537309E+03  0.00000000000E+00 0. -1.
          1    1    1    2  502    0 -0.42523612586E+02 -0.11069672308E+02  0.10855871079E+04  0.10864760301E+04  0.00000000000E+00 0. -1.
         22    1    3    3    0    0  0.33897621364E+02 -0.34057164238E+02  0.83040419556E+02  0.95940869551E+02  0.00000000000E+00 0.  1.
         22    1    3    3    0    0  0.19925190390E+02  0.30969769218E+01 -0.44499241911E+02  0.48854754209E+02  0.00000000000E+00 0.  1.
</event>
<event>
 7    1  0.6058736E-006  0.7839199E+02  0.7818608E-02  0.1382186E+00
          2   -1    0    0  502    0  0.00000000000E+00  0.00000000000E+00  0.18683070116E+04  0.18683070116E+04  0.00000000000E+00 0. -1.
          1   -1    0    0  501    0 -0.00000000000E+00 -0.00000000000E+00 -0.21056232675E+03  0.21056232675E+03  0.00000000000E+00 0. -1.
         25    2    1    2    0    0  0.23040234900E+02  0.81045380526E+02  0.47818278213E+03  0.50138142897E+03  0.12500143223E+03 0.  0.
          2    1    1    2  501    0  0.28446007673E+02 -0.73234982772E+02 -0.19069319885E+03  0.20624362813E+03  0.00000000000E+00 0. -1.
          1    1    1    2  502    0 -0.51486242573E+02 -0.78103977531E+01  0.13702551015E+04  0.13712442812E+04  0.00000000000E+00 0. -1.
         22    1    3    3    0    0  0.65145668112E+01  0.11173852988E+03  0.30906235536E+03  0.32870576226E+03  0.00000000000E+00 0.  1.
         22    1    3    3    0    0  0.16525668089E+02 -0.30693149354E+02  0.16912042677E+03  0.17267566671E+03  0.00000000000E+00 0.  1.
</event>
<event>
 7    1  0.6058736E-006  0.9292903E+02  0.7818608E-02  0.1318155E+00
          2   -1    0    0  502    0  0.00000000000E+00  0.00000000000E+00  0.52814529214E+02  0.52814529214E+02  0.00000000000E+00 0. -1.
          1   -1    0    0  501    0 -0.00000000000E+00 -0.00000000000E+00 -0.27696278578E+04  0.27696278578E+04  0.00000000000E+00 0. -1.
         25    2    1    2    0    0 -0.16624537469E+03 -0.13483815560E+02 -0.28884988003E+03  0.35619960050E+03  0.12499825726E+03 0.  0.
          2    1    1    2  501    0  0.90896352198E+02  0.46070067730E+01 -0.23674416099E+04  0.23691903992E+04  0.00000000000E+00 0. -1.
          1    1    1    2  502    0  0.75349022496E+02  0.88768087871E+01 -0.60521838608E+02  0.97052387265E+02  0.00000000000E+00 0. -1.
         22    1    3    3    0    0 -0.10723504134E+03 -0.38280051648E+02 -0.83757047806E+02  0.14135048462E+03  0.00000000000E+00 0. -1.
         22    1    3    3    0    0 -0.59010333355E+02  0.24796236088E+02 -0.20509283222E+03  0.21484911588E+03  0.00000000000E+00 0. -1.
</event>
<event>
 7    1  0.6058736E-006  0.1905755E+03  0.7818608E-02  0.1297999E+00
          2   -1    0    0  502    0  0.00000000000E+00  0.00000000000E+00  0.11225118046E+03  0.11225118046E+03  0.00000000000E+00 0. -1.
          1   -1    0    0  501    0 -0.00000000000E+00 -0.00000000000E+00 -0.17757951114E+04  0.17757951114E+04  0.00000000000E+00 0. -1.
         25    2    1    2    0    0  0.19449724052E+03 -0.79308635881E+02 -0.35312832958E+03  0.42946994852E+03  0.12500313292E+03 0.  0.
          2    1    1    2  501    0 -0.15700083187E+03  0.10317216906E+03 -0.13707914560E+04  0.13836050642E+04  0.00000000000E+00 0. -1.
          1    1    1    2  502    0 -0.37496408645E+02 -0.23863533177E+02  0.60375854648E+02  0.74971279177E+02  0.00000000000E+00 0. -1.
         22    1    3    3    0    0  0.15200946517E+03 -0.11239903417E+03 -0.25367898951E+03  0.31637548910E+03  0.00000000000E+00 0.  1.
         22    1    3    3    0    0  0.42487775353E+02  0.33090398287E+02 -0.99449340068E+02  0.11309445943E+03  0.00000000000E+00 0.  1.
</event>
<event>
 7    1  0.1347460E-005  0.8119751E+02  0.7818608E-02  0.1362760E+00
          2   -1    0    0  502    0  0.00000000000E+00  0.00000000000E+00  0.15911532863E+04  0.15911532863E+04  0.00000000000E+00 0. -1.
          1   -1    0    0  501    0 -0.00000000000E+00 -0.00000000000E+00 -0.17136320526E+04  0.17136320526E+04  0.00000000000E+00 0. -1.
         25    2    1    2    0    0 -0.57482782398E+02 -0.54655330284E+02 -0.22156183576E+03  0.26647007682E+03  0.12500071751E+03 0.  0.
          2    1    1    2  501    0  0.52740816462E+01  0.82163740095E+02 -0.14679071194E+04  0.14702142726E+04  0.00000000000E+00 0. -1.
          1    1    1    2  502    0  0.52208700751E+02 -0.27508409811E+02  0.15669901889E+04  0.15681009895E+04  0.00000000000E+00 0. -1.
         22    1    3    3    0    0 -0.58287411932E+02 -0.84386255105E+02 -0.10742312242E+03  0.14851999755E+03  0.00000000000E+00 0.  1.
         22    1    3    3    0    0  0.80462953444E+00  0.29730924821E+02 -0.11413871333E+03  0.11795007927E+03  0.00000000000E+00 0.  1.
</event>
<event>
 7    1  0.6058736E-006  0.4910189E+02  0.7818608E-02  0.1536039E+00
          2   -1    0    0  502    0  0.00000000000E+00  0.00000000000E+00  0.29044233818E+02  0.29044233818E+02  0.00000000000E+00 0. -1.
          1   -1    0    0  501    0 -0.00000000000E+00 -0.00000000000E+00 -0.98694247007E+03  0.98694247007E+03  0.00000000000E+00 0. -1.
         25    2    1    2    0    0 -0.55130326569E+02  0.27077225686E+02 -0.18463406809E+03  0.23127402805E+03  0.12500163157E+03 0.  0.
          2    1    1    2  501    0  0.48866001714E+02 -0.74524733264E+00 -0.74095145223E+03  0.74256144263E+03  0.00000000000E+00 0. -1.
          1    1    1    2  502    0  0.62643248551E+01 -0.26331978353E+02 -0.32312715935E+02  0.42151233208E+02  0.00000000000E+00 0. -1.
         22    1    3    3    0    0  0.17643262727E+02 -0.35925912430E+02 -0.77667801951E+02  0.87374157298E+02  0.00000000000E+00 0.  1.
         22    1    3    3    0    0 -0.72773589297E+02  0.63003138116E+02 -0.10696626613E+03  0.14389987075E+03  0.00000000000E+00 0.  1.
</event>
<event>
 7    1  0.6058736E-006  0.1503592E+03  0.7818608E-02  0.1279634E+00
          2   -1    0    0  502    0  0.00000000000E+00  0.00000000000E+00  0.43176497069E+03  0.43176497069E+03  0.00000000000E+00 0. -1.
          1   -1    0    0  501    0 -0.00000000000E+00 -0.00000000000E+00 -0.86872088539E+03  0.86872088539E+03  0.00000000000E+00 0. -1.
         25    2    1    2    0    0 -0.11790157973E+03 -0.56211160867E+02 -0.36049425457E+03  0.40328842649E+03  0.12499988099E+03 0.  0.
          2    1    1    2  501    0  0.16754123893E+03  0.11320121040E+02 -0.46943511031E+03  0.49856547682E+03  0.00000000000E+00 0. -1.
          1    1    1    2  502    0 -0.49639659200E+02  0.44891039826E+02  0.39297345018E+03  0.39863195277E+03  0.00000000000E+00 0. -1.
         22    1    3    3    0    0 -0.21784747927E+02 -0.58564726317E+01 -0.24031520516E+03  0.24137164570E+03  0.00000000000E+00 0. -1.
         22    1    3    3    0    0 -0.96116831806E+02 -0.50354688235E+02 -0.12017904941E+03  0.16191678079E+03  0.00000000000E+00 0. -1.
</event>
<event>
 7    1  0.6058736E-006  0.6393235E+02  0.7818608E-02  0.1410214E+00
          2   -1    0    0  502    0  0.00000000000E+00  0.00000000000E+00  0.88650713954E+03  0.88650713954E+03  0.00000000000E+00 0. -1.
          1   -1    0    0  501    0 -0.00000000000E+00 -0.00000000000E+00 -0.19689443794E+03  0.19689443794E+03  0.00000000000E+00 0. -1.
         25    2    1    2    0    0 -0.17600555462E+02  0.41328862867E+02 -0.41273154395E+02  0.13908790484E+03  0.12499647011E+03 0.  0.
          2    1    1    2  501    0  0.66457236477E+02 -0.26421750179E+02 -0.93852156183E+02  0.11799534051E+03  0.00000000000E+00 0. -1.
          1    1    1    2  502    0 -0.48856681015E+02 -0.14907112688E+02  0.82473801218E+03  0.82631833213E+03  0.00000000000E+00 0. -1.
         22    1    3    3    0    0 -0.29275927019E+02 -0.39566312157E+02 -0.26931041304E+02  0.56105738978E+02  0.00000000000E+00 0. -1.
         22    1    3    3    0    0  0.11675371557E+02  0.80895175024E+02 -0.14342113091E+02  0.82982165862E+02  0.00000000000E+00 0. -1.
</event>
<event>
 7    1  0.6058736E-006  0.6774233E+02  0.7818608E-02  0.1373127E+00
          2   -1    0    0  502    0  0.00000000000E+00  0.00000000000E+00  0.65947592798E+02  0.65947592798E+02  0.00000000000E+00 0. -1.
          1   -1    0    0  501    0 -0.00000000000E+00 -0.00000000000E+00 -0.10355835075E+04  0.10355835075E+04  0.00000000000E+00 0. -1.
         25    2    1    2    0    0 -0.11713519245E+02  0.41608158612E+02 -0.51621005206E+03  0.53288279198E+03  0.12499122668E+03 0.  0.
          2    1    1    2  501    0 -0.57218329081E+02 -0.30626024003E+02 -0.48692068293E+03  0.49122667069E+03  0.00000000000E+00 0. -1.
          1    1    1    2  502    0  0.68931848327E+02 -0.10982134609E+02  0.33494820255E+02  0.77421637662E+02  0.00000000000E+00 0. -1.
         22    1    3    3    0    0  0.50511656271E+02 -0.48431013190E+01 -0.14455901879E+03  0.15320637377E+03  0.00000000000E+00 0.  1.
         22    1    3    3    0    0 -0.62225175517E+02  0.46451259931E+02 -0.37165103327E+03  0.37967641821E+03  0.00000000000E+00 0.  1.
</event>
<event>
 7    1  0.6058736E-006  0.1139851E+03  0.7818608E-02  0.1402429E+00
          2   -1    0    0  502    0  0.00000000000E+00  0.00000000000E+00  0.30672907069E+02  0.30672907069E+02  0.00000000000E+00 0. -1.
          1   -1    0    0  501    0 -0.00000000000E+00 -0.00000000000E+00 -0.23816521240E+04  0.23816521240E+04  0.00000000000E+00 0. -1.
         25    2    1    2    0    0  0.31041052070E+02  0.13779037492E+03 -0.14104690441E+04  0.14230240778E+04  0.12499946871E+03 0.  0.
          2    1    1    2  501    0 -0.12316271673E+02 -0.27852754337E+02 -0.83571121259E+03  0.83626592500E+03  0.00000000000E+00 0. -1.
          1    1    1    2  502    0 -0.18724780397E+02 -0.10993762058E+03 -0.10479896022E+03  0.15303502829E+03  0.00000000000E+00 0. -1.
         22    1    3    3    0    0 -0.14679140343E+02  0.80146248062E+02 -0.11342958220E+04  0.11372184971E+04  0.00000000000E+00 0. -1.
         22    1    3    3    0    0  0.45720192414E+02  0.57644126857E+02 -0.27617322215E+03  0.28580558075E+03  0.00000000000E+00 0. -1.
</event>
<event>
 7    1  0.6058736E-006  0.1109931E+03  0.7818608E-02  0.1411245E+00
          2   -1    0    0  502    0  0.00000000000E+00  0.00000000000E+00  0.15697738642E+03  0.15697738642E+03  0.00000000000E+00 0. -1.
          1   -1    0    0  501    0 -0.00000000000E+00 -0.00000000000E+00 -0.18460910348E+04  0.18460910348E+04  0.00000000000E+00 0. -1.
         25    2    1    2    0    0  0.57448539025E+02  0.12090566127E+03 -0.62553710922E+03  0.65179668528E+03  0.12499492134E+03 0.  0.
          2    1    1    2  501    0  0.34688008297E+01 -0.28979899149E+02 -0.11860825174E+04  0.11864415726E+04  0.00000000000E+00 0. -1.
          1    1    1    2  502    0 -0.60917339855E+02 -0.91925762122E+02  0.12250597825E+03  0.16483016333E+03  0.00000000000E+00 0. -1.
         22    1    3    3    0    0  0.14596862836E+02  0.10185885743E+03 -0.56952462832E+03  0.57874571057E+03  0.00000000000E+00 0.  1.
         22    1    3    3    0    0  0.42851676189E+02  0.19046803846E+02 -0.56012480909E+02  0.73050974713E+02  0.00000000000E+00 0.  1.
</event>
<event>
 7    1  0.6058736E-006  0.1374652E+03  0.7818608E-02  0.1226993E+00
          2   -1    0    0  502    0  0.00000000000E+00  0.00000000000E+00  0.90206806489E+03  0.90206806489E+03  0.00000000000E+00 0. -1.
          1   -1    0    0  501    0 -0.00000000000E+00 -0.00000000000E+00 -0.18398584646E+04  0.18398584646E+04  0.00000000000E+00 0. -1.
         25    2    1    2    0    0  0.17018742679E+03 -0.13370196536E+03  0.38694419131E+00  0.24993106319E+03  0.12500164336E+03 0.  0.
          2    1    1    2  501    0 -0.12333644143E+03  0.69345461407E+01 -0.17069599714E+04  0.17114240590E+04  0.00000000000E+00 0. -1.
          1    1    1    2  502    0 -0.46850985359E+02  0.12676741922E+03  0.76878262755E+03  0.78057140726E+03  0.00000000000E+00 0. -1.
         22    1    3    3    0    0  0.18492255562E+03 -0.99348649883E+02 -0.12756638226E+02  0.21030748353E+03  0.00000000000E+00 0.  1.
         22    1    3    3    0    0 -0.14735128832E+02 -0.34353315477E+02  0.13143582417E+02  0.39623579656E+02  0.00000000000E+00 0.  1.
</event>
<event>
 7    1  0.6058736E-006  0.8078390E+02  0.7818608E-02  0.1429181E+00
          2   -1    0    0  502    0  0.00000000000E+00  0.00000000000E+00  0.98885938263E+03  0.98885938263E+03  0.00000000000E+00 0. -1.
          1   -1    0    0  501    0 -0.00000000000E+00 -0.00000000000E+00 -0.73964424497E+02  0.73964424497E+02  0.00000000000E+00 0. -1.
         25    2    1    2    0    0  0.10659706888E+03 -0.62903713918E+01  0.24022543105E+03  0.29109480669E+03  0.12500169956E+03 0.  0.
          2    1    1    2  501    0 -0.76981127683E+02 -0.12240388563E+02 -0.16501415427E+02  0.79675704218E+02  0.00000000000E+00 0. -1.
          1    1    1    2  502    0 -0.29615941195E+02  0.18530759955E+02  0.69117094251E+03  0.69205329622E+03  0.00000000000E+00 0. -1.
         22    1    3    3    0    0  0.39755656804E+02 -0.64416366437E+02  0.11636798830E+03  0.13882178940E+03  0.00000000000E+00 0.  1.
         22    1    3    3    0    0  0.66841412073E+02  0.58125995045E+02  0.12385744275E+03  0.15227301728E+03  0.00000000000E+00 0.  1.
</event>
<event>
 7    1  0.6058736E-006  0.8948667E+02  0.7818608E-02  0.1405712E+00
          2   -1    0    0  502    0  0.00000000000E+00  0.00000000000E+00  0.66077257673E+03  0.66077257673E+03  0.00000000000E+00 0. -1.
          1   -1    0    0  501    0 -0.00000000000E+00 -0.00000000000E+00 -0.20171796547E+03  0.20171796547E+03  0.00000000000E+00 0. -1.
         25    2    1    2    0    0 -0.41395764180E+02 -0.93816436980E+02  0.52521414742E+03  0.54953471312E+03  0.12499346840E+03 0.  0.
          2    1    1    2  501    0 -0.11446536626E+02  0.36027559429E+02 -0.17490890433E+03  0.17894729127E+03  0.00000000000E+00 0. -1.
          1    1    1    2  502    0  0.52842300806E+02  0.57788877551E+02  0.10874936818E+03  0.13400853780E+03  0.00000000000E+00 0. -1.
         22    1    3    3    0    0 -0.62585391171E+02 -0.13384759795E+02  0.12133435092E+03  0.13717910809E+03  0.00000000000E+00 0.  1.
         22    1    3    3    0    0  0.21189626991E+02 -0.80431677185E+02  0.40387979649E+03  0.41235560503E+03  0.00000000000E+00 0.  1.
</event>
<event>
 7    1  0.6058736E-006  0.8665994E+02  0.7818608E-02  0.1393608E+00
          2   -1    0    0  502    0  0.00000000000E+00  0.00000000000E+00  0.11847815993E+03  0.11847815993E+03  0.00000000000E+00 0. -1.
          1   -1    0    0  501    0 -0.00000000000E+00 -0.00000000000E+00 -0.71777130150E+03  0.71777130150E+03  0.00000000000E+00 0. -1.
         25    2    1    2    0    0 -0.70401533481E+02 -0.99195730488E+02 -0.13303243201E+03  0.21936542738E+03  0.12500957523E+03 0.  0.
          2    1    1    2  501    0  0.61829815606E+02  0.57095887165E+02 -0.53185461667E+03  0.53847209743E+03  0.00000000000E+00 0. -1.
          1    1    1    2  502    0  0.85717178747E+01  0.42099843323E+02  0.65593907119E+02  0.78411936631E+02  0.00000000000E+00 0. -1.
         22    1    3    3    0    0  0.19013115114E+02  0.56826287333E+01  0.87043779932E+01  0.21669264221E+02  0.00000000000E+00 0. -1.
         22    1    3    3    0    0 -0.89414648595E+02 -0.10487835922E+03 -0.14173681000E+03  0.19769616315E+03  0.00000000000E+00 0. -1.
</event>
<event>
 7    1  0.6058736E-006  0.1844221E+03  0.7818608E-02  0.1373423E+00
          2   -1    0    0  502    0  0.00000000000E+00  0.00000000000E+00  0.13691190461E+04  0.13691190461E+04  0.00000000000E+00 0. -1.
          1   -1    0    0  501    0 -0.00000000000E+00 -0.00000000000E+00 -0.15158678062E+03  0.15158678062E+03  0.00000000000E+00 0. -1.
         25    2    1    2    0    0 -0.13524995274E+03 -0.10517451285E+03  0.80530140632E+03  0.83276035918E+03  0.12500093175E+03 0.  0.
          2    1    1    2  501    0  0.15777322688E+03  0.97543867236E+02 -0.75039404143E+02  0.20009525064E+03  0.00000000000E+00 0. -1.
          1    1    1    2  502    0 -0.22523274145E+02  0.76306456148E+01  0.48727026332E+03  0.48785021692E+03  0.00000000000E+00 0. -1.
         22    1    3    3    0    0 -0.68268974872E+02 -0.27925756618E+02  0.12756013951E+03  0.14735022906E+03  0.00000000000E+00 0. -1.
         22    1    3    3    0    0 -0.66980977864E+02 -0.77248756233E+02  0.67774126681E+03  0.68541013012E+03  0.00000000000E+00 0. -1.
</event>
<event>
 7    1  0.6058736E-006  0.1289269E+03  0.7818608E-02  0.1229969E+00
          2   -1    0    0  502    0  0.00000000000E+00  0.00000000000E+00  0.52810326066E+03  0.52810326066E+03  0.00000000000E+00 0. -1.
          1   -1    0    0  501    0 -0.00000000000E+00 -0.00000000000E+00 -0.59318075583E+03  0.59318075583E+03  0.00000000000E+00 0. -1.
         25    2    1    2    0    0  0.89728080363E+01 -0.90971441664E+01 -0.18851875774E+03  0.22655514037E+03  0.12499856116E+03 0.  0.
          2    1    1    2  501    0  0.12255407208E+03  0.35945908633E+02 -0.36577405583E+03  0.38743034064E+03  0.00000000000E+00 0. -1.
          1    1    1    2  502    0 -0.13152688011E+03 -0.26848764466E+02  0.48921531840E+03  0.50729853548E+03  0.00000000000E+00 0. -1.
         22    1    3    3    0    0  0.57398491983E+02  0.27203366487E+02 -0.11455278310E+03  0.13098454163E+03  0.00000000000E+00 0.  1.
         22    1    3    3    0    0 -0.48425683946E+02 -0.36300510653E+02 -0.73965974643E+02  0.95570598743E+02  0.00000000000E+00 0.  1.
</event>
<event>
 7    1  0.6058736E-006  0.8448282E+02  0.7818608E-02  0.1375479E+00
          2   -1    0    0  502    0  0.00000000000E+00  0.00000000000E+00  0.16917038090E+03  0.16917038090E+03  0.00000000000E+00 0. -1.
          1   -1    0    0  501    0 -0.00000000000E+00 -0.00000000000E+00 -0.13923070199E+04  0.13923070199E+04  0.00000000000E+00 0. -1.
         25    2    1    2    0    0 -0.91663867905E+02  0.95452565462E+02 -0.15008597552E+03  0.23594729111E+03  0.12502746578E+03 0.  0.
          2    1    1    2  501    0  0.64258412236E+02 -0.52391458308E+02 -0.11926322270E+04  0.11955106178E+04  0.00000000000E+00 0. -1.
          1    1    1    2  502    0  0.27405455669E+02 -0.43061107154E+02  0.11958156348E+03  0.13001949190E+03  0.00000000000E+00 0. -1.
         22    1    3    3    0    0 -0.43207983561E+02  0.11136366794E+02  0.12640931975E+02  0.46376089421E+02  0.00000000000E+00 0. -1.
         22    1    3    3    0    0 -0.48455884345E+02  0.84316198669E+02 -0.16272690750E+03  0.18957120169E+03  0.00000000000E+00 0. -1.
</event>
<event>
 7    1  0.6058736E-006  0.9551624E+02  0.7818608E-02  0.1378697E+00
          2   -1    0    0  502    0  0.00000000000E+00  0.00000000000E+00  0.21135901165E+04  0.21135901165E+04  0.00000000000E+00 0. -1.
          1   -1    0    0  501    0 -0.00000000000E+00 -0.00000000000E+00 -0.30297406291E+03  0.30297406291E+03  0.00000000000E+00 0. -1.
         25    2    1    2    0    0 -0.39004891720E+02  0.96415252879E+02 -0.73226902939E+02  0.17833742902E+03  0.12499910683E+03 0.  0.
          2    1    1    2  501    0  0.43960056816E+02 -0.10173494073E+01 -0.17333835915E+03  0.17882871232E+03  0.00000000000E+00 0. -1.
          1    1    1    2  502    0 -0.49551650959E+01 -0.95397903471E+02  0.20571813157E+04  0.20593980380E+04  0.00000000000E+00 0. -1.
         22    1    3    3    0    0  0.12311849254E+02 -0.18828000887E+02 -0.43130338277E+02  0.48644643378E+02  0.00000000000E+00 0. -1.
         22    1    3    3    0    0 -0.51316740974E+02  0.11524325377E+03 -0.30096564662E+02  0.12969278564E+03  0.00000000000E+00 0. -1.
</event>
<event>
 7    1  0.6058736E-006  0.9700811E+02  0.7818608E-02  0.1342117E+00
          2   -1    0    0  502    0  0.00000000000E+00  0.00000000000E+00  0.19274572197E+04  0.19274572197E+04  0.00000000000E+00 0. -1.
          1   -1    0    0  501    0 -0.00000000000E+00 -0.00000000000E+00 -0.18748324632E+03  0.18748324632E+03  0.00000000000E+00 0. -1.
         25    2    1    2    0    0  0.54227652917E+02  0.92953250089E+01  0.32988021238E+03  0.35703379731E+03  0.12500054599E+03 0.  0.
          2    1    1    2  501    0  0.44317597306E+02 -0.38748814912E+02 -0.16720119889E+03  0.17726184304E+03  0.00000000000E+00 0. -1.
          1    1    1    2  502    0 -0.98545250223E+02  0.29453489903E+02  0.15772949599E+04  0.15806448257E+04  0.00000000000E+00 0. -1.
         22    1    3    3    0    0  0.86295709224E+02  0.34363066978E+02  0.26088135635E+03  0.27692390994E+03  0.00000000000E+00 0.  1.
         22    1    3    3    0    0 -0.32068056308E+02 -0.25067741969E+02  0.68998856026E+02  0.80109887378E+02  0.00000000000E+00 0.  1.
</event>
<event>
 7    1  0.6058736E-006  0.1000858E+03  0.7818608E-02  0.1293270E+00
          2   -1    0    0  502    0  0.00000000000E+00  0.00000000000E+00  0.12724933335E+03  0.12724933335E+03  0.00000000000E+00 0. -1.
          1   -1    0    0  501    0 -0.00000000000E+00 -0.00000000000E+00 -0.12720712580E+04  0.12720712580E+04  0.00000000000E+00 0. -1.
         25    2    1    2    0    0  0.11365294058E+03  0.58633000070E+02 -0.33383104087E+03  0.37871256059E+03  0.12500088040E+03 0.  0.
          2    1    1    2  501    0 -0.96455953224E+02  0.28106504388E+02 -0.89381864440E+03  0.89944732785E+03  0.00000000000E+00 0. -1.
          1    1    1    2  502    0 -0.17196987352E+02 -0.86739504458E+02  0.82827760605E+02  0.12116070293E+03  0.00000000000E+00 0. -1.
         22    1    3    3    0    0  0.44972148764E+02 -0.23364729855E+02 -0.20547120465E+03  0.21162896944E+03  0.00000000000E+00 0.  1.
         22    1    3    3    0    0  0.68680791811E+02  0.81997729925E+02 -0.12835983622E+03  0.16708359115E+03  0.00000000000E+00 0.  1.
</event>
<event>
 7    1  0.7803921E-006  0.1450107E+03  0.7818608E-02  0.1378576E+00
          2   -1    0    0  502    0  0.00000000000E+00  0.00000000000E+00  0.12878214996E+04  0.12878214996E+04  0.00000000000E+00 0. -1.
          1   -1    0    0  501    0 -0.00000000000E+00 -0.00000000000E+00 -0.17092173056E+04  0.17092173056E+04  0.00000000000E+00 0. -1.
         25    2    1    2    0    0 -0.10659057565E+02  0.12119191321E+03 -0.57588233538E+03  0.60171967208E+03  0.12500001691E+03 0.  0.
          2    1    1    2  501    0  0.16449024282E+02  0.23874128949E+02 -0.11160942517E+04  0.11164707444E+04  0.00000000000E+00 0. -1.
          1    1    1    2  502    0 -0.57899667169E+01 -0.14506604215E+03  0.12705807810E+04  0.12788483887E+04  0.00000000000E+00 0. -1.
         22    1    3    3    0    0 -0.34402453083E+02  0.55191576254E+02 -0.91344825956E+02  0.11213169087E+03  0.00000000000E+00 0.  1.
         22    1    3    3    0    0  0.23743395517E+02  0.66000336952E+02 -0.48453750943E+03  0.48958798121E+03  0.00000000000E+00 0.  1.
</event>
<event>
 7    1  0.6058736E-006  0.8538021E+02  0.7818608E-02  0.1423022E+00
          2   -1    0    0  502    0  0.00000000000E+00  0.00000000000E+00  0.16893613612E+04  0.16893613612E+04  0.00000000000E+00 0. -1.
          1   -1    0    0  501    0 -0.00000000000E+00 -0.00000000000E+00 -0.71375590959E+02  0.71375590959E+02  0.00000000000E+00 0. -1.
         25    2    1    2    0    0 -0.50269300996E+02 -0.10641814579E+03  0.37583884492E+03  0.41319750093E+03  0.12500205217E+03 0.  0.
          2    1    1    2  501    0  0.13998489364E+02  0.31689796082E+02 -0.45515714323E+02  0.57200359532E+02  0.00000000000E+00 0. -1.
          1    1    1    2  502    0  0.36270811633E+02  0.74728349711E+02  0.12876626396E+04  0.12903390917E+04  0.00000000000E+00 0. -1.
         22    1    3    3    0    0  0.16415408069E+02 -0.10149156391E+03  0.25764260678E+03  0.27739811823E+03  0.00000000000E+00 0. -1.
         22    1    3    3    0    0 -0.66684709065E+02 -0.49265818848E+01  0.11819623813E+03  0.13579938270E+03  0.00000000000E+00 0. -1.
</event>
<event>
 7    1  0.6058736E-006  0.6783879E+02  0.7818608E-02  0.1370242E+00
          2   -1    0    0  502    0  0.00000000000E+00  0.00000000000E+00  0.23141711335E+04  0.23141711335E+04  0.00000000000E+00 0. -1.
          1   -1    0    0  501    0 -0.00000000000E+00 -0.00000000000E+00 -0.18668010133E+03  0.18668010133E+03  0.00000000000E+00 0. -1.
         25    2    1    2    0    0 -0.85339738401E+01  0.10025311690E+03 -0.58496799083E+01  0.16056528538E+03  0.12499390368E+03 0.  0.
          2    1    1    2  501    0 -0.40017478355E+02 -0.52948090524E+02 -0.92260574125E+02  0.11365259523E+03  0.00000000000E+00 0. -1.
          1    1    1    2  502    0  0.48551452195E+02 -0.47305026373E+02  0.22256012862E+04  0.22266333542E+04  0.00000000000E+00 0. -1.
         22    1    3    3    0    0  0.21399713516E+02  0.11688851739E+03  0.16058613902E+02  0.11991143530E+03  0.00000000000E+00 0.  1.
         22    1    3    3    0    0 -0.29933687356E+02 -0.16635400493E+02 -0.21908293810E+02  0.40653850075E+02  0.00000000000E+00 0.  1.
</event>
<event>
 7    1  0.6058736E-006  0.8837590E+02  0.7818608E-02  0.1327019E+00
          2   -1    0    0  502    0  0.00000000000E+00  0.00000000000E+00  0.11679606119E+04  0.11679606119E+04  0.00000000000E+00 0. -1.
          1   -1    0    0  501    0 -0.00000000000E+00 -0.00000000000E+00 -0.92885221366E+03  0.92885221366E+03  0.00000000000E+00 0. -1.
         25    2    1    2    0    0  0.14606483988E+03  0.64865981770E+02  0.10383335959E+03  0.22791823190E+03  0.12499128301E+03 0.  0.
          2    1    1    2  501    0 -0.65921145064E+02 -0.33018854657E+02 -0.86338027839E+03  0.86652256015E+03  0.00000000000E+00 0. -1.
          1    1    1    2  502    0 -0.80143694811E+02 -0.31847127113E+02  0.99865531702E+03  0.10023720335E+04  0.00000000000E+00 0. -1.
         22    1    3    3    0    0 -0.11638226525E+02  0.79048005938E+01  0.49804802128E+02  0.51753768018E+02  0.00000000000E+00 0. -1.
         22    1    3    3    0    0  0.15770306640E+03  0.56961181177E+02  0.54028557462E+02  0.17616446388E+03  0.00000000000E+00 0. -1.
</event>
<event>
 7    1  0.6058736E-006  0.1977079E+03  0.7818608E-02  0.1235121E+00
          2   -1    0    0  502    0  0.00000000000E+00  0.00000000000E+00  0.74659928164E+03  0.74659928164E+03  0.00000000000E+00 0. -1.
          1   -1    0    0  501    0 -0.00000000000E+00 -0.00000000000E+00 -0.16571842854E+04  0.16571842854E+04  0.00000000000E+00 0. -1.
         25    2    1    2    0    0  0.21335407245E+03 -0.10739510020E+03 -0.38224334669E+03  0.46774947416E+03  0.12500370679E+03 0.  0.
          2    1    1    2  501    0 -0.18930341158E+03  0.32156627334E+02 -0.12224537082E+04  0.12374420791E+04  0.00000000000E+00 0. -1.
          1    1    1    2  502    0 -0.24050660870E+02  0.75238472870E+02  0.69411205119E+03  0.69859201377E+03  0.00000000000E+00 0. -1.
         22    1    3    3    0    0  0.78444708474E+02 -0.47292366615E+02 -0.26119298164E+03  0.27678857253E+03  0.00000000000E+00 0. -1.
         22    1    3    3    0    0  0.13490936397E+03 -0.60102733590E+02 -0.12105036506E+03  0.19096090163E+03  0.00000000000E+00 0. -1.
</event>
<event>
 7    1  0.6058736E-006  0.1369672E+03  0.7818608E-02  0.1414816E+00
          2   -1    0    0  502    0  0.00000000000E+00  0.00000000000E+00  0.23104466761E+03  0.23104466761E+03  0.00000000000E+00 0. -1.
          1   -1    0    0  501    0 -0.00000000000E+00 -0.00000000000E+00 -0.12162357065E+04  0.12162357065E+04  0.00000000000E+00 0. -1.
         25    2    1    2    0    0 -0.14014898004E+02 -0.12786105705E+03 -0.26936332220E+03  0.32361443290E+03  0.12499933822E+03 0.  0.
          2    1    1    2  501    0 -0.62827572884E+01  0.13868813664E+03 -0.91383819334E+03  0.92432359912E+03  0.00000000000E+00 0. -1.
          1    1    1    2  502    0  0.20297655292E+02 -0.10827079582E+02  0.19801047668E+03  0.19934234206E+03  0.00000000000E+00 0. -1.
         22    1    3    3    0    0 -0.47645128022E+02 -0.13075639641E+03 -0.17623444276E+03  0.22455705788E+03  0.00000000000E+00 0.  1.
         22    1    3    3    0    0  0.33630230018E+02  0.28953393560E+01 -0.93128879435E+02  0.99057375020E+02  0.00000000000E+00 0.  1.
</event>
<event>
 7    1  0.6058736E-006  0.8559832E+02  0.7818608E-02  0.1383546E+00
          2   -1    0    0  502    0  0.00000000000E+00  0.00000000000E+00  0.43385091961E+03  0.43385091961E+03  0.00000000000E+00 0. -1.
          1   -1    0    0  501    0 -0.00000000000E+00 -0.00000000000E+00 -0.83188363477E+03  0.83188363477E+03  0.00000000000E+00 0. -1.
         25    2    1    2    0    0  0.86813843252E+02 -0.32474965945E+02  0.26005011147E+03  0.30305171901E+03  0.12499206825E+03 0.  0.
          2    1    1    2  501    0 -0.84384021645E+02 -0.14629460778E+02 -0.80440248961E+03  0.80894873108E+03  0.00000000000E+00 0. -1.
          1    1    1    2  502    0 -0.24298216062E+01  0.47104426723E+02  0.14631966297E+03  0.15373410429E+03  0.00000000000E+00 0. -1.
         22    1    3    3    0    0 -0.24695661385E+02  0.51940978547E+01  0.10880306059E+02  0.27481546603E+02  0.00000000000E+00 0.  1.
         22    1    3    3    0    0  0.11150950464E+03 -0.37669063800E+02  0.24916980541E+03  0.27557017241E+03  0.00000000000E+00 0.  1.
</event>
<event>
 7    1  0.6058736E-006  0.8101686E+02  0.7818608E-02  0.1379221E+00
          2   -1    0    0  502    0  0.00000000000E+00  0.00000000000E+00  0.15677850019E+04  0.15677850019E+04  0.00000000000E+00 0. -1.
          1   -1    0    0  501    0 -0.00000000000E+00 -0.00000000000E+00 -0.25069298930E+03  0.25069298930E+03  0.00000000000E+00 0. -1.
         25    2    1    2    0    0  0.79145988613E+02  0.86060045178E+02 -0.14330174550E+03  0.22322687152E+03  0.12499770804E+03 0.  0.
          2    1    1    2  501    0 -0.50575952078E+02 -0.43067367934E+02 -0.50519551396E+02  0.83456277071E+02  0.00000000000E+00 0. -1.
          1    1    1    2  502    0 -0.28570036535E+02 -0.42992677244E+02  0.15109133095E+04  0.15117948426E+04  0.00000000000E+00 0. -1.
         22    1    3    3    0    0  0.19102531256E+02  0.10389702420E+03 -0.10909113652E+03  0.15185642695E+03  0.00000000000E+00 0.  1.
         22    1    3    3    0    0  0.60043457356E+02 -0.17836979022E+02 -0.34210608985E+02  0.71370444577E+02  0.00000000000E+00 0.  1.
</event>
<event>
 7    1  0.6058736E-006  0.3343836E+02  0.7818608E-02  0.1626159E+00
          2   -1    0    0  502    0  0.00000000000E+00  0.00000000000E+00  0.70710747774E+03  0.70710747774E+03  0.00000000000E+00 0. -1.
          1   -1    0    0  501    0 -0.00000000000E+00 -0.00000000000E+00 -0.38793441155E+03  0.38793441155E+03  0.00000000000E+00 0. -1.
         25    2    1    2    0    0  0.13353146973E+02  0.32269875775E+02  0.93814283943E+02  0.16009905715E+03  0.12494373459E+03 0.  0.
          2    1    1    2  501    0 -0.29373912790E+02 -0.16058605440E+02 -0.35377767711E+03  0.35535805941E+03  0.00000000000E+00 0. -1.
          1    1    1    2  502    0  0.16020765818E+02 -0.16211270334E+02  0.57913645936E+03  0.57958477273E+03  0.00000000000E+00 0. -1.
         22    1    3    3    0    0  0.54895999369E+02  0.49073620369E+02  0.24579275606E+02  0.77626875193E+02  0.00000000000E+00 0. -1.
         22    1    3    3    0    0 -0.41542852396E+02 -0.16803744594E+02  0.69235008337E+02  0.82472181959E+02  0.00000000000E+00 0. -1.
</event>
<event>
 7    1  0.6058736E-006  0.1057459E+03  0.7818608E-02  0.1358502E+00
          2   -1    0    0  502    0  0.00000000000E+00  0.00000000000E+00  0.13069461313E+04  0.13069461313E+04  0.00000000000E+00 0. -1.
          1   -1    0    0  501    0 -0.00000000000E+00 -0.00000000000E+00 -0.48347369103E+03  0.48347369103E+03  0.00000000000E+00 0. -1.
         25    2    1    2    0    0  0.14855220516E+03 -0.15555529350E+02 -0.32147757280E+03  0.37587952357E+03  0.12501141657E+03 0.  0.
          2    1    1    2  501    0 -0.46036090131E+02 -0.92790796351E+01 -0.12845693607E+03  0.13677209999E+03  0.00000000000E+00 0. -1.
          1    1    1    2  502    0 -0.10251611503E+03  0.24834608985E+02  0.12734069491E+04  0.12777681987E+04  0.00000000000E+00 0. -1.
         22    1    3    3    0    0 -0.15214926639E+02  0.18952664048E+02 -0.67256986402E+02  0.71513632875E+02  0.00000000000E+00 0. -1.
         22    1    3    3    0    0  0.16376713180E+03 -0.34508193398E+02 -0.25422058640E+03  0.30436589069E+03  0.00000000000E+00 0. -1.
</event>
<event>
 7    1  0.6058736E-006  0.5987921E+02  0.7818608E-02  0.1477666E+00
          2   -1    0    0  502    0  0.00000000000E+00  0.00000000000E+00  0.11693013540E+04  0.11693013540E+04  0.00000000000E+00 0. -1.
          1   -1    0    0  501    0 -0.00000000000E+00 -0.00000000000E+00 -0.38616913072E+03  0.38616913072E+03  0.00000000000E+00 0. -1.
         25    2    1    2    0    0  0.57782631339E+02 -0.32303024776E+02 -0.14664748896E+03  0.20374605621E+03  0.12499860603E+03 0.  0.
          2    1    1    2  501    0 -0.60065565331E+02 -0.64685634646E+00 -0.20645172639E+03  0.21501303656E+03  0.00000000000E+00 0. -1.
          1    1    1    2  502    0  0.22829339926E+01  0.32949881122E+02  0.11362314387E+04  0.11367113920E+04  0.00000000000E+00 0. -1.
         22    1    3    3    0    0  0.19618126093E+02 -0.18931450537E+02  0.19002113751E+02  0.33231777229E+02  0.00000000000E+00 0.  1.
         22    1    3    3    0    0  0.38164505246E+02 -0.13371574239E+02 -0.16564960271E+03  0.17051427898E+03  0.00000000000E+00 0.  1.
</event>
<event>
 7    1  0.6058736E-006  0.1063291E+03  0.7818608E-02  0.1327729E+00
          2   -1    0    0  502    0  0.00000000000E+00  0.00000000000E+00  0.95700517270E+03  0.95700517270E+03  0.00000000000E+00 0. -1.
          1   -1    0    0  501    0 -0.00000000000E+00 -0.00000000000E+00 -0.43159038272E+03  0.43159038272E+03  0.00000000000E+00 0. -1.
         25    2    1    2    0    0  0.89975939835E+02  0.43759459045E+02  0.43612763468E+03  0.46458885270E+03  0.12499971328E+03 0.  0.
          2    1    1    2  501    0 -0.10560874738E+03  0.15096393614E+02 -0.40865707111E+03  0.42235259013E+03  0.00000000000E+00 0. -1.
          1    1    1    2  502    0  0.15632807548E+02 -0.58855852659E+02  0.49794422641E+03  0.50165411259E+03  0.00000000000E+00 0. -1.
         22    1    3    3    0    0  0.60147286894E+02  0.87994817782E+02  0.30061552438E+03  0.31895215562E+03  0.00000000000E+00 0.  1.
         22    1    3    3    0    0  0.29828652941E+02 -0.44235358737E+02  0.13551211029E+03  0.14563669708E+03  0.00000000000E+00 0.  1.
</event>
<event>
 7    1  0.6058736E-006  0.7369330E+02  0.7818608E-02  0.1513305E+00
          2   -1    0    0  502    0  0.00000000000E+00  0.00000000000E+00  0.71892411871E+02  0.71892411871E+02  0.00000000000E+00 0. -1.
          1   -1    0    0  501    0 -0.00000000000E+00 -0.00000000000E+00 -0.11453009305E+04  0.11453009305E+04  0.00000000000E+00 0. -1.
         25    2    1    2    0    0 -0.51777984825E+02 -0.41775347000E+02 -0.31821982628E+03  0.34829898778E+03  0.12498875040E+03 0.  0.
          2    1    1    2  501    0  0.68738158076E+02  0.29433225367E+02 -0.80832065523E+03  0.81177184652E+03  0.00000000000E+00 0. -1.
          1    1    1    2  502    0 -0.16960173252E+02  0.12342121633E+02  0.53131962903E+02  0.57122508042E+02  0.00000000000E+00 0. -1.
         22    1    3    3    0    0 -0.45215467163E+02  0.20961223696E+02 -0.42631958022E+02  0.65584260416E+02  0.00000000000E+00 0. -1.
         22    1    3    3    0    0 -0.65625176621E+01 -0.62736570696E+02 -0.27558786826E+03  0.28271472737E+03  0.00000000000E+00 0. -1.
</event>
<event>
 7    1  0.6058736E-006  0.2974106E+03  0.7818608E-02  0.1170860E+00
          2   -1    0    0  502    0  0.00000000000E+00  0.00000000000E+00  0.87263931777E+03  0.87263931777E+03  0.00000000000E+00 0. -1.
          1   -1    0    0  501    0 -0.00000000000E+00 -0.00000000000E+00 -0.59076776234E+03  0.59076776234E+03  0.00000000000E+00 0. -1.
         25    2    1    2    0    0 -0.15971439268E+03 -0.19395982245E+03 -0.17444946401E+03  0.33043581999E+03  0.12500446267E+03 0.  0.
          2    1    1    2  501    0  0.24731694073E+03  0.25219584133E+03 -0.24109760634E+03  0.42766396545E+03  0.00000000000E+00 0. -1.
          1    1    1    2  502    0 -0.87602548057E+02 -0.58236018887E+02  0.69741862578E+03  0.70530729466E+03  0.00000000000E+00 0. -1.
         22    1    3    3    0    0 -0.16899377756E+03 -0.20228604662E+03 -0.17727107926E+03  0.31765323397E+03  0.00000000000E+00 0.  1.
         22    1    3    3    0    0  0.92793848800E+01  0.83262241733E+01  0.28216152501E+01  0.12782586020E+02  0.00000000000E+00 0.  1.
</event>
<event>
 7    1  0.6058736E-006  0.9061969E+02  0.7818608E-02  0.1379499E+00
          2   -1    0    0  502    0  0.00000000000E+00  0.00000000000E+00  0.28643074064E+03  0.28643074064E+03  0.00000000000E+00 0. -1.
          1   -1    0    0  501    0 -0.00000000000E+00 -0.00000000000E+00 -0.13181669114E+03  0.13181669114E+03  0.00000000000E+00 0. -1.
         25    2    1    2    0    0  0.39676092833E+02  0.45496857026E+02 -0.47385461402E+00  0.13881095100E+03  0.12499639690E+03 0.  0.
          2    1    1    2  501    0  0.46003655490E+02 -0.19544376748E+01 -0.40621059774E+02  0.61402171315E+02  0.00000000000E+00 0. -1.
          1    1    1    2  502    0 -0.85679748322E+02 -0.43542419352E+02  0.19570896389E+03  0.21803430946E+03  0.00000000000E+00 0. -1.
         22    1    3    3    0    0  0.57314435464E+02  0.36638482557E+01 -0.46697923733E+02  0.74020702358E+02  0.00000000000E+00 0.  1.
         22    1    3    3    0    0 -0.17638342631E+02  0.41833008771E+02  0.46224069119E+02  0.64790248645E+02  0.00000000000E+00 0.  1.
</event>
<event>
 7    1  0.6058736E-006  0.8649778E+02  0.7818608E-02  0.1370015E+00
          2   -1    0    0  502    0  0.00000000000E+00  0.00000000000E+00  0.95608580161E+03  0.95608580161E+03  0.00000000000E+00 0. -1.
          1   -1    0    0  501    0 -0.00000000000E+00 -0.00000000000E+00 -0.75185500033E+02  0.75185500033E+02  0.00000000000E+00 0. -1.
         25    2    1    2    0    0 -0.43510088696E+02  0.25175791126E+02  0.45114417199E+03  0.47083293179E+03  0.12500254983E+03 0.  0.
          2    1    1    2  501    0  0.89390519632E+02 -0.38413781565E+00 -0.32600154180E+02  0.95150315893E+02  0.00000000000E+00 0. -1.
          1    1    1    2  502    0 -0.45880430936E+02 -0.24791653310E+02  0.46235628377E+03  0.46528805396E+03  0.00000000000E+00 0. -1.
         22    1    3    3    0    0  0.33366127905E+02 -0.10154406288E+02  0.50630533404E+02  0.61480577187E+02  0.00000000000E+00 0.  1.
         22    1    3    3    0    0 -0.76876216602E+02  0.35330197414E+02  0.40051363858E+03  0.40935235460E+03  0.00000000000E+00 0.  1.
</event>
<event>
 7    1  0.6058736E-006  0.1448666E+03  0.7818608E-02  0.1306052E+00
          2   -1    0    0  502    0  0.00000000000E+00  0.00000000000E+00  0.48299813986E+03  0.48299813986E+03  0.00000000000E+00 0. -1.
          1   -1    0    0  501    0 -0.00000000000E+00 -0.00000000000E+00 -0.41761610299E+03  0.41761610299E+03  0.00000000000E+00 0. -1.
         25    2    1    2    0    0 -0.82296216880E+02  0.11488073676E+03 -0.16414508244E+03  0.25007216847E+03  0.12498892097E+03 0.  0.
          2    1    1    2  501    0  0.37863713964E+02 -0.14609222548E+03 -0.18144059587E+03  0.23600273094E+03  0.00000000000E+00 0. -1.
          1    1    1    2  502    0  0.44432502916E+02  0.31211488722E+02  0.41096771517E+03  0.41453934344E+03  0.00000000000E+00 0. -1.
         22    1    3    3    0    0 -0.22409561711E+02 -0.17684714496E+02  0.27522325952E+01  0.28679476410E+02  0.00000000000E+00 0.  1.
         22    1    3    3    0    0 -0.59886655169E+02  0.13256545125E+03 -0.16689731503E+03  0.22139269206E+03  0.00000000000E+00 0.  1.
</event>
<event>
 7    1  0.6058736E-006  0.1906256E+03  0.7818608E-02  0.1302005E+00
          2   -1    0    0  502    0  0.00000000000E+00  0.00000000000E+00  0.60037099266E+03  0.60037099266E+03  0.00000000000E+00 0. -1.
          1   -1    0    0  501    0 -0.00000000000E+00 -0.00000000000E+00 -0.15950201709E+03  0.15950201709E+03  0.00000000000E+00 0. -1.
         25    2    1    2    0    0  0.20072963782E+03 -0.81187476709E+01  0.19651492924E+02  0.23742322395E+03  0.12500121813E+03 0.  0.
          2    1    1    2  501    0 -0.14053604621E+02  0.40451728696E+02 -0.16184895466E+02  0.45779875476E+02  0.00000000000E+00 0. -1.
          1    1    1    2  502    0 -0.18667603320E+03 -0.32332981025E+02  0.43740237811E+03  0.47666991033E+03  0.00000000000E+00 0. -1.
         22    1    3    3    0    0  0.13542019387E+03 -0.22742209676E+02 -0.44868240504E+02  0.14446105362E+03  0.00000000000E+00 0. -1.
         22    1    3    3    0    0  0.65309443956E+02  0.14623462005E+02  0.64519733429E+02  0.92962170331E+02  0.00000000000E+00 0. -1.
</event>
<event>
 7    1  0.6058736E-006  0.8046495E+02  0.7818608E-02  0.1368713E+00
          2   -1    0    0  502    0  0.00000000000E+00  0.00000000000E+00  0.19134147823E+03  0.19134147823E+03  0.00000000000E+00 0. -1.
          1   -1    0    0  501    0 -0.00000000000E+00 -0.00000000000E+00 -0.19854246596E+04  0.19854246596E+04  0.00000000000E+00 0. -1.
         25    2    1    2    0    0  0.93490213115E+02 -0.95164164302E+02 -0.98991499102E+02  0.20789597398E+03  0.12499912395E+03 0.  0.
          2    1    1    2  501    0 -0.40174596914E+02  0.39965898936E+02 -0.18207495720E+04  0.18216312128E+04  0.00000000000E+00 0. -1.
          1    1    1    2  502    0 -0.53315616200E+02  0.55198265366E+02  0.12565788981E+03  0.14723895103E+03  0.00000000000E+00 0. -1.
         22    1    3    3    0    0  0.17782646486E+02 -0.55663747054E+02 -0.10721784889E+03  0.12210791282E+03  0.00000000000E+00 0.  1.
         22    1    3    3    0    0  0.75707566628E+02 -0.39500417248E+02  0.82263497852E+01  0.85788061165E+02  0.00000000000E+00 0.  1.
</event>
<event>
 7    1  0.6058736E-006  0.8031191E+02  0.7818608E-02  0.1397016E+00
          2   -1    0    0  502    0  0.00000000000E+00  0.00000000000E+00  0.23019828219E+04  0.23019828219E+04  0.00000000000E+00 0. -1.
          1   -1    0    0  501    0 -0.00000000000E+00 -0.00000000000E+00 -0.10627909864E+04  0.10627909864E+04  0.00000000000E+00 0. -1.
         25    2    1    2    0    0  0.30820944020E+02  0.42344490360E+02  0.28340366527E+03  0.31414322761E+03  0.12500137405E+03 0.  0.
          2    1    1    2  501    0 -0.63464674985E+01 -0.80245895511E+02 -0.10456200219E+04  0.10487139322E+04  0.00000000000E+00 0. -1.
          1    1    1    2  502    0 -0.24474476521E+02  0.37901405152E+02  0.20014081921E+04  0.20019166486E+04  0.00000000000E+00 0. -1.
         22    1    3    3    0    0  0.24435000402E+02  0.85724838778E+02  0.21670894034E+03  0.23432580321E+03  0.00000000000E+00 0. -1.
         22    1    3    3    0    0  0.63859436172E+01 -0.43380348419E+02  0.66694724928E+02  0.79817424401E+02  0.00000000000E+00 0. -1.
</event>
<event>
 7    1  0.6058736E-006  0.1756703E+03  0.7818608E-02  0.1257946E+00
          2   -1    0    0  502    0  0.00000000000E+00  0.00000000000E+00  0.17181612393E+04  0.17181612393E+04  0.00000000000E+00 0. -1.
          1   -1    0    0  501    0 -0.00000000000E+00 -0.00000000000E+00 -0.19612100511E+04  0.19612100511E+04  0.00000000000E+00 0. -1.
         25    2    1    2    0    0  0.14278052126E+03 -0.14183482105E+03  0.41281231631E+03  0.47596472911E+03  0.12500008461E+03 0.  0.
          2    1    1    2  501    0 -0.69180574389E+02 -0.14482374058E+02 -0.19231226753E+04  0.19244210858E+04  0.00000000000E+00 0. -1.
          1    1    1    2  502    0 -0.73599946874E+02  0.15631719511E+03  0.12672615472E+04  0.12789854755E+04  0.00000000000E+00 0. -1.
         22    1    3    3    0    0  0.13701547335E+03 -0.52157664102E+02  0.24159723055E+03  0.28260021881E+03  0.00000000000E+00 0. -1.
         22    1    3    3    0    0  0.57650479157E+01 -0.89677156946E+02  0.17121508576E+03  0.19336451031E+03  0.00000000000E+00 0. -1.
</event>
<event>
 7    1  0.6058736E-006  0.6956004E+02  0.7818608E-02  0.1382639E+00
          2   -1    0    0  502    0  0.00000000000E+00  0.00000000000E+00  0.85048561239E+03  0.85048561239E+03  0.00000000000E+00 0. -1.
          1   -1    0    0  501    0 -0.00000000000E+00 -0.00000000000E+00 -0.11283123881E+04  0.11283123881E+04  0.00000000000E+00 0. -1.
         25    2    1    2    0    0 -0.35682215058E+02  0.11655500784E+03 -0.92525639300E+03  0.94158513933E+03  0.12499956594E+03 0.  0.
          2    1    1    2  501    0 -0.23839653209E+01 -0.58422658974E+02 -0.18903271058E+03  0.19786929029E+03  0.00000000000E+00 0. -1.
          1    1    1    2  502    0  0.38066180379E+02 -0.58132348864E+02  0.83646232785E+03  0.83934357089E+03  0.00000000000E+00 0. -1.
         22    1    3    3    0    0 -0.46221514111E+02  0.40565633431E+02 -0.14414736487E+03  0.15671777749E+03  0.00000000000E+00 0.  1.
         22    1    3    3    0    0  0.10539299053E+02  0.75989374406E+02 -0.78110902813E+03  0.78486736183E+03  0.00000000000E+00 0.  1.
</event>
<event>
 7    1  0.6058736E-006  0.4154387E+02  0.7818608E-02  0.1508431E+00
          2   -1    0    0  502    0  0.00000000000E+00  0.00000000000E+00  0.39346353110E+03  0.39346353110E+03  0.00000000000E+00 0. -1.
          1   -1    0    0  501    0 -0.00000000000E+00 -0.00000000000E+00 -0.18704014490E+03  0.18704014490E+03  0.00000000000E+00 0. -1.
         25    2    1    2    0    0  0.92037651330E+01  0.36322730333E+02  0.71280151481E+02  0.14869376617E+03  0.12499970429E+03 0.  0.
          2    1    1    2  501    0 -0.38091256086E+02 -0.52839551204E+01 -0.14421390173E+03  0.14925318564E+03  0.00000000000E+00 0. -1.
          1    1    1    2  502    0  0.28887490953E+02 -0.31038775212E+02  0.27935713644E+03  0.28255672418E+03  0.00000000000E+00 0. -1.
         22    1    3    3    0    0 -0.11911689616E+02  0.67723839282E+02  0.84197947228E+02  0.10870925018E+03  0.00000000000E+00 0. -1.
         22    1    3    3    0    0  0.21115454749E+02 -0.31401108949E+02 -0.12917795747E+02  0.39984515996E+02  0.00000000000E+00 0. -1.
</event>
<event>
 7    1  0.6058736E-006  0.1011360E+03  0.7818608E-02  0.1304233E+00
          2   -1    0    0  502    0  0.00000000000E+00  0.00000000000E+00  0.61701524044E+03  0.61701524044E+03  0.00000000000E+00 0. -1.
          1   -1    0    0  501    0 -0.00000000000E+00 -0.00000000000E+00 -0.21410229759E+04  0.21410229759E+04  0.00000000000E+00 0. -1.
         25    2    1    2    0    0 -0.29910430837E+01  0.15363478163E+03 -0.16984709724E+03  0.26093193376E+03  0.12499938059E+03 0.  0.
          2    1    1    2  501    0  0.47371062526E+02 -0.88179090376E+02 -0.19215886119E+04  0.19241939515E+04  0.00000000000E+00 0. -1.
          1    1    1    2  502    0 -0.44380019443E+02 -0.65455691255E+02  0.56742797376E+03  0.57291233103E+03  0.00000000000E+00 0. -1.
         22    1    3    3    0    0  0.24884140438E+02  0.62997090896E+01 -0.84678959836E+02  0.88484083421E+02  0.00000000000E+00 0.  1.
         22    1    3    3    0    0 -0.27875183522E+02  0.14733507254E+03 -0.85168137403E+02  0.17244785034E+03  0.00000000000E+00 0.  1.
</event>
<event>
 7    1  0.6058736E-006  0.5983494E+02  0.7818608E-02  0.1497498E+00
          2   -1    0    0  502    0  0.00000000000E+00  0.00000000000E+00  0.49438634997E+03  0.49438634997E+03  0.00000000000E+00 0. -1.
          1   -1    0    0  501    0 -0.00000000000E+00 -0.00000000000E+00 -0.22714344086E+03  0.22714344086E+03  0.00000000000E+00 0. -1.
         25    2    1    2    0    0 -0.30898545099E+02  0.20728956395E+02 -0.68724035602E+02  0.14742919348E+03  0.12501185663E+03 0.  0.
          2    1    1    2  501    0  0.48070432183E+02 -0.43818197939E+02 -0.10968482688E+03  0.12752083033E+03  0.00000000000E+00 0. -1.
          1    1    1    2  502    0 -0.17171887084E+02  0.23089241544E+02  0.44565177159E+03  0.44657976701E+03  0.00000000000E+00 0. -1.
         22    1    3    3    0    0 -0.48849762385E+02 -0.42422360465E+02 -0.31539385406E+02  0.71977001774E+02  0.00000000000E+00 0.  1.
         22    1    3    3    0    0  0.17951217287E+02  0.63151316860E+02 -0.37184650196E+02  0.75452191707E+02  0.00000000000E+00 0.  1.
</event>
<event>
 7    1  0.6058736E-006  0.5263330E+02  0.7818608E-02  0.1503709E+00
          2   -1    0    0  502    0  0.00000000000E+00  0.00000000000E+00  0.10830898484E+04  0.10830898484E+04  0.00000000000E+00 0. -1.
          1   -1    0    0  501    0 -0.00000000000E+00 -0.00000000000E+00 -0.13291543129E+04  0.13291543129E+04  0.00000000000E+00 0. -1.
         25    2    1    2    0    0 -0.40882610040E+02 -0.58008983455E+02  0.65703797954E+03  0.67257791993E+03  0.12500288735E+03 0.  0.
          2    1    1    2  501    0  0.29939052714E+02  0.92870110360E+01 -0.13197071889E+04  0.13200794142E+04  0.00000000000E+00 0. -1.
          1    1    1    2  502    0  0.10943557326E+02  0.48721972419E+02  0.41660474490E+03  0.41958682715E+03  0.00000000000E+00 0. -1.
         22    1    3    3    0    0 -0.23733429623E+02  0.25793473790E+02  0.60354708033E+02  0.69794482257E+02  0.00000000000E+00 0. -1.
         22    1    3    3    0    0 -0.17149180417E+02 -0.83802457245E+02  0.59668327151E+03  0.60278343767E+03  0.00000000000E+00 0. -1.
</event>
<event>
 7    1  0.6058736E-006  0.5658218E+02  0.7818608E-02  0.1541584E+00
          2   -1    0    0  502    0  0.00000000000E+00  0.00000000000E+00  0.84342960758E+02  0.84342960758E+02  0.00000000000E+00 0. -1.
          1   -1    0    0  501    0 -0.00000000000E+00 -0.00000000000E+00 -0.41879619153E+03  0.41879619153E+03  0.00000000000E+00 0. -1.
         25    2    1    2    0    0 -0.31422478165E+02  0.57284946841E+02 -0.33858912320E+03  0.36679318668E+03  0.12500284067E+03 0.  0.
          2    1    1    2  501    0  0.22600569237E+02 -0.15646462522E+01 -0.52024671439E+02  0.56743284061E+02  0.00000000000E+00 0. -1.
          1    1    1    2  502    0  0.88219089281E+01 -0.55720300589E+02  0.56160563871E+02  0.79602681545E+02  0.00000000000E+00 0. -1.
         22    1    3    3    0    0 -0.26602833895E+02  0.62481272952E+02 -0.34825113798E+03  0.35481047807E+03  0.00000000000E+00 0. -1.
         22    1    3    3    0    0 -0.48196442699E+01 -0.51963261110E+01  0.96620147834E+01  0.11982708609E+02  0.00000000000E+00 0. -1.
</event>
<event>
 7    1  0.6058736E-006  0.1132478E+03  0.7818608E-02  0.1258175E+00
          2   -1    0    0  502    0  0.00000000000E+00  0.00000000000E+00  0.55770339487E+03  0.55770339487E+03  0.00000000000E+00 0. -1.
          1   -1    0    0  501    0 -0.00000000000E+00 -0.00000000000E+00 -0.16499176832E+03  0.16499176832E+03  0.00000000000E+00 0. -1.
         25    2    1    2    0    0 -0.27381620724E+02  0.10402757921E+02 -0.77373911750E+02  0.14990146019E+03  0.12500302005E+03 0.  0.
          2    1    1    2  501    0 -0.63539030559E+02 -0.89048034825E+02  0.25613236751E+02  0.11235122967E+03  0.00000000000E+00 0. -1.
          1    1    1    2  502    0  0.90920651282E+02  0.78645276904E+02  0.44447230155E+03  0.46044247334E+03  0.00000000000E+00 0. -1.
         22    1    3    3    0    0 -0.15310502313E+02 -0.32762801386E+02  0.20985114125E+02  0.41811333996E+02  0.00000000000E+00 0. -1.
         22    1    3    3    0    0 -0.12071118411E+02  0.43165559307E+02 -0.98359025874E+02  0.10809012620E+03  0.00000000000E+00 0. -1.
</event>
<event>
 7    1  0.6058736E-006  0.9263402E+02  0.7818608E-02  0.1335939E+00
          2   -1    0    0  502    0  0.00000000000E+00  0.00000000000E+00  0.25888707599E+03  0.25888707599E+03  0.00000000000E+00 0. -1.
          1   -1    0    0  501    0 -0.00000000000E+00 -0.00000000000E+00 -0.13420286811E+03  0.13420286811E+03  0.00000000000E+00 0. -1.
         25    2    1    2    0    0  0.51879178099E+02 -0.16277822996E+02  0.21702040411E+02  0.13802961818E+03  0.12499912118E+03 0.  0.
          2    1    1    2  501    0  0.19683446923E+02 -0.61992944611E+02 -0.40512310672E+02  0.76627740280E+02  0.00000000000E+00 0. -1.
          1    1    1    2  502    0 -0.71562625022E+02  0.78270767607E+02  0.14349447814E+03  0.17843258564E+03  0.00000000000E+00 0. -1.
         22    1    3    3    0    0  0.56624143046E+01 -0.66653528094E+02  0.21663893422E+01  0.66928685823E+02  0.00000000000E+00 0.  1.
         22    1    3    3    0    0  0.46216763795E+02  0.50375705099E+02  0.19535651069E+02  0.71100932361E+02  0.00000000000E+00 0.  1.
</event>
<event>
 7    1  0.6058736E-006  0.3974159E+02  0.7818608E-02  0.1527627E+00
          2   -1    0    0  502    0  0.00000000000E+00  0.00000000000E+00  0.32644761789E+03  0.32644761789E+03  0.00000000000E+00 0. -1.
          1   -1    0    0  501    0 -0.00000000000E+00 -0.00000000000E+00 -0.62143878345E+03  0.62143878345E+03  0.00000000000E+00 0. -1.
         25    2    1    2    0    0 -0.59565482827E+02  0.33296467473E+02 -0.39341517385E+03  0.41839810384E+03  0.12499909116E+03 0.  0.
          2    1    1    2  501    0  0.24821478972E+02 -0.26804373909E+02 -0.21297717320E+03  0.21608761321E+03  0.00000000000E+00 0. -1.
          1    1    1    2  502    0  0.34744003855E+02 -0.64920935633E+01  0.31140118149E+03  0.31340068429E+03  0.00000000000E+00 0. -1.
         22    1    3    3    0    0 -0.81715184024E+02  0.38013351708E+02 -0.38301933530E+03  0.39347960230E+03  0.00000000000E+00 0.  1.
         22    1    3    3    0    0  0.22149701197E+02 -0.47168842350E+01 -0.10395838544E+02  0.24918501540E+02  0.00000000000E+00 0.  1.
</event>
<event>
 7    1  0.6058736E-006  0.3149278E+02  0.7818608E-02  0.1598173E+00
          2   -1    0    0  502    0  0.00000000000E+00  0.00000000000E+00  0.59270770885E+03  0.59270770885E+03  0.00000000000E+00 0. -1.
          1   -1    0    0  501    0 -0.00000000000E+00 -0.00000000000E+00 -0.44706252114E+03  0.44706252114E+03  0.00000000000E+00 0. -1.
         25    2    1    2    0    0 -0.97614947074E+01  0.58415723117E+01  0.25167022470E+03  0.28123598015E+03  0.12500545501E+03 0.  0.
          2    1    1    2  501    0  0.91076236155E+01  0.27072553048E+02 -0.43097522488E+03  0.43192072929E+03  0.00000000000E+00 0. -1.
          1    1    1    2  502    0  0.65387109194E+00 -0.32914125360E+02  0.32495018789E+03  0.32661352055E+03  0.00000000000E+00 0. -1.
         22    1    3    3    0    0 -0.25204893506E+02 -0.51322043375E+02  0.71296192023E+02  0.91391387941E+02  0.00000000000E+00 0. -1.
         22    1    3    3    0    0  0.15443398799E+02  0.57163615687E+02  0.18037403268E+03  0.18984459221E+03  0.00000000000E+00 0. -1.
</event>
<event>
 7    1  0.6058736E-006  0.9738868E+02  0.7818608E-02  0.1436885E+00
          2   -1    0    0  502    0  0.00000000000E+00  0.00000000000E+00  0.61799023779E+03  0.61799023779E+03  0.00000000000E+00 0. -1.
          1   -1    0    0  501    0 -0.00000000000E+00 -0.00000000000E+00 -0.11345595770E+04  0.11345595770E+04  0.00000000000E+00 0. -1.
         25    2    1    2    0    0 -0.11671479536E+03 -0.42382533696E+02  0.17478012183E+03  0.24819012314E+03  0.12502649167E+03 0.  0.
          2    1    1    2  501    0  0.92420033298E+02  0.29838259389E+02 -0.10952436829E+04  0.10995410448E+04  0.00000000000E+00 0. -1.
          1    1    1    2  502    0  0.24294762065E+02  0.12544274308E+02  0.40389422192E+03  0.40481864679E+03  0.00000000000E+00 0. -1.
         22    1    3    3    0    0 -0.21560502184E+02  0.14809080307E+02  0.12289028317E+03  0.12564308900E+03  0.00000000000E+00 0.  1.
         22    1    3    3    0    0 -0.95154293178E+02 -0.57191614003E+02  0.51889838656E+02  0.12254703415E+03  0.00000000000E+00 0.  1.
</event>
<event>
 7    1  0.6058736E-006  0.6698899E+02  0.7818608E-02  0.1386725E+00
          2   -1    0    0  502    0  0.00000000000E+00  0.00000000000E+00  0.12470844822E+04  0.12470844822E+04  0.00000000000E+00 0. -1.
          1   -1    0    0  501    0 -0.00000000000E+00 -0.00000000000E+00 -0.18208146917E+02  0.18208146917E+02  0.00000000000E+00 0. -1.
         25    2    1    2    0    0  0.13358608442E+02 -0.68799243431E+01  0.61051851264E+03  0.62336475854E+03  0.12499992853E+03 0.  0.
          2    1    1    2  501    0  0.51367142966E+02 -0.42999319951E+02  0.12471589401E+03  0.14156828427E+03  0.00000000000E+00 0. -1.
          1    1    1    2  502    0 -0.64725751408E+02  0.49879244294E+02  0.49364192865E+03  0.50035958633E+03  0.00000000000E+00 0. -1.
         22    1    3    3    0    0 -0.36529299132E+02  0.38765782017E+02  0.35837333955E+03  0.36231012413E+03  0.00000000000E+00 0.  1.
         22    1    3    3    0    0  0.49887907574E+02 -0.45645706360E+02  0.25214517310E+03  0.26105463441E+03  0.00000000000E+00 0.  1.
</event>
<event>
 7    1  0.6058736E-006  0.1662972E+03  0.7818608E-02  0.1201850E+00
          2   -1    0    0  502    0  0.00000000000E+00  0.00000000000E+00  0.74496384920E+03  0.74496384920E+03  0.00000000000E+00 0. -1.
          1   -1    0    0  501    0 -0.00000000000E+00 -0.00000000000E+00 -0.16145455501E+04  0.16145455501E+04  0.00000000000E+00 0. -1.
         25    2    1    2    0    0  0.10133743975E+03 -0.12862980888E+03 -0.13668187338E+03  0.24722828920E+03  0.12499995218E+03 0.  0.
          2    1    1    2  501    0  0.25667631893E+02  0.16909326221E+03 -0.14109374013E+04  0.14212655308E+04  0.00000000000E+00 0. -1.
          1    1    1    2  502    0 -0.12700507164E+03 -0.40463453328E+02  0.67803757381E+03  0.69101557926E+03  0.00000000000E+00 0. -1.
         22    1    3    3    0    0  0.11011410787E+03 -0.10180254739E+03 -0.15331716582E+03  0.21446451628E+03  0.00000000000E+00 0. -1.
         22    1    3    3    0    0 -0.87766681209E+01 -0.26827261484E+02  0.16635292437E+02  0.32763772928E+02  0.00000000000E+00 0. -1.
</event>
<event>
 7    1  0.6058736E-006  0.1801575E+03  0.7818608E-02  0.1354915E+00
          2   -1    0    0  502    0  0.00000000000E+00  0.00000000000E+00  0.18047868762E+03  0.18047868762E+03  0.00000000000E+00 0. -1.
          1   -1    0    0  501    0 -0.00000000000E+00 -0.00000000000E+00 -0.12463945314E+04  0.12463945314E+04  0.00000000000E+00 0. -1.
         25    2    1    2    0    0  0.27740418536E+02 -0.19408683448E+03 -0.26389532338E+03  0.35171883688E+03  0.12500467342E+03 0.  0.
          2    1    1    2  501    0  0.17315163385E+02  0.22526874264E+02 -0.88066557760E+03  0.88112379069E+03  0.00000000000E+00 0. -1.
          1    1    1    2  502    0 -0.45055581921E+02  0.17155996022E+03  0.78645057162E+02  0.19403059148E+03  0.00000000000E+00 0. -1.
         22    1    3    3    0    0  0.64411951670E+02 -0.10778794881E+03 -0.20679912883E+03  0.24193598557E+03  0.00000000000E+00 0. -1.
         22    1    3    3    0    0 -0.36671533134E+02 -0.86298885676E+02 -0.57096194544E+02  0.10978285131E+03  0.00000000000E+00 0. -1.
</event>
<event>
 7    1  0.6058736E-006  0.7559744E+02  0.7818608E-02  0.1346864E+00
          2   -1    0    0  502    0  0.00000000000E+00  0.00000000000E+00  0.12956766905E+04  0.12956766905E+04  0.00000000000E+00 0. -1.
          1   -1    0    0  501    0 -0.00000000000E+00 -0.00000000000E+00 -0.68870600179E+03  0.68870600179E+03  0.00000000000E+00 0. -1.
         25    2    1    2    0    0  0.24835440665E+02 -0.37989316603E+01  0.34941802252E+03  0.37195490906E+03  0.12500507554E+03 0.  0.
          2    1    1    2  501    0 -0.11631616761E+02  0.75104889249E+02 -0.67389218637E+03  0.67816422624E+03  0.00000000000E+00 0. -1.
          1    1    1    2  502    0 -0.13203823904E+02 -0.71305957589E+02  0.93144485257E+03  0.93426355700E+03  0.00000000000E+00 0. -1.
         22    1    3    3    0    0  0.18024278440E+01 -0.29187739556E+02  0.33239874917E+03  0.33368263565E+03  0.00000000000E+00 0. -1.
         22    1    3    3    0    0  0.23033012821E+02  0.25388807895E+02  0.17019273354E+02  0.38272273403E+02  0.00000000000E+00 0. -1.
</event>
<event>
 7    1  0.6058736E-006  0.4683640E+03  0.7818608E-02  0.1160631E+00
          2   -1    0    0  502    0  0.00000000000E+00  0.00000000000E+00  0.45775015662E+03  0.45775015662E+03  0.00000000000E+00 0. -1.
          1   -1    0    0  501    0 -0.00000000000E+00 -0.00000000000E+00 -0.25921300340E+04  0.25921300340E+04  0.00000000000E+00 0. -1.
         25    2    1    2    0    0 -0.30816018636E+03  0.38787355348E+03 -0.12238390024E+04  0.13262036721E+04  0.12500272802E+03 0.  0.
          2    1    1    2  501    0 -0.31115868322E+02 -0.68408733655E+02 -0.11819860406E+04  0.11843728097E+04  0.00000000000E+00 0. -1.
          1    1    1    2  502    0  0.33927605468E+03 -0.31946481983E+03  0.27144516569E+03  0.53930370884E+03  0.00000000000E+00 0. -1.
         22    1    3    3    0    0 -0.29125887169E+03  0.29188113725E+03 -0.10225325511E+04  0.11025421292E+04  0.00000000000E+00 0.  1.
         22    1    3    3    0    0 -0.16901314673E+02  0.95992416226E+02 -0.20130645132E+03  0.22366154286E+03  0.00000000000E+00 0.  1.
</event>
<event>
 7    1  0.6058736E-006  0.4444789E+02  0.7818608E-02  0.1583211E+00
          2   -1    0    0  502    0  0.00000000000E+00  0.00000000000E+00  0.10920622409E+03  0.10920622409E+03  0.00000000000E+00 0. -1.
          1   -1    0    0  501    0 -0.00000000000E+00 -0.00000000000E+00 -0.47943257154E+03  0.47943257154E+03  0.00000000000E+00 0. -1.
         25    2    1    2    0    0  0.22674200880E+02  0.26018986672E+02 -0.16359786322E+02  0.13070644361E+03  0.12500169895E+03 0.  0.
          2    1    1    2  501    0 -0.11502307104E+02  0.18951080058E+02 -0.39521071080E+03  0.39583197500E+03  0.00000000000E+00 0. -1.
          1    1    1    2  502    0 -0.11171893776E+02 -0.44970066731E+02  0.41344149676E+02  0.62100377010E+02  0.00000000000E+00 0. -1.
         22    1    3    3    0    0 -0.28555925852E+02  0.13837786919E+02 -0.56291791769E+02  0.64619587345E+02  0.00000000000E+00 0. -1.
         22    1    3    3    0    0  0.51230126732E+02  0.12181199753E+02  0.39932005447E+02  0.66086856269E+02  0.00000000000E+00 0. -1.
</event>
<event>
 7    1  0.6058736E-006  0.5174698E+02  0.7818608E-02  0.1462617E+00
          2   -1    0    0  502    0  0.00000000000E+00  0.00000000000E+00  0.17995332062E+04  0.17995332062E+04  0.00000000000E+00 0. -1.
          1   -1    0    0  501    0 -0.00000000000E+00 -0.00000000000E+00 -0.18398088742E+03  0.18398088742E+03  0.00000000000E+00 0. -1.
         25    2    1    2    0    0  0.30183220738E+02  0.15724978186E+02  0.36268050057E+03  0.38512080582E+03  0.12499035094E+03 0.  0.
          2    1    1    2  501    0 -0.46414688799E+02  0.23627702673E+02 -0.16850947303E+03  0.17637469822E+03  0.00000000000E+00 0. -1.
          1    1    1    2  502    0  0.16231468061E+02 -0.39352680859E+02  0.14213812913E+04  0.14220185896E+04  0.00000000000E+00 0. -1.
         22    1    3    3    0    0  0.75431033448E+02  0.18740645956E+02  0.16621712057E+03  0.18349164501E+03  0.00000000000E+00 0. -1.
         22    1    3    3    0    0 -0.45247812710E+02 -0.30156677698E+01  0.19646337999E+03  0.20162916080E+03  0.00000000000E+00 0. -1.
</event>
<event>
 7    1  0.6058736E-006  0.5547453E+02  0.7818608E-02  0.1451742E+00
          2   -1    0    0  502    0  0.00000000000E+00  0.00000000000E+00  0.78358502295E+03  0.78358502295E+03  0.00000000000E+00 0. -1.
          1   -1    0    0  501    0 -0.00000000000E+00 -0.00000000000E+00 -0.14464563075E+03  0.14464563075E+03  0.00000000000E+00 0. -1.
         25    2    1    2    0    0  0.67217596057E+02 -0.11133944403E+02  0.23276484298E+03  0.27285255071E+03  0.12500748925E+03 0.  0.
          2    1    1    2  501    0 -0.48268147111E+02 -0.27449765377E+02 -0.11749076765E+03  0.12995146835E+03  0.00000000000E+00 0. -1.
          1    1    1    2  502    0 -0.18949448946E+02  0.38583709780E+02  0.52366531687E+03  0.52542663462E+03  0.00000000000E+00 0. -1.
         22    1    3    3    0    0  0.51388073645E+02 -0.21817506361E+02  0.20105996082E+02  0.59337920213E+02  0.00000000000E+00 0.  1.
         22    1    3    3    0    0  0.15829522412E+02  0.10683561958E+02  0.21265884689E+03  0.21351463050E+03  0.00000000000E+00 0.  1.
</event>
<event>
 7    1  0.6058736E-006  0.2065180E+03  0.7818608E-02  0.1232100E+00
          2   -1    0    0  502    0  0.00000000000E+00  0.00000000000E+00  0.24673790128E+03  0.24673790128E+03  0.00000000000E+00 0. -1.
          1   -1    0    0  501    0 -0.00000000000E+00 -0.00000000000E+00 -0.61678343607E+03  0.61678343607E+03  0.00000000000E+00 0. -1.
         25    2    1    2    0    0 -0.12193685976E+03  0.16108757267E+03  0.53185977639E+02  0.24345541147E+03  0.12499594121E+03 0.  0.
          2    1    1    2  501    0  0.17901972804E+03 -0.10793139476E+03 -0.48003436893E+03  0.52357448788E+03  0.00000000000E+00 0. -1.
          1    1    1    2  502    0 -0.57082868282E+02 -0.53156177914E+02  0.56802856498E+02  0.96491438004E+02  0.00000000000E+00 0. -1.
         22    1    3    3    0    0 -0.89780706585E+02  0.39420755172E+02  0.64086925715E+02  0.11713968269E+03  0.00000000000E+00 0.  1.
         22    1    3    3    0    0 -0.32156153176E+02  0.12166681750E+03 -0.10900948075E+02  0.12631572878E+03  0.00000000000E+00 0.  1.
</event>
<event>
 7    1  0.6058736E-006  0.2556019E+03  0.7818608E-02  0.1220619E+00
          2   -1    0    0  502    0  0.00000000000E+00  0.00000000000E+00  0.30744987475E+03  0.30744987475E+03  0.00000000000E+00 0. -1.
          1   -1    0    0  501    0 -0.00000000000E+00 -0.00000000000E+00 -0.10383357009E+04  0.10383357009E+04  0.00000000000E+00 0. -1.
         25    2    1    2    0    0  0.27597906257E+03 -0.15667030187E+03 -0.10215275147E+03  0.35603908047E+03  0.12497446029E+03 0.  0.
          2    1    1    2  501    0 -0.21540061229E+03  0.11963160219E+03 -0.78250122075E+03  0.82037631883E+03  0.00000000000E+00 0. -1.
          1    1    1    2  502    0 -0.60578450286E+02  0.37038699681E+02  0.15376814603E+03  0.16937017638E+03  0.00000000000E+00 0. -1.
         22    1    3    3    0    0 -0.56440386057E+01 -0.15898947314E+01 -0.24640048398E+02  0.25328144861E+02  0.00000000000E+00 0. -1.
         22    1    3    3    0    0  0.28162310118E+03 -0.15508040714E+03 -0.77512703068E+02  0.33071093561E+03  0.00000000000E+00 0. -1.
</event>
<event>
 7    1  0.6058736E-006  0.7014399E+02  0.7818608E-02  0.1415135E+00
          2   -1    0    0  502    0  0.00000000000E+00  0.00000000000E+00  0.17789293695E+04  0.17789293695E+04  0.00000000000E+00 0. -1.
          1   -1    0    0  501    0 -0.00000000000E+00 -0.00000000000E+00 -0.58290345317E+02  0.58290345317E+02  0.00000000000E+00 0. -1.
         25    2    1    2    0    0 -0.10074941221E+03 -0.49990537223E+02  0.59923481234E+03  0.62237985430E+03  0.12499929940E+03 0.  0.
          2    1    1    2  501    0  0.63844604271E+02  0.24574932478E+02 -0.20996585836E+02  0.71560585643E+02  0.00000000000E+00 0. -1.
          1    1    1    2  502    0  0.36904807938E+02  0.25415604744E+02  0.11424007977E+04  0.11432792749E+04  0.00000000000E+00 0. -1.
         22    1    3    3    0    0  0.20587360286E+02 -0.36427482333E+02  0.22105111111E+03  0.22497643120E+03  0.00000000000E+00 0. -1.
         22    1    3    3    0    0 -0.12133677249E+03 -0.13563054889E+02  0.37818370123E+03  0.39740342310E+03  0.00000000000E+00 0. -1.
</event>
<event>
 7    1  0.6058736E-006  0.9681697E+02  0.7818608E-02  0.1303780E+00
          2   -1    0    0  502    0  0.00000000000E+00  0.00000000000E+00  0.30139393542E+04  0.30139393542E+04  0.00000000000E+00 0. -1.
          1   -1    0    0  501    0 -0.00000000000E+00 -0.00000000000E+00 -0.15312849565E+03  0.15312849565E+03  0.00000000000E+00 0. -1.
         25    2    1    2    0    0  0.22412148388E+02 -0.10135375446E+02  0.34527254063E+03  0.36802501633E+03  0.12499702039E+03 0.  0.
          2    1    1    2  501    0 -0.97593365395E+02 -0.24924107352E+02 -0.12312446040E+03  0.15907642455E+03  0.00000000000E+00 0. -1.
          1    1    1    2  502    0  0.75181217006E+02  0.35059482798E+02  0.26386627783E+04  0.26399664090E+04  0.00000000000E+00 0. -1.
         22    1    3    3    0    0 -0.51287980105E+02  0.40960184955E+01  0.11962912406E+03  0.13022427421E+03  0.00000000000E+00 0. -1.
         22    1    3    3    0    0  0.73700128493E+02 -0.14231393941E+02  0.22564341657E+03  0.23780074212E+03  0.00000000000E+00 0. -1.
</event>
<event>
 7    1  0.6058736E-006  0.8731619E+02  0.7818608E-02  0.1319778E+00
          2   -1    0    0  502    0  0.00000000000E+00  0.00000000000E+00  0.10531422013E+04  0.10531422013E+04  0.00000000000E+00 0. -1.
          1   -1    0    0  501    0 -0.00000000000E+00 -0.00000000000E+00 -0.92433239733E+02  0.92433239733E+02  0.00000000000E+00 0. -1.
         25    2    1    2    0    0  0.61194935020E+02 -0.31688173567E+02  0.19175892275E+03  0.23905356134E+03  0.12500464119E+03 0.  0.
          2    1    1    2  501    0 -0.11381011049E+02  0.93752803549E+02 -0.33446256774E+02  0.10018866043E+03  0.00000000000E+00 0. -1.
          1    1    1    2  502    0 -0.49813923971E+02 -0.62064629982E+02  0.80239629563E+03  0.80633321931E+03  0.00000000000E+00 0. -1.
         22    1    3    3    0    0  0.32038289482E+02  0.47272170854E+02  0.94650052541E+02  0.11054294449E+03  0.00000000000E+00 0. -1.
         22    1    3    3    0    0  0.29156645538E+02 -0.78960344422E+02  0.97108870206E+02  0.12851061685E+03  0.00000000000E+00 0. -1.
</event>
<event>
 7    1  0.6058736E-006  0.8293889E+02  0.7818608E-02  0.1328044E+00
          2   -1    0    0  502    0  0.00000000000E+00  0.00000000000E+00  0.14385077479E+04  0.14385077479E+04  0.00000000000E+00 0. -1.
          1   -1    0    0  501    0 -0.00000000000E+00 -0.00000000000E+00 -0.96983489613E+02  0.96983489613E+02  0.00000000000E+00 0. -1.
         25    2    1    2    0    0  0.69876505494E+02 -0.43143346717E+02  0.47213380697E+02  0.15683659764E+03  0.12499816262E+03 0.  0.
          2    1    1    2  501    0  0.65593159514E+01  0.77577090961E+02 -0.36976507731E+01  0.77941659521E+02  0.00000000000E+00 0. -1.
          1    1    1    2  502    0 -0.76435821446E+02 -0.34433744243E+02  0.12980085284E+04  0.13007129804E+04  0.00000000000E+00 0. -1.
         22    1    3    3    0    0 -0.14324779246E+02  0.26311568566E+02  0.36413026057E+02  0.47153010588E+02  0.00000000000E+00 0.  1.
         22    1    3    3    0    0  0.84201284741E+02 -0.69454915284E+02  0.10800354640E+02  0.10968358706E+03  0.00000000000E+00 0.  1.
</event>
<event>
 7    1  0.6058736E-006  0.2117915E+03  0.7818608E-02  0.1278957E+00
          2   -1    0    0  502    0  0.00000000000E+00  0.00000000000E+00  0.13305882659E+04  0.13305882659E+04  0.00000000000E+00 0. -1.
          1   -1    0    0  501    0 -0.00000000000E+00 -0.00000000000E+00 -0.60856971315E+03  0.60856971315E+03  0.00000000000E+00 0. -1.
         25    2    1    2    0    0 -0.84971614784E+01 -0.19191146098E+03 -0.32131809758E+03  0.39467864943E+03  0.12499482340E+03 0.  0.
          2    1    1    2  501    0 -0.45912920711E+02 -0.13377605359E+02 -0.23947657726E+03  0.24420480681E+03  0.00000000000E+00 0. -1.
          1    1    1    2  502    0  0.54410082190E+02  0.20528906634E+03  0.12828132276E+04  0.13002745228E+04  0.00000000000E+00 0. -1.
         22    1    3    3    0    0  0.31269347266E+02 -0.68947115672E+02 -0.41212159722E+02  0.86196977597E+02  0.00000000000E+00 0.  1.
         22    1    3    3    0    0 -0.39766508744E+02 -0.12296434531E+03 -0.28010593786E+03  0.30848167184E+03  0.00000000000E+00 0.  1.
</event>
<event>
 7    1  0.6058736E-006  0.1736994E+03  0.7818608E-02  0.1316852E+00
          2   -1    0    0  502    0  0.00000000000E+00  0.00000000000E+00  0.23554403137E+04  0.23554403137E+04  0.00000000000E+00 0. -1.
          1   -1    0    0  501    0 -0.00000000000E+00 -0.00000000000E+00 -0.58909196679E+03  0.58909196679E+03  0.00000000000E+00 0. -1.
         25    2    1    2    0    0 -0.15167782488E+03 -0.22774404272E+02  0.73777403404E+03  0.76384623306E+03  0.12500282559E+03 0.  0.
          2    1    1    2  501    0 -0.30745397891E+02  0.27226470615E+02 -0.57012707263E+03  0.57160426795E+03  0.00000000000E+00 0. -1.
          1    1    1    2  502    0  0.18242322277E+03 -0.44520663431E+01  0.15987013855E+04  0.16090817795E+04  0.00000000000E+00 0. -1.
         22    1    3    3    0    0 -0.62982792295E+02  0.51630813871E+02  0.27455584897E+03  0.28637997009E+03  0.00000000000E+00 0. -1.
         22    1    3    3    0    0 -0.88695032586E+02 -0.74405218142E+02  0.46321818508E+03  0.47746626297E+03  0.00000000000E+00 0. -1.
</event>
<event>
 7    1  0.6058736E-006  0.1147121E+03  0.7818608E-02  0.1420124E+00
          2   -1    0    0  502    0  0.00000000000E+00  0.00000000000E+00  0.60502648237E+03  0.60502648237E+03  0.00000000000E+00 0. -1.
          1   -1    0    0  501    0 -0.00000000000E+00 -0.00000000000E+00 -0.30837836704E+03  0.30837836704E+03  0.00000000000E+00 0. -1.
         25    2    1    2    0    0  0.88812698026E+01 -0.10153920242E+03 -0.14304119053E+03  0.21557972375E+03  0.12499899408E+03 0.  0.
          2    1    1    2  501    0  0.14733585474E+01  0.12578601621E+03 -0.98016917497E+02  0.15947290922E+03  0.00000000000E+00 0. -1.
          1    1    1    2  502    0 -0.10354628350E+02 -0.24246813796E+02  0.53770622336E+03  0.53835221644E+03  0.00000000000E+00 0. -1.
         22    1    3    3    0    0  0.29260955821E+02 -0.86515312558E+02 -0.16061083209E+03  0.18476185274E+03  0.00000000000E+00 0.  1.
         22    1    3    3    0    0 -0.20379686018E+02 -0.15023889860E+02  0.17569641561E+02  0.30817871006E+02  0.00000000000E+00 0.  1.
</event>
<event>
 7    1  0.6058736E-006  0.6139206E+02  0.7818608E-02  0.1403053E+00
          2   -1    0    0  502    0  0.00000000000E+00  0.00000000000E+00  0.83868427884E+03  0.83868427884E+03  0.00000000000E+00 0. -1.
          1   -1    0    0  501    0 -0.00000000000E+00 -0.00000000000E+00 -0.14856819295E+04  0.14856819295E+04  0.00000000000E+00 0. -1.
         25    2    1    2    0    0  0.54469455917E+02  0.74800950375E+02 -0.10747238700E+03  0.18904291602E+03  0.12499922529E+03 0.  0.
          2    1    1    2  501    0 -0.58240197878E+02 -0.18661037523E+02 -0.13357318026E+04  0.13371311093E+04  0.00000000000E+00 0. -1.
          1    1    1    2  502    0  0.37707419609E+01 -0.56139912852E+02  0.79620653897E+03  0.79819218300E+03  0.00000000000E+00 0. -1.
         22    1    3    3    0    0  0.55315547632E+02  0.70825964491E+02 -0.88113493006E+01  0.90298211125E+02  0.00000000000E+00 0.  1.
         22    1    3    3    0    0 -0.84609171520E+00  0.39749858846E+01 -0.98661037701E+02  0.98744704892E+02  0.00000000000E+00 0.  1.
</event>
<event>
 7    1  0.6058736E-006  0.4730999E+02  0.7818608E-02  0.1512033E+00
          2   -1    0    0  502    0  0.00000000000E+00  0.00000000000E+00  0.50839308614E+02  0.50839308614E+02  0.00000000000E+00 0. -1.
          1   -1    0    0  501    0 -0.00000000000E+00 -0.00000000000E+00 -0.13988799963E+04  0.13988799963E+04  0.00000000000E+00 0. -1.
         25    2    1    2    0    0  0.16622096748E+02 -0.75736009612E+02 -0.17126236628E+03  0.22575906152E+03  0.12499647397E+03 0.  0.
          2    1    1    2  501    0 -0.82121256615E+00  0.46816300162E+02 -0.11881698788E+04  0.11890921332E+04  0.00000000000E+00 0. -1.
          1    1    1    2  502    0 -0.15800884182E+02  0.28919709450E+02  0.11391557316E+02  0.34868110268E+02  0.00000000000E+00 0. -1.
         22    1    3    3    0    0 -0.25461803016E+02  0.15732628726E+02 -0.35437780975E+01  0.30139299637E+02  0.00000000000E+00 0.  1.
         22    1    3    3    0    0  0.42083899764E+02 -0.91468638338E+02 -0.16771858818E+03  0.19561976189E+03  0.00000000000E+00 0.  1.
</event>
<event>
 7    1  0.6058736E-006  0.1886522E+03  0.7818608E-02  0.1217729E+00
          2   -1    0    0  502    0  0.00000000000E+00  0.00000000000E+00  0.24513259882E+04  0.24513259882E+04  0.00000000000E+00 0. -1.
          1   -1    0    0  501    0 -0.00000000000E+00 -0.00000000000E+00 -0.21753726235E+04  0.21753726235E+04  0.00000000000E+00 0. -1.
         25    2    1    2    0    0  0.24921809190E+00 -0.26719000922E+03  0.17626938776E+03  0.34363550692E+03  0.12499560561E+03 0.  0.
          2    1    1    2  501    0 -0.49219790435E+02  0.18095429511E+03 -0.20863599793E+04  0.20947708725E+04  0.00000000000E+00 0. -1.
          1    1    1    2  502    0  0.48970572343E+02  0.86235714111E+02  0.21860439562E+04  0.21882922323E+04  0.00000000000E+00 0. -1.
         22    1    3    3    0    0 -0.11971834877E+02 -0.16944166182E+03  0.17672720755E+03  0.24512508538E+03  0.00000000000E+00 0.  1.
         22    1    3    3    0    0  0.12221052969E+02 -0.97748347394E+02 -0.45781979450E+00  0.98510421545E+02  0.00000000000E+00 0.  1.
</event>
<event>
 7    1  0.6058736E-006  0.2049280E+03  0.7818608E-02  0.1251290E+00
          2   -1    0    0  502    0  0.00000000000E+00  0.00000000000E+00  0.21933273010E+04  0.21933273010E+04  0.00000000000E+00 0. -1.
          1   -1    0    0  501    0 -0.00000000000E+00 -0.00000000000E+00 -0.14445206220E+04  0.14445206220E+04  0.00000000000E+00 0. -1.
         25    2    1    2    0    0  0.40320891676E+02  0.14022862158E+03  0.22300693581E+03  0.29435980514E+03  0.12500304336E+03 0.  0.
          2    1    1    2  501    0 -0.82032326901E+02 -0.18971697821E+03 -0.14007168175E+04  0.14158846836E+04  0.00000000000E+00 0. -1.
          1    1    1    2  502    0  0.41711435225E+02  0.49488356635E+02  0.19265165606E+04  0.19276034342E+04  0.00000000000E+00 0. -1.
         22    1    3    3    0    0  0.54598018757E+02  0.14042802379E+03  0.12629523377E+03  0.19659974463E+03  0.00000000000E+00 0. -1.
         22    1    3    3    0    0 -0.14277127081E+02 -0.19940221481E+00  0.96711702039E+02  0.97760060507E+02  0.00000000000E+00 0. -1.
</event>
<event>
 7    1  0.6058736E-006  0.6206104E+02  0.7818608E-02  0.1399130E+00
          2   -1    0    0  502    0  0.00000000000E+00  0.00000000000E+00  0.72169357220E+03  0.72169357220E+03  0.00000000000E+00 0. -1.
          1   -1    0    0  501    0 -0.00000000000E+00 -0.00000000000E+00 -0.20195842973E+04  0.20195842973E+04  0.00000000000E+00 0. -1.
         25    2    1    2    0    0 -0.43584264016E+02 -0.23322404949E+01  0.51078969139E+02  0.14191249497E+03  0.12500027090E+03 0.  0.
          2    1    1    2  501    0  0.31407990346E+02 -0.53774783892E+02 -0.19723569653E+04  0.19733398562E+04  0.00000000000E+00 0. -1.
          1    1    1    2  502    0  0.12176273670E+02  0.56107024386E+02  0.62338727111E+03  0.62602551834E+03  0.00000000000E+00 0. -1.
         22    1    3    3    0    0  0.26012968035E+02  0.36951656521E+02  0.41620790054E+02  0.61436060993E+02  0.00000000000E+00 0. -1.
         22    1    3    3    0    0 -0.69597232051E+02 -0.39283897016E+02  0.94581790854E+01  0.80476433976E+02  0.00000000000E+00 0. -1.
</event>
<event>
 7    1  0.6058736E-006  0.7044991E+02  0.7818608E-02  0.1368735E+00
          2   -1    0    0  502    0  0.00000000000E+00  0.00000000000E+00  0.11846616052E+04  0.11846616052E+04  0.00000000000E+00 0. -1.
          1   -1    0    0  501    0 -0.00000000000E+00 -0.00000000000E+00 -0.14088940413E+04  0.14088940413E+04  0.00000000000E+00 0. -1.
         25    2    1    2    0    0 -0.27685150522E+02  0.86080381482E+02  0.20219183403E+03  0.25433030622E+03  0.12500426905E+03 0.  0.
          2    1    1    2  501    0 -0.35424443105E+02 -0.54154857911E+02 -0.13807584484E+04  0.13822740439E+04  0.00000000000E+00 0. -1.
          1    1    1    2  502    0  0.63109593627E+02 -0.31925523572E+02  0.95433417824E+03  0.95695129637E+03  0.00000000000E+00 0. -1.
         22    1    3    3    0    0 -0.48873537009E+02  0.65503043192E+02  0.42859119450E+02  0.92283126341E+02  0.00000000000E+00 0. -1.
         22    1    3    3    0    0  0.21188386487E+02  0.20577338290E+02  0.15933271458E+03  0.16204717988E+03  0.00000000000E+00 0. -1.
</event>
<event>
 7    1  0.6058736E-006  0.5406302E+02  0.7818608E-02  0.1440168E+00
          2   -1    0    0  502    0  0.00000000000E+00  0.00000000000E+00  0.16569720179E+03  0.16569720179E+03  0.00000000000E+00 0. -1.
          1   -1    0    0  501    0 -0.00000000000E+00 -0.00000000000E+00 -0.45215529211E+03  0.45215529211E+03  0.00000000000E+00 0. -1.
         25    2    1    2    0    0 -0.60698161940E+01 -0.82629856103E+01 -0.72179611743E+02  0.14470702748E+03  0.12500043140E+03 0.  0.
          2    1    1    2  501    0 -0.45760486182E+02 -0.14680828153E+02 -0.33571216716E+03  0.33913449838E+03  0.00000000000E+00 0. -1.
          1    1    1    2  502    0  0.51830302376E+02  0.22943813764E+02  0.12143368858E+03  0.13401096804E+03  0.00000000000E+00 0. -1.
         22    1    3    3    0    0 -0.27174002035E+02  0.32394229333E+02  0.16104858201E+02  0.45245761552E+02  0.00000000000E+00 0. -1.
         22    1    3    3    0    0  0.21104185841E+02 -0.40657214943E+02 -0.88284469944E+02  0.99461265930E+02  0.00000000000E+00 0. -1.
</event>
<event>
 7    1  0.6058736E-006  0.1864030E+03  0.7818608E-02  0.1217464E+00
          2   -1    0    0  502    0  0.00000000000E+00  0.00000000000E+00  0.10255701720E+04  0.10255701720E+04  0.00000000000E+00 0. -1.
          1   -1    0    0  501    0 -0.00000000000E+00 -0.00000000000E+00 -0.58966164074E+03  0.58966164074E+03  0.00000000000E+00 0. -1.
         25    2    1    2    0    0 -0.61719417223E+02  0.99950434476E+02  0.42208667443E+02  0.17665073423E+03  0.12499813792E+03 0.  0.
          2    1    1    2  501    0  0.16054781222E+03 -0.11900237512E+03 -0.50040235576E+03  0.53883177611E+03  0.00000000000E+00 0. -1.
          1    1    1    2  502    0 -0.98828394995E+02  0.19051940641E+02  0.89410221959E+03  0.89974930241E+03  0.00000000000E+00 0. -1.
         22    1    3    3    0    0 -0.90619272695E+02  0.84683082361E+02  0.61770507667E+02  0.13855927482E+03  0.00000000000E+00 0. -1.
         22    1    3    3    0    0  0.28899855472E+02  0.15267352115E+02 -0.19561840224E+02  0.38091459408E+02  0.00000000000E+00 0. -1.
</event>
<event>
 7    1  0.6058736E-006  0.1982768E+03  0.7818608E-02  0.1297471E+00
          2   -1    0    0  502    0  0.00000000000E+00  0.00000000000E+00  0.36894345871E+03  0.36894345871E+03  0.00000000000E+00 0. -1.
          1   -1    0    0  501    0 -0.00000000000E+00 -0.00000000000E+00 -0.10808498160E+04  0.10808498160E+04  0.00000000000E+00 0. -1.
         25    2    1    2    0    0 -0.17042118658E+03  0.30724834522E+02 -0.18234292519E+03  0.28082126760E+03  0.12499698268E+03 0.  0.
          2    1    1    2  501    0  0.19386901447E+03 -0.66684307186E+02 -0.83537361988E+03  0.86016340098E+03  0.00000000000E+00 0. -1.
          1    1    1    2  502    0 -0.23447827884E+02  0.35959472664E+02  0.30581018774E+03  0.30880860615E+03  0.00000000000E+00 0. -1.
         22    1    3    3    0    0 -0.14087208103E+03  0.17677427736E+02 -0.59738024270E+02  0.15403267903E+03  0.00000000000E+00 0. -1.
         22    1    3    3    0    0 -0.29549105550E+02  0.13047406786E+02 -0.12260490092E+03  0.12678858857E+03  0.00000000000E+00 0. -1.
</event>
<event>
 7    1  0.6058736E-006  0.4134653E+02  0.7818608E-02  0.1509888E+00
          2   -1    0    0  502    0  0.00000000000E+00  0.00000000000E+00  0.15501076886E+03  0.15501076886E+03  0.00000000000E+00 0. -1.
          1   -1    0    0  501    0 -0.00000000000E+00 -0.00000000000E+00 -0.24956954393E+03  0.24956954393E+03  0.00000000000E+00 0. -1.
         25    2    1    2    0    0  0.50192668012E+01  0.93399730329E+01  0.51522714508E+02  0.13561665069E+03  0.12499943080E+03 0.  0.
          2    1    1    2  501    0  0.99485998296E+01  0.36943457501E+02 -0.19574344219E+03  0.19944745887E+03  0.00000000000E+00 0. -1.
          1    1    1    2  502    0 -0.14967866631E+02 -0.46283430534E+02  0.49661952606E+02  0.69516203220E+02  0.00000000000E+00 0. -1.
         22    1    3    3    0    0 -0.13432679788E+02  0.57155812837E+02 -0.54709488551E+01  0.58967407173E+02  0.00000000000E+00 0. -1.
         22    1    3    3    0    0  0.18451946589E+02 -0.47815839804E+02  0.56993663363E+02  0.76649243522E+02  0.00000000000E+00 0. -1.
</event>
<event>
 7    1  0.6058736E-006  0.5782143E+02  0.7818608E-02  0.1493132E+00
          2   -1    0    0  502    0  0.00000000000E+00  0.00000000000E+00  0.12630674375E+04  0.12630674375E+04  0.00000000000E+00 0. -1.
          1   -1    0    0  501    0 -0.00000000000E+00 -0.00000000000E+00 -0.13012020244E+04  0.13012020244E+04  0.00000000000E+00 0. -1.
         25    2    1    2    0    0  0.20293686954E+02 -0.29075771824E+02 -0.74832097462E+01  0.13015230001E+03  0.12500555401E+03 0.  0.
          2    1    1    2  501    0 -0.11699297391E+02 -0.28371996469E+02 -0.12314910617E+04  0.12318734021E+04  0.00000000000E+00 0. -1.
          1    1    1    2  502    0 -0.85943895629E+01  0.57447768293E+02  0.12008396846E+04  0.12022437597E+04  0.00000000000E+00 0. -1.
         22    1    3    3    0    0  0.84135583551E+01 -0.57556872251E+02  0.42061650756E+02  0.71782755394E+02  0.00000000000E+00 0.  1.
         22    1    3    3    0    0  0.11880128599E+02  0.28481100427E+02 -0.49544860502E+02  0.58369544621E+02  0.00000000000E+00 0.  1.
</event>
<event>
 7    1  0.6058736E-006  0.8379633E+02  0.7818608E-02  0.1372497E+00
          2   -1    0    0  502    0  0.00000000000E+00  0.00000000000E+00  0.84916131603E+03  0.84916131603E+03  0.00000000000E+00 0. -1.
          1   -1    0    0  501    0 -0.00000000000E+00 -0.00000000000E+00 -0.28675571951E+03  0.28675571951E+03  0.00000000000E+00 0. -1.
         25    2    1    2    0    0 -0.78333599578E+02  0.68444842277E+02  0.37180010364E+03  0.40581093710E+03  0.12500540127E+03 0.  0.
          2    1    1    2  501    0  0.82175805719E+02 -0.15846248721E+02 -0.26168988928E+03  0.27474636448E+03  0.00000000000E+00 0. -1.
          1    1    1    2  502    0 -0.38422061407E+01 -0.52598593556E+02  0.45229538216E+03  0.45535973396E+03  0.00000000000E+00 0. -1.
         22    1    3    3    0    0 -0.44397924830E+02  0.23396199206E+02  0.33438180119E+03  0.33812682064E+03  0.00000000000E+00 0. -1.
         22    1    3    3    0    0 -0.33935674748E+02  0.45048643071E+02  0.37418302450E+02  0.67684116464E+02  0.00000000000E+00 0. -1.
</event>
<event>
 7    1  0.6058736E-006  0.1589190E+03  0.7818608E-02  0.1358901E+00
          2   -1    0    0  502    0  0.00000000000E+00  0.00000000000E+00  0.64431050314E+03  0.64431050314E+03  0.00000000000E+00 0. -1.
          1   -1    0    0  501    0 -0.00000000000E+00 -0.00000000000E+00 -0.12087398759E+04  0.12087398759E+04  0.00000000000E+00 0. -1.
         25    2    1    2    0    0 -0.95093570887E+02  0.12943407392E+03 -0.16299624367E+03  0.26074736831E+03  0.12500179164E+03 0.  0.
          2    1    1    2  501    0  0.67558960075E+02 -0.14398712501E+03 -0.99010982384E+03  0.10028030557E+04  0.00000000000E+00 0. -1.
          1    1    1    2  502    0  0.27534610813E+02  0.14553051091E+02  0.58867669473E+03  0.58949995505E+03  0.00000000000E+00 0. -1.
         22    1    3    3    0    0 -0.11049613357E+03  0.14329027570E+03 -0.15591257129E+03  0.23885189664E+03  0.00000000000E+00 0. -1.
         22    1    3    3    0    0  0.15402562683E+02 -0.13856201779E+02 -0.70836723763E+01  0.21895471662E+02  0.00000000000E+00 0. -1.
</event>
<event>
 7    1  0.6058736E-006  0.1446496E+03  0.7818608E-02  0.1389838E+00
          2   -1    0    0  502    0  0.00000000000E+00  0.00000000000E+00  0.12533612350E+04  0.12533612350E+04  0.00000000000E+00 0. -1.
          1   -1    0    0  501    0 -0.00000000000E+00 -0.00000000000E+00 -0.37478933479E+03  0.37478933479E+03  0.00000000000E+00 0. -1.
         25    2    1    2    0    0 -0.35471479194E+02  0.15503650888E+03  0.37643871103E+03  0.42734724748E+03  0.12500008738E+03 0.  0.
          2    1    1    2  501    0  0.11477705481E+02 -0.14371848537E+03 -0.33423985221E+03  0.36400964213E+03  0.00000000000E+00 0. -1.
          1    1    1    2  502    0  0.23993773713E+02 -0.11318023512E+02  0.83637304144E+03  0.83679368023E+03  0.00000000000E+00 0. -1.
         22    1    3    3    0    0  0.30801021164E+02  0.62674789970E+02  0.63452045348E+02  0.94355679540E+02  0.00000000000E+00 0. -1.
         22    1    3    3    0    0 -0.66272500358E+02  0.92361718907E+02  0.31298666568E+03  0.33299156794E+03  0.00000000000E+00 0. -1.
</event>
<event>
 7    1  0.6058736E-006  0.5142120E+02  0.7818608E-02  0.1446429E+00
          2   -1    0    0  502    0  0.00000000000E+00  0.00000000000E+00  0.30955704828E+04  0.30955704828E+04  0.00000000000E+00 0. -1.
          1   -1    0    0  501    0 -0.00000000000E+00 -0.00000000000E+00 -0.68162990698E+02  0.68162990698E+02  0.00000000000E+00 0. -1.
         25    2    1    2    0    0  0.77454258705E+02  0.12739758665E+02  0.73920567549E+03  0.75379773919E+03  0.12499814914E+03 0.  0.
          2    1    1    2  501    0 -0.45570582375E+02  0.23445519503E+02 -0.49786678223E+02  0.71449868379E+02  0.00000000000E+00 0. -1.
          1    1    1    2  502    0 -0.31883676330E+02 -0.36185278168E+02  0.23379884948E+04  0.23384858659E+04  0.00000000000E+00 0. -1.
         22    1    3    3    0    0  0.29488612361E+02 -0.52543052100E+02  0.21167686431E+03  0.22008508688E+03  0.00000000000E+00 0.  1.
         22    1    3    3    0    0  0.47965646344E+02  0.65282810765E+02  0.52752881118E+03  0.53371265231E+03  0.00000000000E+00 0.  1.
</event>
<event>
 7    1  0.6058736E-006  0.8417419E+02  0.7818608E-02  0.1390588E+00
          2   -1    0    0  502    0  0.00000000000E+00  0.00000000000E+00  0.69597652909E+03  0.69597652909E+03  0.00000000000E+00 0. -1.
          1   -1    0    0  501    0 -0.00000000000E+00 -0.00000000000E+00 -0.97994630500E+02  0.97994630500E+02  0.00000000000E+00 0. -1.
         25    2    1    2    0    0  0.13353375772E+02 -0.55341545392E+02  0.29966918448E+03  0.32964806397E+03  0.12500090664E+03 0.  0.
          2    1    1    2  501    0 -0.19863057361E+02 -0.40730245137E+02 -0.70134715064E+02  0.83500731576E+02  0.00000000000E+00 0. -1.
          1    1    1    2  502    0  0.65096815888E+01  0.96071790529E+02  0.36844742918E+03  0.38082236404E+03  0.00000000000E+00 0. -1.
         22    1    3    3    0    0 -0.20665883436E+02 -0.48037009252E+02  0.35518186535E+02  0.63215303297E+02  0.00000000000E+00 0. -1.
         22    1    3    3    0    0  0.34019259208E+02 -0.73045361400E+01  0.26415099794E+03  0.26643276067E+03  0.00000000000E+00 0. -1.
</event>
<event>
 7    1  0.6058736E-006  0.7308257E+02  0.7818608E-02  0.1363896E+00
          2   -1    0    0  502    0  0.00000000000E+00  0.00000000000E+00  0.96040649352E+03  0.96040649352E+03  0.00000000000E+00 0. -1.
          1   -1    0    0  501    0 -0.00000000000E+00 -0.00000000000E+00 -0.17553847189E+03  0.17553847189E+03  0.00000000000E+00 0. -1.
         25    2    1    2    0    0 -0.12671940962E+03 -0.38131623353E+02  0.29962014432E+03  0.35058482668E+03  0.12500264136E+03 0.  0.
          2    1    1    2  501    0  0.71492454104E+02  0.39585392594E+01 -0.13973508355E+03  0.15701189319E+03  0.00000000000E+00 0. -1.
          1    1    1    2  502    0  0.55226955511E+02  0.34173084093E+02  0.62498296087E+03  0.62834824553E+03  0.00000000000E+00 0. -1.
         22    1    3    3    0    0 -0.13757205988E+03 -0.57274549710E+02  0.29102843232E+03  0.32696176248E+03  0.00000000000E+00 0. -1.
         22    1    3    3    0    0  0.10852650264E+02  0.19142926357E+02  0.85917119937E+01  0.23623064201E+02  0.00000000000E+00 0. -1.
</event>
<event>
 7    1  0.6058736E-006  0.2002686E+03  0.7818608E-02  0.1350387E+00
          2   -1    0    0  502    0  0.00000000000E+00  0.00000000000E+00  0.70263885961E+03  0.70263885961E+03  0.00000000000E+00 0. -1.
          1   -1    0    0  501    0 -0.00000000000E+00 -0.00000000000E+00 -0.10641964336E+04  0.10641964336E+04  0.00000000000E+00 0. -1.
         25    2    1    2    0    0  0.21555925306E+03 -0.10234788624E+01 -0.45494784413E+03  0.51871794102E+03  0.12499568942E+03 0.  0.
          2    1    1    2  501    0 -0.19233968493E+03 -0.11875991804E+02 -0.56100679072E+03  0.59318143330E+03  0.00000000000E+00 0. -1.
          1    1    1    2  502    0 -0.23219568126E+02  0.12899470666E+02  0.65439706082E+03  0.65493591893E+03  0.00000000000E+00 0. -1.
         22    1    3    3    0    0  0.41546765758E+02  0.14862004192E+01 -0.12715005608E+02  0.43474290152E+02  0.00000000000E+00 0. -1.
         22    1    3    3    0    0  0.17401248730E+03 -0.25096792816E+01 -0.44223283852E+03  0.47524365087E+03  0.00000000000E+00 0. -1.
</event>
<event>
 7    1  0.6058736E-006  0.4541766E+02  0.7818608E-02  0.1514771E+00
          2   -1    0    0  502    0  0.00000000000E+00  0.00000000000E+00  0.34708650941E+03  0.34708650941E+03  0.00000000000E+00 0. -1.
          1   -1    0    0  501    0 -0.00000000000E+00 -0.00000000000E+00 -0.12171831794E+04  0.12171831794E+04  0.00000000000E+00 0. -1.
         25    2    1    2    0    0  0.53039383637E+02  0.54039786674E+02  0.38248196530E+02  0.15106508926E+03  0.12499704755E+03 0.  0.
          2    1    1    2  501    0 -0.22825474197E+02 -0.39113881702E+02 -0.11592058904E+04  0.11600901664E+04  0.00000000000E+00 0. -1.
          1    1    1    2  502    0 -0.30213909440E+02 -0.14925904972E+02  0.25086102385E+03  0.25311443311E+03  0.00000000000E+00 0. -1.
         22    1    3    3    0    0 -0.18153327558E+02  0.70553050231E+02  0.15055256021E+02  0.74390435757E+02  0.00000000000E+00 0.  1.
         22    1    3    3    0    0  0.71192711195E+02 -0.16513263557E+02  0.23192940509E+02  0.76674653504E+02  0.00000000000E+00 0.  1.
</event>
<event>
 7    1  0.6058736E-006  0.8382586E+02  0.7818608E-02  0.1444561E+00
          2   -1    0    0  502    0  0.00000000000E+00  0.00000000000E+00  0.19721464362E+04  0.19721464362E+04  0.00000000000E+00 0. -1.
          1   -1    0    0  501    0 -0.00000000000E+00 -0.00000000000E+00 -0.89899512395E+02  0.89899512395E+02  0.00000000000E+00 0. -1.
         25    2    1    2    0    0 -0.44513516905E+02  0.98219673441E+02  0.10973877775E+03  0.19823014651E+03  0.12499613677E+03 0.  0.
          2    1    1    2  501    0  0.27185113396E+02 -0.73733975138E+02 -0.11615851948E+02  0.79439646880E+02  0.00000000000E+00 0. -1.
          1    1    1    2  502    0  0.17328403510E+02 -0.24485698303E+02  0.17841239980E+04  0.17843761552E+04  0.00000000000E+00 0. -1.
         22    1    3    3    0    0  0.18248512819E+02  0.31195172834E+02 -0.18426419135E+02  0.40566981037E+02  0.00000000000E+00 0.  1.
         22    1    3    3    0    0 -0.62762029724E+02  0.67024500606E+02  0.12816519688E+03  0.15766316548E+03  0.00000000000E+00 0.  1.
</event>
<event>
 7    1  0.6058736E-006  0.6048284E+02  0.7818608E-02  0.1458755E+00
          2   -1    0    0  502    0  0.00000000000E+00  0.00000000000E+00  0.16891120673E+04  0.16891120673E+04  0.00000000000E+00 0. -1.
          1   -1    0    0  501    0 -0.00000000000E+00 -0.00000000000E+00 -0.13091066852E+03  0.13091066852E+03  0.00000000000E+00 0. -1.
         25    2    1    2    0    0  0.52869014291E+02  0.83825151066E+01  0.47716265152E+02  0.14410723820E+03  0.12499861963E+03 0.  0.
          2    1    1    2  501    0 -0.55409168745E+02  0.28986739202E+02 -0.70642723906E+02  0.94344059015E+02  0.00000000000E+00 0. -1.
          1    1    1    2  502    0  0.25401544544E+01 -0.37369254309E+02  0.15811278576E+04  0.15815714386E+04  0.00000000000E+00 0. -1.
         22    1    3    3    0    0  0.63032317052E+02  0.15081103703E+02 -0.25676277324E+02  0.69712150297E+02  0.00000000000E+00 0. -1.
         22    1    3    3    0    0 -0.10163302761E+02 -0.66985885967E+01  0.73392542476E+02  0.74395087898E+02  0.00000000000E+00 0. -1.
</event>
<event>
 7    1  0.6058736E-006  0.1033400E+03  0.7818608E-02  0.1461973E+00
          2   -1    0    0  502    0  0.00000000000E+00  0.00000000000E+00  0.62513957005E+03  0.62513957005E+03  0.00000000000E+00 0. -1.
          1   -1    0    0  501    0 -0.00000000000E+00 -0.00000000000E+00 -0.89432648866E+03  0.89432648866E+03  0.00000000000E+00 0. -1.
         25    2    1    2    0    0  0.11028692436E+03 -0.41101413698E+01  0.10076261980E+03  0.19482650075E+03  0.12499664355E+03 0.  0.
          2    1    1    2  501    0 -0.87363653918E+01  0.19552730512E+02 -0.84163088750E+03  0.84190331045E+03  0.00000000000E+00 0. -1.
          1    1    1    2  502    0 -0.10155055897E+03 -0.15442589142E+02  0.47168134909E+03  0.48273624751E+03  0.00000000000E+00 0. -1.
         22    1    3    3    0    0 -0.23207191936E+01 -0.29169528660E+02 -0.13703986691E+02  0.32311706718E+02  0.00000000000E+00 0.  1.
         22    1    3    3    0    0  0.11260764355E+03  0.25059387290E+02  0.11446660649E+03  0.16251479403E+03  0.00000000000E+00 0.  1.
</event>
<event>
 7    1  0.6058736E-006  0.1294139E+03  0.7818608E-02  0.1251619E+00
          2   -1    0    0  502    0  0.00000000000E+00  0.00000000000E+00  0.24538678981E+04  0.24538678981E+04  0.00000000000E+00 0. -1.
          1   -1    0    0  501    0 -0.00000000000E+00 -0.00000000000E+00 -0.37389339768E+03  0.37389339768E+03  0.00000000000E+00 0. -1.
         25    2    1    2    0    0 -0.54764727442E+02 -0.48988284947E+02  0.13630287703E+04  0.13707192713E+04  0.12499945805E+03 0.  0.
          2    1    1    2  501    0  0.34122696481E+02 -0.12483424049E+03 -0.35138874438E+03  0.37446227539E+03  0.00000000000E+00 0. -1.
          1    1    1    2  502    0  0.20642030961E+02  0.17382252544E+03  0.10683344745E+04  0.10825797491E+04  0.00000000000E+00 0. -1.
         22    1    3    3    0    0 -0.57481709827E+02 -0.68667224214E+02  0.53430856239E+03  0.54176099388E+03  0.00000000000E+00 0.  1.
         22    1    3    3    0    0  0.27169823850E+01  0.19678939268E+02  0.82872020791E+03  0.82895827738E+03  0.00000000000E+00 0.  1.
</event>
<event>
 7    1  0.6058736E-006  0.9034247E+02  0.7818608E-02  0.1394745E+00
          2   -1    0    0  502    0  0.00000000000E+00  0.00000000000E+00  0.35543274132E+03  0.35543274132E+03  0.00000000000E+00 0. -1.
          1   -1    0    0  501    0 -0.00000000000E+00 -0.00000000000E+00 -0.15738900679E+03  0.15738900679E+03  0.00000000000E+00 0. -1.
         25    2    1    2    0    0  0.12033354351E+03  0.30794770604E+02  0.71533812870E+02  0.19018438441E+03  0.12499813638E+03 0.  0.
          2    1    1    2  501    0 -0.35233981207E+02 -0.20650522299E+02 -0.85066761734E+02  0.94362235322E+02  0.00000000000E+00 0. -1.
          1    1    1    2  502    0 -0.85099562302E+02 -0.10144248305E+02  0.21157668339E+03  0.22827512837E+03  0.00000000000E+00 0. -1.
         22    1    3    3    0    0  0.31689975046E+00  0.47733005849E+02 -0.31140224121E+01  0.47835524545E+02  0.00000000000E+00 0.  1.
         22    1    3    3    0    0  0.12001664376E+03 -0.16938235246E+02  0.74647835282E+02  0.14234885986E+03  0.00000000000E+00 0.  1.
</event>
<event>
 7    1  0.6058736E-006  0.1258631E+03  0.7818608E-02  0.1260441E+00
          2   -1    0    0  502    0  0.00000000000E+00  0.00000000000E+00  0.13431913950E+04  0.13431913950E+04  0.00000000000E+00 0. -1.
          1   -1    0    0  501    0 -0.00000000000E+00 -0.00000000000E+00 -0.78874837406E+03  0.78874837406E+03  0.00000000000E+00 0. -1.
         25    2    1    2    0    0 -0.20661467293E+03  0.46494753033E+02  0.12054669625E+03  0.27387611607E+03  0.12500094339E+03 0.  0.
          2    1    1    2  501    0  0.84217080011E+02 -0.46616199331E+02 -0.70553808769E+03  0.71207413925E+03  0.00000000000E+00 0. -1.
          1    1    1    2  502    0  0.12239759292E+03  0.12144629754E+00  0.11394344123E+04  0.11459895137E+04  0.00000000000E+00 0. -1.
         22    1    3    3    0    0 -0.16735980800E+03  0.14658630790E+01  0.13186956498E+03  0.21307518921E+03  0.00000000000E+00 0.  1.
         22    1    3    3    0    0 -0.39254864927E+02  0.45028889954E+02 -0.11322868728E+02  0.60800926861E+02  0.00000000000E+00 0.  1.
</event>
<event>
 7    1  0.6058736E-006  0.1521103E+03  0.7818608E-02  0.1232103E+00
          2   -1    0    0  502    0  0.00000000000E+00  0.00000000000E+00  0.24384134552E+04  0.24384134552E+04  0.00000000000E+00 0. -1.
          1   -1    0    0  501    0 -0.00000000000E+00 -0.00000000000E+00 -0.89761365408E+02  0.89761365408E+02  0.00000000000E+00 0. -1.
         25    2    1    2    0    0 -0.56108971611E+02  0.38434559314E+02  0.90412607497E+03  0.91525485545E+03  0.12498823520E+03 0.  0.
          2    1    1    2  501    0  0.71344057774E+02 -0.14322937351E+03 -0.44530496008E+01  0.16007641196E+03  0.00000000000E+00 0. -1.
          1    1    1    2  502    0 -0.15235086163E+02  0.10479481420E+03  0.14489790644E+04  0.14528435532E+04  0.00000000000E+00 0. -1.
         22    1    3    3    0    0 -0.91848952640E+01  0.32816930418E+02  0.80200497939E+03  0.80272865913E+03  0.00000000000E+00 0.  1.
         22    1    3    3    0    0 -0.46924076347E+02  0.56176288953E+01  0.10212109558E+03  0.11252619632E+03  0.00000000000E+00 0.  1.
</event>
<event>
 7    1  0.6058736E-006  0.5024989E+02  0.7818608E-02  0.1511691E+00
          2   -1    0    0  502    0  0.00000000000E+00  0.00000000000E+00  0.33183953495E+03  0.33183953495E+03  0.00000000000E+00 0. -1.
          1   -1    0    0  501    0 -0.00000000000E+00 -0.00000000000E+00 -0.92799526361E+02  0.92799526361E+02  0.00000000000E+00 0. -1.
         25    2    1    2    0    0 -0.26356355251E+02 -0.55417578814E+01  0.92173079691E+02  0.15762837616E+03  0.12500183922E+03 0.  0.
          2    1    1    2  501    0  0.50961672084E+02 -0.13476927893E+02 -0.47025100611E+02  0.70640496137E+02  0.00000000000E+00 0. -1.
          1    1    1    2  502    0 -0.24605316833E+02  0.19018685774E+02  0.19389202951E+03  0.19637018901E+03  0.00000000000E+00 0. -1.
         22    1    3    3    0    0  0.41011724784E+02 -0.34862824079E+02  0.46387596578E+02  0.71057632868E+02  0.00000000000E+00 0.  1.
         22    1    3    3    0    0 -0.67368080035E+02  0.29321066198E+02  0.45785483113E+02  0.86570743294E+02  0.00000000000E+00 0.  1.
</event>
<event>
 7    1  0.6058736E-006  0.6909788E+02  0.7818608E-02  0.1432332E+00
          2   -1    0    0  502    0  0.00000000000E+00  0.00000000000E+00  0.66579141161E+03  0.66579141161E+03  0.00000000000E+00 0. -1.
          1   -1    0    0  501    0 -0.00000000000E+00 -0.00000000000E+00 -0.36353947850E+03  0.36353947850E+03  0.00000000000E+00 0. -1.
         25    2    1    2    0    0 -0.88346893494E+02 -0.24979544537E+02 -0.92021913982E+02  0.18033863229E+03  0.12499935363E+03 0.  0.
          2    1    1    2  501    0  0.66712034411E+02 -0.85231450953E+01 -0.22172668007E+03  0.23170209363E+03  0.00000000000E+00 0. -1.
          1    1    1    2  502    0  0.21634859083E+02  0.33502689633E+02  0.61600052717E+03  0.61729016419E+03  0.00000000000E+00 0. -1.
         22    1    3    3    0    0 -0.55950174072E+02  0.27117571091E+02 -0.10073140956E+03  0.11837483480E+03  0.00000000000E+00 0. -1.
         22    1    3    3    0    0 -0.32396719422E+02 -0.52097115628E+02  0.87094955816E+01  0.61963797490E+02  0.00000000000E+00 0. -1.
</event>
<event>
 7    1  0.6058736E-006  0.5326885E+02  0.7818608E-02  0.1505348E+00
          2   -1    0    0  502    0  0.00000000000E+00  0.00000000000E+00  0.25673028757E+03  0.25673028757E+03  0.00000000000E+00 0. -1.
          1   -1    0    0  501    0 -0.00000000000E+00 -0.00000000000E+00 -0.25810491241E+04  0.25810491241E+04  0.00000000000E+00 0. -1.
         25    2    1    2    0    0 -0.20456234233E+02 -0.11955319890E+02 -0.41073736024E+03  0.42998923450E+03  0.12499670194E+03 0.  0.
          2    1    1    2  501    0  0.46566942566E+02  0.27964115766E+02 -0.21593939386E+04  0.21600770018E+04  0.00000000000E+00 0. -1.
          1    1    1    2  502    0 -0.26110708333E+02 -0.16008795876E+02  0.24581246227E+03  0.24771317535E+03  0.00000000000E+00 0. -1.
         22    1    3    3    0    0  0.34596126265E+02  0.34549824645E+02 -0.10429316684E+03  0.11518527243E+03  0.00000000000E+00 0. -1.
         22    1    3    3    0    0 -0.55052360498E+02 -0.46505144535E+02 -0.30644419341E+03  0.31480396207E+03  0.00000000000E+00 0. -1.
</event>
<event>
 7    1  0.6058736E-006  0.8278564E+02  0.7818608E-02  0.1322873E+00
          2   -1    0    0  502    0  0.00000000000E+00  0.00000000000E+00  0.10806218042E+04  0.10806218042E+04  0.00000000000E+00 0. -1.
          1   -1    0    0  501    0 -0.00000000000E+00 -0.00000000000E+00 -0.14221412355E+03  0.14221412355E+03  0.00000000000E+00 0. -1.
         25    2    1    2    0    0 -0.21389938557E+02 -0.55802812748E+02  0.62726300885E+03  0.64238252572E+03  0.12499977475E+03 0.  0.
          2    1    1    2  501    0  0.60917074157E+02 -0.54373568148E+02 -0.11358531020E+03  0.13988923308E+03  0.00000000000E+00 0. -1.
          1    1    1    2  502    0 -0.39527135600E+02  0.11017638090E+03  0.42472998197E+03  0.44056416893E+03  0.00000000000E+00 0. -1.
         22    1    3    3    0    0  0.16658102914E+02  0.35719765594E+02  0.17336696509E+03  0.17779060333E+03  0.00000000000E+00 0.  1.
         22    1    3    3    0    0 -0.38048041472E+02 -0.91522578342E+02  0.45389604376E+03  0.46459192239E+03  0.00000000000E+00 0.  1.
</event>
<event>
 7    1  0.6058736E-006  0.6514583E+02  0.7818608E-02  0.1450616E+00
          2   -1    0    0  502    0  0.00000000000E+00  0.00000000000E+00  0.20550653603E+04  0.20550653603E+04  0.00000000000E+00 0. -1.
          1   -1    0    0  501    0 -0.00000000000E+00 -0.00000000000E+00 -0.52922520671E+03  0.52922520671E+03  0.00000000000E+00 0. -1.
         25    2    1    2    0    0  0.49627609992E+02  0.46291028419E+02  0.15868650607E+03  0.21310131760E+03  0.12500002146E+03 0.  0.
          2    1    1    2  501    0 -0.32853335825E+02  0.16819961276E+02 -0.50076807697E+03  0.50212639811E+03  0.00000000000E+00 0. -1.
          1    1    1    2  502    0 -0.16774274167E+02 -0.63110989696E+02  0.18679217245E+04  0.18690628513E+04  0.00000000000E+00 0. -1.
         22    1    3    3    0    0  0.72236140447E+02  0.12966809883E+01  0.14324237112E+03  0.16043103893E+03  0.00000000000E+00 0.  1.
         22    1    3    3    0    0 -0.22608530455E+02  0.44994347431E+02  0.15444134949E+02  0.52670278663E+02  0.00000000000E+00 0.  1.
</event>
<event>
 7    1  0.6058736E-006  0.5303863E+02  0.7818608E-02  0.1495835E+00
          2   -1    0    0  502    0  0.00000000000E+00  0.00000000000E+00  0.98278112582E+03  0.98278112582E+03  0.00000000000E+00 0. -1.
          1   -1    0    0  501    0 -0.00000000000E+00 -0.00000000000E+00 -0.35264105501E+02  0.35264105501E+02  0.00000000000E+00 0. -1.
         25    2    1    2    0    0 -0.60462392292E+02  0.21638729664E+02  0.19488314166E+03  0.24026695645E+03  0.12499934383E+03 0.  0.
          2    1    1    2  501    0  0.85003572740E+01 -0.31717272459E+02  0.11553155482E+02  0.34809723464E+02  0.00000000000E+00 0. -1.
          1    1    1    2  502    0  0.51962035018E+02  0.10078542795E+02  0.74108072318E+03  0.74296855141E+03  0.00000000000E+00 0. -1.
         22    1    3    3    0    0 -0.29388370915E+02 -0.99512565714E+01  0.19346014519E+03  0.19593246701E+03  0.00000000000E+00 0. -1.
         22    1    3    3    0    0 -0.31074021376E+02  0.31589986235E+02  0.14229964657E+01  0.44334489439E+02  0.00000000000E+00 0. -1.
</event>
<event>
 7    1  0.6058736E-006  0.8480021E+02  0.7818608E-02  0.1349804E+00
          2   -1    0    0  502    0  0.00000000000E+00  0.00000000000E+00  0.42312245556E+03  0.42312245556E+03  0.00000000000E+00 0. -1.
          1   -1    0    0  501    0 -0.00000000000E+00 -0.00000000000E+00 -0.77494954079E+03  0.77494954079E+03  0.00000000000E+00 0. -1.
         25    2    1    2    0    0 -0.37259179680E+02  0.43598624873E+02 -0.17050852976E+03  0.21905381883E+03  0.12498932059E+03 0.  0.
          2    1    1    2  501    0  0.47279137346E+02  0.41702322144E+02 -0.57379813825E+03  0.57725098870E+03  0.00000000000E+00 0. -1.
          1    1    1    2  502    0 -0.10019957666E+02 -0.85300947017E+02  0.39247958278E+03  0.40176718882E+03  0.00000000000E+00 0. -1.
         22    1    3    3    0    0  0.98828867323E+01  0.77381797818E+02 -0.81504546424E+02  0.11282112024E+03  0.00000000000E+00 0. -1.
         22    1    3    3    0    0 -0.47142066412E+02 -0.33783172946E+02 -0.89003983340E+02  0.10623269859E+03  0.00000000000E+00 0. -1.
</event>
<event>
 7    1  0.6058736E-006  0.1657116E+03  0.7818608E-02  0.1213441E+00
          2   -1    0    0  502    0  0.00000000000E+00  0.00000000000E+00  0.21758699515E+04  0.21758699515E+04  0.00000000000E+00 0. -1.
          1   -1    0    0  501    0 -0.00000000000E+00 -0.00000000000E+00 -0.47435221987E+02  0.47435221987E+02  0.00000000000E+00 0. -1.
         25    2    1    2    0    0 -0.57939566246E+02 -0.60404716964E+02  0.60922829699E+03  0.62752676581E+03  0.12500000315E+03 0.  0.
          2    1    1    2  501    0  0.14388511497E+03 -0.82203433958E+02  0.17391558503E+03  0.24022273327E+03  0.00000000000E+00 0. -1.
          1    1    1    2  502    0 -0.85945548727E+02  0.14260815092E+03  0.13452908474E+04  0.13555556744E+04  0.00000000000E+00 0. -1.
         22    1    3    3    0    0  0.14576414681E+02  0.23516475416E+02  0.25103480069E+03  0.25255488045E+03  0.00000000000E+00 0. -1.
         22    1    3    3    0    0 -0.72515980926E+02 -0.83921192380E+02  0.35819349630E+03  0.37497188536E+03  0.00000000000E+00 0. -1.
</event>
<event>
 7    1  0.6058736E-006  0.4873417E+02  0.7818608E-02  0.1507329E+00
          2   -1    0    0  502    0  0.00000000000E+00  0.00000000000E+00  0.11213019887E+04  0.11213019887E+04  0.00000000000E+00 0. -1.
          1   -1    0    0  501    0 -0.00000000000E+00 -0.00000000000E+00 -0.26976366259E+03  0.26976366259E+03  0.00000000000E+00 0. -1.
         25    2    1    2    0    0  0.37793529000E+02 -0.63063313755E+02 -0.12646677128E+03  0.19241765766E+03  0.12500151345E+03 0.  0.
          2    1    1    2  501    0 -0.10586021241E+02  0.44337735996E+02 -0.10535026285E+03  0.11478927023E+03  0.00000000000E+00 0. -1.
          1    1    1    2  502    0 -0.27207507759E+02  0.18725577760E+02  0.10833553603E+04  0.10838587234E+04  0.00000000000E+00 0. -1.
         22    1    3    3    0    0  0.13885117460E+02 -0.47514810902E+02 -0.14840056190E+03  0.15643906327E+03  0.00000000000E+00 0.  1.
         22    1    3    3    0    0  0.23908411540E+02 -0.15548502853E+02  0.21933790624E+02  0.35978594393E+02  0.00000000000E+00 0.  1.
</event>
<event>
 7    1  0.6058736E-006  0.5779351E+02  0.7818608E-02  0.1522134E+00
          2   -1    0    0  502    0  0.00000000000E+00  0.00000000000E+00  0.24130647914E+04  0.24130647914E+04  0.00000000000E+00 0. -1.
          1   -1    0    0  501    0 -0.00000000000E+00 -0.00000000000E+00 -0.59850975946E+03  0.59850975946E+03  0.00000000000E+00 0. -1.
         25    2    1    2    0    0 -0.35247011342E+02  0.20074685122E+02  0.12454780872E+04  0.12523920552E+04  0.12499939762E+03 0.  0.
          2    1    1    2  501    0 -0.24877052018E+02 -0.40740418641E+01 -0.59395394100E+03  0.59448864544E+03  0.00000000000E+00 0. -1.
          1    1    1    2  502    0  0.60124063360E+02 -0.16000643258E+02  0.11630308857E+04  0.11646938502E+04  0.00000000000E+00 0. -1.
         22    1    3    3    0    0  0.12320134231E+02  0.63094551639E+02  0.75635529605E+03  0.75908236840E+03  0.00000000000E+00 0. -1.
         22    1    3    3    0    0 -0.47567145572E+02 -0.43019866517E+02  0.48912279112E+03  0.49330968675E+03  0.00000000000E+00 0. -1.
</event>
<event>
 7    1  0.6058736E-006  0.6766927E+02  0.7818608E-02  0.1452299E+00
          2   -1    0    0  502    0  0.00000000000E+00  0.00000000000E+00  0.30244749650E+03  0.30244749650E+03  0.00000000000E+00 0. -1.
          1   -1    0    0  501    0 -0.00000000000E+00 -0.00000000000E+00 -0.90382464592E+02  0.90382464592E+02  0.00000000000E+00 0. -1.
         25    2    1    2    0    0  0.18038734037E+02  0.67870234368E+02  0.51823192663E+02  0.15245262727E+03  0.12499758247E+03 0.  0.
          2    1    1    2  501    0  0.17041795463E+02 -0.66849527085E+02 -0.71397676524E+01  0.69356026027E+02  0.00000000000E+00 0. -1.
          1    1    1    2  502    0 -0.35080529500E+02 -0.10207072829E+01  0.16738160689E+03  0.17102130779E+03  0.00000000000E+00 0. -1.
         22    1    3    3    0    0 -0.16484218016E+02  0.96845950757E+02  0.37631391710E+02  0.10519975886E+03  0.00000000000E+00 0. -1.
         22    1    3    3    0    0  0.34522952053E+02 -0.28975716389E+02  0.14191800953E+02  0.47252868410E+02  0.00000000000E+00 0. -1.
</event>
<event>
 7    1  0.6058736E-006  0.7893542E+02  0.7818608E-02  0.1373112E+00
          2   -1    0    0  502    0  0.00000000000E+00  0.00000000000E+00  0.10571420846E+04  0.10571420846E+04  0.00000000000E+00 0. -1.
          1   -1    0    0  501    0 -0.00000000000E+00 -0.00000000000E+00 -0.20208579804E+03  0.20208579804E+03  0.00000000000E+00 0. -1.
         25    2    1    2    0    0 -0.26789933415E+01 -0.38012560374E+02  0.26435057045E+02  0.13332495417E+03  0.12499839764E+03 0.  0.
          2    1    1    2  501    0 -0.35943953602E+02  0.78151371430E+02 -0.13532366038E+03  0.16034992272E+03  0.00000000000E+00 0. -1.
          1    1    1    2  502    0  0.38622946944E+02 -0.40138811056E+02  0.96394488993E+03  0.96555300580E+03  0.00000000000E+00 0. -1.
         22    1    3    3    0    0 -0.49134434625E+02 -0.20877254451E+02  0.54598146422E+02  0.76361050360E+02  0.00000000000E+00 0.  1.
         22    1    3    3    0    0  0.46455441284E+02 -0.17135305923E+02 -0.28163089377E+02  0.56963903810E+02  0.00000000000E+00 0.  1.
</event>
<event>
 7    1  0.6058736E-006  0.1106781E+03  0.7818608E-02  0.1424436E+00
          2   -1    0    0  502    0  0.00000000000E+00  0.00000000000E+00  0.19241334381E+04  0.19241334381E+04  0.00000000000E+00 0. -1.
          1   -1    0    0  501    0 -0.00000000000E+00 -0.00000000000E+00 -0.90238120996E+03  0.90238120996E+03  0.00000000000E+00 0. -1.
         25    2    1    2    0    0 -0.14125047471E+02 -0.11449755210E+03 -0.18228201272E+02  0.17107383765E+03  0.12499913682E+03 0.  0.
          2    1    1    2  501    0 -0.11918004443E+02  0.10994593755E+03 -0.80384963693E+03  0.81142121417E+03  0.00000000000E+00 0. -1.
          1    1    1    2  502    0  0.26043051914E+02  0.45516145484E+01  0.18438300663E+04  0.18440195962E+04  0.00000000000E+00 0. -1.
         22    1    3    3    0    0  0.12227951298E+02 -0.33873724998E+02  0.50414979111E+02  0.61956615119E+02  0.00000000000E+00 0.  1.
         22    1    3    3    0    0 -0.26352998769E+02 -0.80623827102E+02 -0.68643180383E+02  0.10911722253E+03  0.00000000000E+00 0.  1.
</event>
<event>
 7    1  0.6058736E-006  0.3517815E+02  0.7818608E-02  0.1556876E+00
          2   -1    0    0  502    0  0.00000000000E+00  0.00000000000E+00  0.11335746066E+04  0.11335746066E+04  0.00000000000E+00 0. -1.
          1   -1    0    0  501    0 -0.00000000000E+00 -0.00000000000E+00 -0.92947890274E+03  0.92947890274E+03  0.00000000000E+00 0. -1.
         25    2    1    2    0    0  0.24363057085E+02  0.52159575710E+02 -0.22986393452E+03  0.26789577143E+03  0.12496613969E+03 0.  0.
          2    1    1    2  501    0  0.48980982582E+01 -0.32661203511E+02 -0.67992080028E+03  0.68072243994E+03  0.00000000000E+00 0. -1.
          1    1    1    2  502    0 -0.29261155343E+02 -0.19498372199E+02  0.11138804386E+04  0.11144352980E+04  0.00000000000E+00 0. -1.
         22    1    3    3    0    0  0.37225650198E+02  0.54487206465E+02 -0.24152574533E+03  0.25037829450E+03  0.00000000000E+00 0.  1.
         22    1    3    3    0    0 -0.12862593113E+02 -0.23276307547E+01  0.11661810812E+02  0.17517476929E+02  0.00000000000E+00 0.  1.
</event>
<event>
 7    1  0.6058736E-006  0.4526000E+02  0.7818608E-02  0.1550533E+00
          2   -1    0    0  502    0  0.00000000000E+00  0.00000000000E+00  0.21632053783E+04  0.21632053783E+04  0.00000000000E+00 0. -1.
          1   -1    0    0  501    0 -0.00000000000E+00 -0.00000000000E+00 -0.23006981137E+02  0.23006981137E+02  0.00000000000E+00 0. -1.
         25    2    1    2    0    0 -0.12796643653E+02  0.67669500363E+02  0.38771027750E+03  0.41314054870E+03  0.12499175305E+03 0.  0.
          2    1    1    2  501    0 -0.44374688665E+01 -0.26360871948E+02  0.78512674202E+01  0.27860888354E+02  0.00000000000E+00 0. -1.
          1    1    1    2  502    0  0.17234112520E+02 -0.41308628416E+02  0.17446368523E+04  0.17452109224E+04  0.00000000000E+00 0. -1.
         22    1    3    3    0    0 -0.51012731305E+02 -0.12582674956E+02  0.11822752429E+03  0.12937685251E+03  0.00000000000E+00 0.  1.
         22    1    3    3    0    0  0.38216087652E+02  0.80252175319E+02  0.26948275321E+03  0.28376369619E+03  0.00000000000E+00 0.  1.
</event>
<event>
 7    1  0.6058736E-006  0.1725412E+03  0.7818608E-02  0.1320009E+00
          2   -1    0    0  502    0  0.00000000000E+00  0.00000000000E+00  0.87809518661E+03  0.87809518661E+03  0.00000000000E+00 0. -1.
          1   -1    0    0  501    0 -0.00000000000E+00 -0.00000000000E+00 -0.76781860305E+03  0.76781860305E+03  0.00000000000E+00 0. -1.
         25    2    1    2    0    0  0.14747796176E+03  0.13063051360E+03 -0.84886780391E+02  0.24828348790E+03  0.12499937836E+03 0.  0.
          2    1    1    2  501    0 -0.19918642073E+01 -0.40141181398E+02 -0.59132866111E+03  0.59269289469E+03  0.00000000000E+00 0. -1.
          1    1    1    2  502    0 -0.14548609755E+03 -0.90489332204E+02  0.78649202505E+03  0.80493740707E+03  0.00000000000E+00 0. -1.
         22    1    3    3    0    0  0.54437842101E+02 -0.12630104846E+02  0.34163339308E+01  0.55988119620E+02  0.00000000000E+00 0. -1.
         22    1    3    3    0    0  0.93040119659E+02  0.14326061845E+03 -0.88303114322E+02  0.19229536828E+03  0.00000000000E+00 0. -1.
</event>
<event>
 7    1  0.6058736E-006  0.1299337E+03  0.7818608E-02  0.1336496E+00
          2   -1    0    0  502    0  0.00000000000E+00  0.00000000000E+00  0.36223363236E+03  0.36223363236E+03  0.00000000000E+00 0. -1.
          1   -1    0    0  501    0 -0.00000000000E+00 -0.00000000000E+00 -0.12018661911E+04  0.12018661911E+04  0.00000000000E+00 0. -1.
         25    2    1    2    0    0  0.23371129042E+02  0.87198660068E+02 -0.51906152165E+03  0.54147910012E+03  0.12499974645E+03 0.  0.
          2    1    1    2  501    0  0.35178880719E+02  0.29865735061E+02 -0.65855879891E+03  0.66017361913E+03  0.00000000000E+00 0. -1.
          1    1    1    2  502    0 -0.58550009762E+02 -0.11706439513E+03  0.33798776179E+03  0.36244710424E+03  0.00000000000E+00 0. -1.
         22    1    3    3    0    0  0.42569342263E+02 -0.86858906438E+01 -0.27741364161E+03  0.28079516048E+03  0.00000000000E+00 0. -1.
         22    1    3    3    0    0 -0.19198213221E+02  0.95884550712E+02 -0.24164788004E+03  0.26068393964E+03  0.00000000000E+00 0. -1.
</event>
<event>
 7    1  0.6058736E-006  0.5618135E+02  0.7818608E-02  0.1421910E+00
          2   -1    0    0  502    0  0.00000000000E+00  0.00000000000E+00  0.19627764545E+04  0.19627764545E+04  0.00000000000E+00 0. -1.
          1   -1    0    0  501    0 -0.00000000000E+00 -0.00000000000E+00 -0.44099155144E+02  0.44099155144E+02  0.00000000000E+00 0. -1.
         25    2    1    2    0    0 -0.28327203526E+02  0.99160794272E+02  0.68339184205E+03  0.70234251161E+03  0.12500120099E+03 0.  0.
          2    1    1    2  501    0 -0.87631112721E+00 -0.54812988296E+02 -0.11999879278E+02  0.56117989182E+02  0.00000000000E+00 0. -1.
          1    1    1    2  502    0  0.29203514654E+02 -0.44347805977E+02  0.12472853366E+04  0.12484151089E+04  0.00000000000E+00 0. -1.
         22    1    3    3    0    0 -0.41141582877E+02  0.78383039750E+02  0.66720479458E+03  0.67305183208E+03  0.00000000000E+00 0.  1.
         22    1    3    3    0    0  0.12814379350E+02  0.20777754522E+02  0.16187047471E+02  0.29290679523E+02  0.00000000000E+00 0.  1.
</event>
<event>
 7    1  0.6058736E-006  0.2485196E+02  0.7818608E-02  0.1683346E+00
          2   -1    0    0  502    0  0.00000000000E+00  0.00000000000E+00  0.15038143976E+04  0.15038143976E+04  0.00000000000E+00 0. -1.
          1   -1    0    0  501    0 -0.00000000000E+00 -0.00000000000E+00 -0.63144739706E+02  0.63144739706E+02  0.00000000000E+00 0. -1.
         25    2    1    2    0    0  0.30699194425E+02  0.29191818806E+02  0.13064135823E+04  0.13130635726E+04  0.12499957905E+03 0.  0.
          2    1    1    2  501    0 -0.93334736780E+01 -0.23003224645E+02 -0.56570092868E+02  0.61777321746E+02  0.00000000000E+00 0. -1.
          1    1    1    2  502    0 -0.21365720747E+02 -0.61885941610E+01  0.19082616839E+03  0.19211824292E+03  0.00000000000E+00 0. -1.
         22    1    3    3    0    0 -0.23916986820E+02 -0.31926921874E+02  0.22192033562E+03  0.22547724045E+03  0.00000000000E+00 0.  1.
         22    1    3    3    0    0  0.54616181244E+02  0.61118740679E+02  0.10844932467E+04  0.10875863322E+04  0.00000000000E+00 0.  1.
</event>
<event>
 7    1  0.6058736E-006  0.1422300E+03  0.7818608E-02  0.1259757E+00
          2   -1    0    0  502    0  0.00000000000E+00  0.00000000000E+00  0.64551089461E+03  0.64551089461E+03  0.00000000000E+00 0. -1.
          1   -1    0    0  501    0 -0.00000000000E+00 -0.00000000000E+00 -0.20699906298E+03  0.20699906298E+03  0.00000000000E+00 0. -1.
         25    2    1    2    0    0 -0.38201044056E+02 -0.87105216263E+02  0.18060619989E+03  0.23934466367E+03  0.12498251927E+03 0.  0.
          2    1    1    2  501    0  0.12395611169E+03  0.87400932163E+02 -0.13982856522E+03  0.20629122187E+03  0.00000000000E+00 0. -1.
          1    1    1    2  502    0 -0.85755067633E+02 -0.29571590073E+00  0.39773419696E+03  0.40687407205E+03  0.00000000000E+00 0. -1.
         22    1    3    3    0    0  0.51580838551E+01 -0.20464937725E+02  0.15409956924E+03  0.15553808777E+03  0.00000000000E+00 0. -1.
         22    1    3    3    0    0 -0.43359127911E+02 -0.66640278538E+02  0.26506630648E+02  0.83806575906E+02  0.00000000000E+00 0. -1.
</event>
<event>
 7    1  0.6058736E-006  0.7137188E+02  0.7818608E-02  0.1457105E+00
          2   -1    0    0  502    0  0.00000000000E+00  0.00000000000E+00  0.21373181170E+04  0.21373181170E+04  0.00000000000E+00 0. -1.
          1   -1    0    0  501    0 -0.00000000000E+00 -0.00000000000E+00 -0.25943219008E+04  0.25943219008E+04  0.00000000000E+00 0. -1.
         25    2    1    2    0    0 -0.29785147749E+02 -0.26310686857E+02  0.13229822688E+04  0.13294685156E+04  0.12500017293E+03 0.  0.
          2    1    1    2  501    0  0.48293034001E+02  0.52568174679E+02 -0.25902687840E+04  0.25912522076E+04  0.00000000000E+00 0. -1.
          1    1    1    2  502    0 -0.18507886253E+02 -0.26257487823E+02  0.81028273138E+03  0.81091929456E+03  0.00000000000E+00 0. -1.
         22    1    3    3    0    0 -0.49082895217E+01  0.50333362511E+02  0.51942877917E+03  0.52188484872E+03  0.00000000000E+00 0.  1.
         22    1    3    3    0    0 -0.24876858227E+02 -0.76644049368E+02  0.80355348960E+03  0.80758366689E+03  0.00000000000E+00 0.  1.
</event>
<event>
 7    1  0.6058736E-006  0.8116883E+02  0.7818608E-02  0.1480224E+00
          2   -1    0    0  502    0  0.00000000000E+00  0.00000000000E+00  0.94801145991E+03  0.94801145991E+03  0.00000000000E+00 0. -1.
          1   -1    0    0  501    0 -0.00000000000E+00 -0.00000000000E+00 -0.13453102924E+03  0.13453102924E+03  0.00000000000E+00 0. -1.
         25    2    1    2    0    0 -0.55892508049E+02  0.14303745888E+02  0.69975784162E+03  0.71317190815E+03  0.12499825624E+03 0.  0.
          2    1    1    2  501    0  0.78768663055E+02 -0.21323327462E+02 -0.11410912206E+03  0.14028570245E+03  0.00000000000E+00 0. -1.
          1    1    1    2  502    0 -0.22876155005E+02  0.70195815742E+01  0.22783171111E+03  0.22908487855E+03  0.00000000000E+00 0. -1.
         22    1    3    3    0    0 -0.40249129122E+02  0.69490416597E+02  0.41095890624E+03  0.41873157633E+03  0.00000000000E+00 0. -1.
         22    1    3    3    0    0 -0.15643378927E+02 -0.55186670709E+02  0.28879893538E+03  0.29444033182E+03  0.00000000000E+00 0. -1.
</event>
<event>
 7    1  0.6058736E-006  0.1453250E+03  0.7818608E-02  0.1307430E+00
          2   -1    0    0  502    0  0.00000000000E+00  0.00000000000E+00  0.16479376378E+04  0.16479376378E+04  0.00000000000E+00 0. -1.
          1   -1    0    0  501    0 -0.00000000000E+00 -0.00000000000E+00 -0.10177068482E+04  0.10177068482E+04  0.00000000000E+00 0. -1.
         25    2    1    2    0    0  0.44047069545E+02  0.98589018139E+02  0.58322440095E+02  0.17517531531E+03  0.12499978097E+03 0.  0.
          2    1    1    2  501    0  0.51522460678E+02  0.14232067002E+02 -0.95496181592E+03  0.95645657797E+03  0.00000000000E+00 0. -1.
          1    1    1    2  502    0 -0.95569530222E+02 -0.11282108514E+03  0.15268701655E+04  0.15340125927E+04  0.00000000000E+00 0. -1.
         22    1    3    3    0    0  0.50138291745E+02  0.72584503469E+02  0.95104121462E+02  0.12971951419E+03  0.00000000000E+00 0.  1.
         22    1    3    3    0    0 -0.60912221998E+01  0.26004514670E+02 -0.36781681367E+02  0.45455801118E+02  0.00000000000E+00 0.  1.
</event>
<event>
 7    1  0.6058736E-006  0.8239696E+02  0.7818608E-02  0.1348290E+00
          2   -1    0    0  502    0  0.00000000000E+00  0.00000000000E+00  0.18853663700E+03  0.18853663700E+03  0.00000000000E+00 0. -1.
          1   -1    0    0  501    0 -0.00000000000E+00 -0.00000000000E+00 -0.10517572306E+04  0.10517572306E+04  0.00000000000E+00 0. -1.
         25    2    1    2    0    0 -0.67133853329E+02  0.35961452126E+02 -0.70697092510E+03  0.72196487800E+03  0.12500086332E+03 0.  0.
          2    1    1    2  501    0  0.48210296637E+02  0.44674029658E+02 -0.32434403153E+03  0.33093662901E+03  0.00000000000E+00 0. -1.
          1    1    1    2  502    0  0.18923556692E+02 -0.80635481784E+02  0.16809436303E+03  0.18739236058E+03  0.00000000000E+00 0. -1.
         22    1    3    3    0    0 -0.83720851510E+02  0.97812446859E+01 -0.66202473580E+03  0.66736916661E+03  0.00000000000E+00 0.  1.
         22    1    3    3    0    0  0.16586998181E+02  0.26180207440E+02 -0.44946189300E+02  0.54595711397E+02  0.00000000000E+00 0.  1.
</event>
<event>
 7    1  0.6058736E-006  0.1854766E+03  0.7818608E-02  0.1182571E+00
          2   -1    0    0  502    0  0.00000000000E+00  0.00000000000E+00  0.15060974631E+04  0.15060974631E+04  0.00000000000E+00 0. -1.
          1   -1    0    0  501    0 -0.00000000000E+00 -0.00000000000E+00 -0.25883856584E+04  0.25883856584E+04  0.00000000000E+00 0. -1.
         25    2    1    2    0    0  0.25838918121E+03 -0.59267354824E+02 -0.55409836626E+03  0.62683968249E+03  0.12500159896E+03 0.  0.
          2    1    1    2  501    0 -0.17041843448E+03 -0.59454542353E+02 -0.19901083538E+04  0.19982763936E+04  0.00000000000E+00 0. -1.
          1    1    1    2  502    0 -0.87970746727E+02  0.11872189718E+03  0.14619185247E+04  0.14693670454E+04  0.00000000000E+00 0. -1.
         22    1    3    3    0    0  0.22769311471E+03 -0.91319922373E+02 -0.49939161387E+03  0.55639506352E+03  0.00000000000E+00 0.  1.
         22    1    3    3    0    0  0.30696066499E+02  0.32052567549E+02 -0.54706752393E+02  0.70444618974E+02  0.00000000000E+00 0.  1.
</event>
<event>
 7    1  0.6058736E-006  0.1502611E+03  0.7818608E-02  0.1320713E+00
          2   -1    0    0  502    0  0.00000000000E+00  0.00000000000E+00  0.42691222005E+03  0.42691222005E+03  0.00000000000E+00 0. -1.
          1   -1    0    0  501    0 -0.00000000000E+00 -0.00000000000E+00 -0.17617663387E+03  0.17617663387E+03  0.00000000000E+00 0. -1.
         25    2    1    2    0    0  0.15679909556E+03 -0.34638477916E+02 -0.32517827785E+02  0.20608163435E+03  0.12500580135E+03 0.  0.
          2    1    1    2  501    0 -0.25918493917E+02 -0.37834751898E+02 -0.26535789972E+02  0.52984761277E+02  0.00000000000E+00 0. -1.
          1    1    1    2  502    0 -0.13088060165E+03  0.72473229815E+02  0.30978920394E+03  0.34402245829E+03  0.00000000000E+00 0. -1.
         22    1    3    3    0    0  0.10259548054E+03  0.30155686836E+02 -0.52716881982E+02  0.11922360387E+03  0.00000000000E+00 0.  1.
         22    1    3    3    0    0  0.54203615029E+02 -0.64794164752E+02  0.20199054197E+02  0.86858030478E+02  0.00000000000E+00 0.  1.
</event>
<event>
 7    1  0.6058736E-006  0.6195297E+02  0.7818608E-02  0.1420585E+00
          2   -1    0    0  502    0  0.00000000000E+00  0.00000000000E+00  0.49964573478E+03  0.49964573478E+03  0.00000000000E+00 0. -1.
          1   -1    0    0  501    0 -0.00000000000E+00 -0.00000000000E+00 -0.13537366783E+04  0.13537366783E+04  0.00000000000E+00 0. -1.
         25    2    1    2    0    0 -0.49911433793E+02 -0.65532575831E+01 -0.16527772502E+03  0.21325090342E+03  0.12500050005E+03 0.  0.
          2    1    1    2  501    0  0.46922399419E+02 -0.41999920760E+02 -0.11623741053E+04  0.11640787196E+04  0.00000000000E+00 0. -1.
          1    1    1    2  502    0  0.29890343737E+01  0.48553178343E+02  0.47356088675E+03  0.47605279005E+03  0.00000000000E+00 0. -1.
         22    1    3    3    0    0 -0.91843553009E+02 -0.64296138383E+01 -0.12367783392E+03  0.15418425589E+03  0.00000000000E+00 0.  1.
         22    1    3    3    0    0  0.41932119216E+02 -0.12364374483E+00 -0.41599891109E+02  0.59066647526E+02  0.00000000000E+00 0.  1.
</event>
<event>
 7    1  0.6058736E-006  0.7220194E+02  0.7818608E-02  0.1383318E+00
          2   -1    0    0  502    0  0.00000000000E+00  0.00000000000E+00  0.12348617942E+03  0.12348617942E+03  0.00000000000E+00 0. -1.
          1   -1    0    0  501    0 -0.00000000000E+00 -0.00000000000E+00 -0.18292264659E+04  0.18292264659E+04  0.00000000000E+00 0. -1.
         25    2    1    2    0    0 -0.12175023734E+02 -0.36134595266E+02 -0.57850923843E+01  0.13081537198E+03  0.12500101629E+03 0.  0.
          2    1    1    2  501    0 -0.45256011096E+02 -0.33021152068E+02 -0.17270894420E+04  0.17279978135E+04  0.00000000000E+00 0. -1.
          1    1    1    2  502    0  0.57431034830E+02  0.69155747334E+02  0.27134247839E+02  0.93899459832E+02  0.00000000000E+00 0. -1.
         22    1    3    3    0    0  0.51050974107E+02 -0.39347199587E+02 -0.16678087977E+02  0.66577493879E+02  0.00000000000E+00 0. -1.
         22    1    3    3    0    0 -0.63225997840E+02  0.32126043210E+01  0.10892995593E+02  0.64237878097E+02  0.00000000000E+00 0. -1.
</event>
<event>
 7    1  0.6058736E-006  0.1791811E+03  0.7818608E-02  0.1370588E+00
          2   -1    0    0  502    0  0.00000000000E+00  0.00000000000E+00  0.11304701843E+04  0.11304701843E+04  0.00000000000E+00 0. -1.
          1   -1    0    0  501    0 -0.00000000000E+00 -0.00000000000E+00 -0.25994577448E+04  0.25994577448E+04  0.00000000000E+00 0. -1.
         25    2    1    2    0    0  0.15433980165E+03  0.86593437126E+02  0.32618849739E+03  0.39158860604E+03  0.12499401115E+03 0.  0.
          2    1    1    2  501    0 -0.14250384166E+03 -0.10867752830E+03 -0.25634249207E+04  0.25696819792E+04  0.00000000000E+00 0. -1.
          1    1    1    2  502    0 -0.11835959989E+02  0.22084091179E+02  0.76824886278E+03  0.76865734381E+03  0.00000000000E+00 0. -1.
         22    1    3    3    0    0  0.14656377002E+03  0.45450216650E+02  0.31144807767E+03  0.34719816526E+03  0.00000000000E+00 0.  1.
         22    1    3    3    0    0  0.77760316357E+01  0.41143220476E+02  0.14740419719E+02  0.44390440779E+02  0.00000000000E+00 0.  1.
</event>
<event>
 7    1  0.6058736E-006  0.1301914E+03  0.7818608E-02  0.1353568E+00
          2   -1    0    0  502    0  0.00000000000E+00  0.00000000000E+00  0.59773697758E+03  0.59773697758E+03  0.00000000000E+00 0. -1.
          1   -1    0    0  501    0 -0.00000000000E+00 -0.00000000000E+00 -0.13056298146E+04  0.13056298146E+04  0.00000000000E+00 0. -1.
         25    2    1    2    0    0  0.17018947890E+01 -0.98100766693E+02  0.22465452477E+02  0.16048784755E+03  0.12499998314E+03 0.  0.
          2    1    1    2  501    0 -0.18245880893E+02 -0.35335847163E+02 -0.12273631423E+04  0.12280072546E+04  0.00000000000E+00 0. -1.
          1    1    1    2  502    0  0.16543986104E+02  0.13343661386E+03  0.49700485285E+03  0.51487168999E+03  0.00000000000E+00 0. -1.
         22    1    3    3    0    0  0.26113924848E+02 -0.98821916215E+02 -0.26653709453E+02  0.10563204260E+03  0.00000000000E+00 0. -1.
         22    1    3    3    0    0 -0.24412030059E+02  0.72114952136E+00  0.49119161930E+02  0.54855804952E+02  0.00000000000E+00 0. -1.
</event>
<event>
 7    1  0.6058736E-006  0.3161555E+02  0.7818608E-02  0.1625627E+00
          2   -1    0    0  502    0  0.00000000000E+00  0.00000000000E+00  0.97253577491E+03  0.97253577491E+03  0.00000000000E+00 0. -1.
          1   -1    0    0  501    0 -0.00000000000E+00 -0.00000000000E+00 -0.36803228708E+02  0.36803228708E+02  0.00000000000E+00 0. -1.
         25    2    1    2    0    0 -0.15414312592E+01  0.15152392638E+02  0.27583235207E+03  0.30321694829E+03  0.12500024107E+03 0.  0.
          2    1    1    2  501    0  0.22223838742E+02  0.95291112699E+01 -0.16296185573E+02  0.29159366150E+02  0.00000000000E+00 0. -1.
          1    1    1    2  502    0 -0.20682407483E+02 -0.24681503908E+02  0.67619637971E+03  0.67696268918E+03  0.00000000000E+00 0. -1.
         22    1    3    3    0    0  0.85178757187E+00 -0.31929104667E+02  0.24457894606E+03  0.24665574010E+03  0.00000000000E+00 0.  1.
         22    1    3    3    0    0 -0.23932188310E+01  0.47081497305E+02  0.31253406011E+02  0.56561208192E+02  0.00000000000E+00 0.  1.
</event>
<event>
 7    1  0.6058736E-006  0.1381690E+03  0.7818608E-02  0.1225220E+00
          2   -1    0    0  502    0  0.00000000000E+00  0.00000000000E+00  0.67509803231E+03  0.67509803231E+03  0.00000000000E+00 0. -1.
          1   -1    0    0  501    0 -0.00000000000E+00 -0.00000000000E+00 -0.11768796267E+04  0.11768796267E+04  0.00000000000E+00 0. -1.
         25    2    1    2    0    0  0.13245074513E+03 -0.13521843308E+02 -0.59145504288E+03  0.61900691856E+03  0.12499782936E+03 0.  0.
          2    1    1    2  501    0 -0.98536280791E+02  0.13402779420E+03 -0.55338119583E+03  0.57784392023E+03  0.00000000000E+00 0. -1.
          1    1    1    2  502    0 -0.33914464339E+02 -0.12050595089E+03  0.64305464428E+03  0.65512682026E+03  0.00000000000E+00 0. -1.
         22    1    3    3    0    0  0.13939051243E+03  0.23457303790E+02 -0.51098962106E+03  0.53017954779E+03  0.00000000000E+00 0.  1.
         22    1    3    3    0    0 -0.69397673022E+01 -0.36979147097E+02 -0.80465421818E+02  0.88827370773E+02  0.00000000000E+00 0.  1.
</event>
<event>
 7    1  0.6058736E-006  0.7984207E+02  0.7818608E-02  0.1346901E+00
          2   -1    0    0  502    0  0.00000000000E+00  0.00000000000E+00  0.43129452150E+02  0.43129452150E+02  0.00000000000E+00 0. -1.
          1   -1    0    0  501    0 -0.00000000000E+00 -0.00000000000E+00 -0.18100746510E+04  0.18100746510E+04  0.00000000000E+00 0. -1.
         25    2    1    2    0    0  0.93153481762E+02 -0.71199143677E+02 -0.68145848334E+03  0.70267886443E+03  0.12500013108E+03 0.  0.
          2    1    1    2  501    0 -0.77061859587E+02  0.44706670202E+01 -0.10788009824E+04  0.10815590953E+04  0.00000000000E+00 0. -1.
          1    1    1    2  502    0 -0.16091622176E+02  0.66728476657E+02 -0.66857330603E+01  0.68966143344E+02  0.00000000000E+00 0. -1.
         22    1    3    3    0    0 -0.99241153385E+01 -0.16951987003E+02 -0.36393229392E+03  0.36446203161E+03  0.00000000000E+00 0. -1.
         22    1    3    3    0    0  0.10307759710E+03 -0.54247156674E+02 -0.31752618942E+03  0.33821683282E+03  0.00000000000E+00 0. -1.
</event>
<event>
 7    1  0.6058736E-006  0.2135114E+03  0.7818608E-02  0.1171692E+00
          2   -1    0    0  502    0  0.00000000000E+00  0.00000000000E+00  0.11920779778E+04  0.11920779778E+04  0.00000000000E+00 0. -1.
          1   -1    0    0  501    0 -0.00000000000E+00 -0.00000000000E+00 -0.67335050848E+03  0.67335050848E+03  0.00000000000E+00 0. -1.
         25    2    1    2    0    0 -0.29340237754E+03 -0.79177148026E+02 -0.32076740846E+03  0.45920753569E+03  0.12500341832E+03 0.  0.
          2    1    1    2  501    0  0.17926343835E+03 -0.10484139558E+02 -0.24960802479E+03  0.30748896493E+03  0.00000000000E+00 0. -1.
          1    1    1    2  502    0  0.11413893919E+03  0.89661287585E+02  0.10891029026E+04  0.10987319857E+04  0.00000000000E+00 0. -1.
         22    1    3    3    0    0 -0.12826312574E+03 -0.74587214208E+02 -0.22109281984E+03  0.26626437413E+03  0.00000000000E+00 0.  1.
         22    1    3    3    0    0 -0.16513925179E+03 -0.45899338180E+01 -0.99674588625E+02  0.19294316156E+03  0.00000000000E+00 0.  1.
</event>
<event>
 7    1  0.6058736E-006  0.1022772E+03  0.7818608E-02  0.1380512E+00
          2   -1    0    0  502    0  0.00000000000E+00  0.00000000000E+00  0.19590461216E+04  0.19590461216E+04  0.00000000000E+00 0. -1.
          1   -1    0    0  501    0 -0.00000000000E+00 -0.00000000000E+00 -0.15251240953E+04  0.15251240953E+04  0.00000000000E+00 0. -1.
         25    2    1    2    0    0 -0.10153126716E+03  0.92487086529E+02  0.54874834599E+03  0.57932038645E+03  0.12499961414E+03 0.  0.
          2    1    1    2  501    0  0.22964819941E+02 -0.33312649180E+02 -0.15078326203E+04  0.15083753931E+04  0.00000000000E+00 0. -1.
          1    1    1    2  502    0  0.78566447218E+02 -0.59174437349E+02  0.13930063006E+04  0.13964744374E+04  0.00000000000E+00 0. -1.
         22    1    3    3    0    0 -0.11636089156E+03  0.36700444790E+02  0.43466392966E+03  0.45146374326E+03  0.00000000000E+00 0. -1.
         22    1    3    3    0    0  0.14829624401E+02  0.55786641738E+02  0.11408441634E+03  0.12785664319E+03  0.00000000000E+00 0. -1.
</event>
<event>
 7    1  0.6058736E-006  0.2587472E+03  0.7818608E-02  0.1327291E+00
          2   -1    0    0  502    0  0.00000000000E+00  0.00000000000E+00  0.92149367320E+03  0.92149367320E+03  0.00000000000E+00 0. -1.
          1   -1    0    0  501    0 -0.00000000000E+00 -0.00000000000E+00 -0.13462960569E+04  0.13462960569E+04  0.00000000000E+00 0. -1.
         25    2    1    2    0    0 -0.58424107866E+01  0.25140875968E+03  0.19961971797E+03  0.34454768796E+03  0.12499831709E+03 0.  0.
          2    1    1    2  501    0  0.30244257932E+02 -0.25737964973E+03 -0.12604010146E+04  0.12867671572E+04  0.00000000000E+00 0. -1.
          1    1    1    2  502    0 -0.24401847145E+02  0.59708900577E+01  0.63597891285E+03  0.63647488502E+03  0.00000000000E+00 0. -1.
         22    1    3    3    0    0 -0.56040765894E+02  0.10912434424E+03  0.12880923414E+03  0.17787779160E+03  0.00000000000E+00 0. -1.
         22    1    3    3    0    0  0.50198355108E+02  0.14228441544E+03  0.70810483832E+02  0.16666989636E+03  0.00000000000E+00 0. -1.
</event>
<event>
 7    1  0.6058736E-006  0.1391954E+03  0.7818608E-02  0.1257967E+00
          2   -1    0    0  502    0  0.00000000000E+00  0.00000000000E+00  0.10770810893E+04  0.10770810893E+04  0.00000000000E+00 0. -1.
          1   -1    0    0  501    0 -0.00000000000E+00 -0.00000000000E+00 -0.17852658616E+03  0.17852658616E+03  0.00000000000E+00 0. -1.
         25    2    1    2    0    0 -0.21096441949E+03  0.38266353583E+02  0.35963465987E+03  0.43695875002E+03  0.12500224211E+03 0.  0.
          2    1    1    2  501    0  0.12285444353E+03 -0.52059382433E+02 -0.10424931836E+03  0.16932605816E+03  0.00000000000E+00 0. -1.
          1    1    1    2  502    0  0.88109975964E+02  0.13793028850E+02  0.64316916167E+03  0.64932286732E+03  0.00000000000E+00 0. -1.
         22    1    3    3    0    0  0.14114958157E+02 -0.51681073510E+00  0.46953933798E+01  0.14884416552E+02  0.00000000000E+00 0. -1.
         22    1    3    3    0    0 -0.22507937765E+03  0.38783164318E+02  0.35493926649E+03  0.42207433347E+03  0.00000000000E+00 0. -1.
</event>
<event>
 7    1  0.6058736E-006  0.7466177E+02  0.7818608E-02  0.1485262E+00
          2   -1    0    0  502    0  0.00000000000E+00  0.00000000000E+00  0.40452372721E+03  0.40452372721E+03  0.00000000000E+00 0. -1.
          1   -1    0    0  501    0 -0.00000000000E+00 -0.00000000000E+00 -0.15124403166E+03  0.15124403166E+03  0.00000000000E+00 0. -1.
         25    2    1    2    0    0 -0.52328581832E+02  0.83757326067E+02  0.28533108506E+03  0.32679006722E+03  0.12499739911E+03 0.  0.
          2    1    1    2  501    0  0.41285397696E+02 -0.61207965721E+02 -0.11813439056E+03  0.13930769312E+03  0.00000000000E+00 0. -1.
          1    1    1    2  502    0  0.11043184136E+02 -0.22549360345E+02  0.86083001051E+02  0.89669998538E+02  0.00000000000E+00 0. -1.
         22    1    3    3    0    0 -0.89061025756E+01  0.87331004202E+02  0.86497704231E+02  0.12323910011E+03  0.00000000000E+00 0.  1.
         22    1    3    3    0    0 -0.43422479256E+02 -0.35736781357E+01  0.19883338083E+03  0.20355096711E+03  0.00000000000E+00 0.  1.
</event>
<event>
 7    1  0.6058736E-006  0.1184305E+03  0.7818608E-02  0.1309556E+00
          2   -1    0    0  502    0  0.00000000000E+00  0.00000000000E+00  0.12240836677E+03  0.12240836677E+03  0.00000000000E+00 0. -1.
          1   -1    0    0  501    0 -0.00000000000E+00 -0.00000000000E+00 -0.18825153726E+04  0.18825153726E+04  0.00000000000E+00 0. -1.
         25    2    1    2    0    0  0.92322840498E+02 -0.11279836368E+03 -0.27324384588E+03  0.33396747998E+03  0.12500040259E+03 0.  0.
          2    1    1    2  501    0 -0.64333000778E+02 -0.38058359638E+00 -0.15410488361E+04  0.15423911291E+04  0.00000000000E+00 0. -1.
          1    1    1    2  502    0 -0.27989839720E+02  0.11317894728E+03  0.54185676133E+02  0.12856513032E+03  0.00000000000E+00 0. -1.
         22    1    3    3    0    0  0.64208283358E+02 -0.76997703973E+02 -0.27036623613E+03  0.28835611959E+03  0.00000000000E+00 0. -1.
         22    1    3    3    0    0  0.28114557139E+02 -0.35800659711E+02 -0.28776097560E+01  0.45611360392E+02  0.00000000000E+00 0. -1.
</event>
<event>
 7    1  0.6058736E-006  0.7139312E+02  0.7818608E-02  0.1405039E+00
          2   -1    0    0  502    0  0.00000000000E+00  0.00000000000E+00  0.10948299488E+04  0.10948299488E+04  0.00000000000E+00 0. -1.
          1   -1    0    0  501    0 -0.00000000000E+00 -0.00000000000E+00 -0.54748799941E+03  0.54748799941E+03  0.00000000000E+00 0. -1.
         25    2    1    2    0    0 -0.31956386116E+00 -0.64954247952E+02  0.29768535329E+03  0.32933286029E+03  0.12499762740E+03 0.  0.
          2    1    1    2  501    0 -0.46188291578E+02  0.54659755451E+02 -0.52852466812E+03  0.53334732769E+03  0.00000000000E+00 0. -1.
          1    1    1    2  502    0  0.46507855439E+02  0.10294492501E+02  0.77818126417E+03  0.77963776018E+03  0.00000000000E+00 0. -1.
         22    1    3    3    0    0  0.41929714310E+02  0.78892848466E+01  0.40940612402E+02  0.59131002878E+02  0.00000000000E+00 0.  1.
         22    1    3    3    0    0 -0.42249278171E+02 -0.72843532798E+02  0.25674474089E+03  0.27020185741E+03  0.00000000000E+00 0.  1.
</event>
<event>
 7    1  0.6058736E-006  0.4912305E+02  0.7818608E-02  0.1476626E+00
          2   -1    0    0  502    0  0.00000000000E+00  0.00000000000E+00  0.30726052182E+03  0.30726052182E+03  0.00000000000E+00 0. -1.
          1   -1    0    0  501    0 -0.00000000000E+00 -0.00000000000E+00 -0.39793190085E+03  0.39793190085E+03  0.00000000000E+00 0. -1.
         25    2    1    2    0    0 -0.23337406905E+01 -0.14429291737E+01 -0.23209283516E+03  0.26362841615E+03  0.12500131711E+03 0.  0.
          2    1    1    2  501    0  0.51359565000E+02 -0.16462572714E+01 -0.14350827629E+03  0.15243077263E+03  0.00000000000E+00 0. -1.
          1    1    1    2  502    0 -0.49025824309E+02  0.30891864451E+01  0.28492973243E+03  0.28913323389E+03  0.00000000000E+00 0. -1.
         22    1    3    3    0    0  0.54788468201E+01 -0.43200272058E+02 -0.21237507806E+03  0.21679357705E+03  0.00000000000E+00 0. -1.
         22    1    3    3    0    0 -0.78125875106E+01  0.41757342884E+02 -0.19717757094E+02  0.46834839096E+02  0.00000000000E+00 0. -1.
</event>
<event>
 7    1  0.6058736E-006  0.1223132E+03  0.7818608E-02  0.1295181E+00
          2   -1    0    0  502    0  0.00000000000E+00  0.00000000000E+00  0.17983984955E+04  0.17983984955E+04  0.00000000000E+00 0. -1.
          1   -1    0    0  501    0 -0.00000000000E+00 -0.00000000000E+00 -0.35988467344E+03  0.35988467344E+03  0.00000000000E+00 0. -1.
         25    2    1    2    0    0  0.28891124107E+02  0.18662146141E+03  0.12939043220E+03  0.26082420516E+03  0.12500046057E+03 0.  0.
          2    1    1    2  501    0 -0.24801548796E+02 -0.66616232962E+02 -0.28758617510E+03  0.29624086049E+03  0.00000000000E+00 0. -1.
          1    1    1    2  502    0 -0.40895753102E+01 -0.12000522845E+03  0.15967095649E+04  0.16012181033E+04  0.00000000000E+00 0. -1.
         22    1    3    3    0    0  0.74869891704E+02  0.13822748461E+03  0.10800570951E+03  0.19072905251E+03  0.00000000000E+00 0.  1.
         22    1    3    3    0    0 -0.45978767597E+02  0.48393976804E+02  0.21384722687E+02  0.70095152650E+02  0.00000000000E+00 0.  1.
</event>
<event>
 7    1  0.6058736E-006  0.8272734E+02  0.7818608E-02  0.1395516E+00
          2   -1    0    0  502    0  0.00000000000E+00  0.00000000000E+00  0.28074600490E+04  0.28074600490E+04  0.00000000000E+00 0. -1.
          1   -1    0    0  501    0 -0.00000000000E+00 -0.00000000000E+00 -0.14505828137E+03  0.14505828137E+03  0.00000000000E+00 0. -1.
         25    2    1    2    0    0  0.36212555549E+02 -0.33722682582E+02  0.22080614515E+02  0.13624263761E+03  0.12500373701E+03 0.  0.
          2    1    1    2  501    0 -0.74684143963E+02  0.55738722701E+02 -0.63066193122E+02  0.11252498071E+03  0.00000000000E+00 0. -1.
          1    1    1    2  502    0  0.38471588414E+02 -0.22016040119E+02  0.27033873462E+04  0.27037507120E+04  0.00000000000E+00 0. -1.
         22    1    3    3    0    0  0.82143528994E+02 -0.32743486599E+02  0.12427421686E+02  0.89298018343E+02  0.00000000000E+00 0. -1.
         22    1    3    3    0    0 -0.45930973444E+02 -0.97919598302E+00  0.96531928287E+01  0.46944619267E+02  0.00000000000E+00 0. -1.
</event>
<event>
 7    1  0.6058736E-006  0.9520383E+02  0.7818608E-02  0.1392702E+00
          2   -1    0    0  502    0  0.00000000000E+00  0.00000000000E+00  0.65780612738E+03  0.65780612738E+03  0.00000000000E+00 0. -1.
          1   -1    0    0  501    0 -0.00000000000E+00 -0.00000000000E+00 -0.12372384423E+04  0.12372384423E+04  0.00000000000E+00 0. -1.
         25    2    1    2    0    0  0.38639783683E+02 -0.82717589229E+02  0.99473364935E+02  0.18400467692E+03  0.12501015297E+03 0.  0.
          2    1    1    2  501    0  0.34185542272E+02  0.19572562397E+02 -0.11901432938E+04  0.11907950269E+04  0.00000000000E+00 0. -1.
          1    1    1    2  502    0 -0.72825325955E+02  0.63145026833E+02  0.51123761391E+03  0.52024486580E+03  0.00000000000E+00 0. -1.
         22    1    3    3    0    0  0.26382026587E+02 -0.38010363528E+02  0.12343431042E+03  0.13182119728E+03  0.00000000000E+00 0.  1.
         22    1    3    3    0    0  0.12257757096E+02 -0.44707225701E+02 -0.23960945489E+02  0.52183479643E+02  0.00000000000E+00 0.  1.
</event>
<event>
 7    1  0.6058736E-006  0.4864637E+02  0.7818608E-02  0.1520826E+00
          2   -1    0    0  502    0  0.00000000000E+00  0.00000000000E+00  0.32692760073E+04  0.32692760073E+04  0.00000000000E+00 0. -1.
          1   -1    0    0  501    0 -0.00000000000E+00 -0.00000000000E+00 -0.25736396249E+03  0.25736396249E+03  0.00000000000E+00 0. -1.
         25    2    1    2    0    0  0.55438058335E+02 -0.49779794148E+02  0.17286780431E+03  0.22596043197E+03  0.12499373117E+03 0.  0.
          2    1    1    2  501    0 -0.28737965782E+02  0.93182012169E+01 -0.22963683635E+03  0.23161557841E+03  0.00000000000E+00 0. -1.
          1    1    1    2  502    0 -0.26700092554E+02  0.40461592931E+02  0.30686810768E+04  0.30690639594E+04  0.00000000000E+00 0. -1.
         22    1    3    3    0    0  0.53484546507E+02 -0.26600484256E+02  0.18862959936E+03  0.19786184128E+03  0.00000000000E+00 0.  1.
         22    1    3    3    0    0  0.19535118285E+01 -0.23179309893E+02 -0.15761795055E+02  0.28098590693E+02  0.00000000000E+00 0.  1.
</event>
<event>
 7    1  0.6058736E-006  0.6651442E+02  0.7818608E-02  0.1450732E+00
          2   -1    0    0  502    0  0.00000000000E+00  0.00000000000E+00  0.12955426504E+04  0.12955426504E+04  0.00000000000E+00 0. -1.
          1   -1    0    0  501    0 -0.00000000000E+00 -0.00000000000E+00 -0.21665996139E+02  0.21665996139E+02  0.00000000000E+00 0. -1.
         25    2    1    2    0    0 -0.47427470197E+02 -0.71458103667E+02  0.70425351920E+03  0.72038465698E+03  0.12500163678E+03 0.  0.
          2    1    1    2  501    0  0.34869900968E+02  0.94139987929E+01  0.15847514426E+02  0.39442072464E+02  0.00000000000E+00 0. -1.
          1    1    1    2  502    0  0.12557569229E+02  0.62044104874E+02  0.55377562062E+03  0.55738191708E+03  0.00000000000E+00 0. -1.
         22    1    3    3    0    0 -0.62577975678E+02 -0.51892186909E+02  0.20518068254E+03  0.22069869639E+03  0.00000000000E+00 0.  1.
         22    1    3    3    0    0  0.15150505481E+02 -0.19565916758E+02  0.49907283666E+03  0.49968596059E+03  0.00000000000E+00 0.  1.
</event>
<event>
 7    1  0.6058736E-006  0.1177964E+03  0.7818608E-02  0.1251633E+00
          2   -1    0    0  502    0  0.00000000000E+00  0.00000000000E+00  0.22084906006E+04  0.22084906006E+04  0.00000000000E+00 0. -1.
          1   -1    0    0  501    0 -0.00000000000E+00 -0.00000000000E+00 -0.34099690470E+03  0.34099690470E+03  0.00000000000E+00 0. -1.
         25    2    1    2    0    0  0.50068474121E+02  0.17891936556E+03  0.36090794806E+02  0.22681746653E+03  0.12499850472E+03 0.  0.
          2    1    1    2  501    0  0.40554551075E+02 -0.10462759557E+03 -0.23106762670E+03  0.25687322452E+03  0.00000000000E+00 0. -1.
          1    1    1    2  502    0 -0.90623025196E+02 -0.74291769982E+02  0.20624705278E+04  0.20657968142E+04  0.00000000000E+00 0. -1.
         22    1    3    3    0    0 -0.23780396091E+02 -0.70835961522E+00 -0.12130223571E+02  0.26704893474E+02  0.00000000000E+00 0.  1.
         22    1    3    3    0    0  0.73848870213E+02  0.17962772517E+03  0.48221018377E+02  0.20011257306E+03  0.00000000000E+00 0.  1.
</event>
<event>
 7    1  0.6058736E-006  0.1213314E+03  0.7818608E-02  0.1418084E+00
          2   -1    0    0  502    0  0.00000000000E+00  0.00000000000E+00  0.19956088487E+04  0.19956088487E+04  0.00000000000E+00 0. -1.
          1   -1    0    0  501    0 -0.00000000000E+00 -0.00000000000E+00 -0.59621593876E+03  0.59621593876E+03  0.00000000000E+00 0. -1.
         25    2    1    2    0    0 -0.12341271177E+03  0.75372505491E+02  0.42984958760E+02  0.19591923408E+03  0.12499971037E+03 0.  0.
          2    1    1    2  501    0  0.16542087512E+02 -0.19171302485E+02 -0.51749612597E+03  0.51811525735E+03  0.00000000000E+00 0. -1.
          1    1    1    2  502    0  0.10687062426E+03 -0.56201203006E+02  0.18739040772E+04  0.18777902961E+04  0.00000000000E+00 0. -1.
         22    1    3    3    0    0 -0.71035971685E+02  0.48842781707E+02  0.87047931002E+02  0.12251150513E+03  0.00000000000E+00 0.  1.
         22    1    3    3    0    0 -0.52376740088E+02  0.26529723785E+02 -0.44062972242E+02  0.73407728947E+02  0.00000000000E+00 0.  1.
</event>
<event>
 7    1  0.6058736E-006  0.1067634E+03  0.7818608E-02  0.1452407E+00
          2   -1    0    0  502    0  0.00000000000E+00  0.00000000000E+00  0.29280683418E+04  0.29280683418E+04  0.00000000000E+00 0. -1.
          1   -1    0    0  501    0 -0.00000000000E+00 -0.00000000000E+00 -0.94837278701E+01  0.94837278701E+01  0.00000000000E+00 0. -1.
         25    2    1    2    0    0 -0.10123100458E+03 -0.43116612211E+02  0.15647582166E+04  0.15735943420E+04  0.12499647220E+03 0.  0.
          2    1    1    2  501    0  0.14136803896E+02 -0.17151600549E+02  0.39130494366E+02  0.45002468989E+02  0.00000000000E+00 0. -1.
          1    1    1    2  502    0  0.87094200689E+02  0.60268212760E+02  0.13146959029E+04  0.13189552587E+04  0.00000000000E+00 0. -1.
         22    1    3    3    0    0 -0.34414753272E+02 -0.35455680588E+02  0.12818526902E+04  0.12828046617E+04  0.00000000000E+00 0.  1.
         22    1    3    3    0    0 -0.66816251312E+02 -0.76609316231E+01  0.28290552641E+03  0.29078968033E+03  0.00000000000E+00 0.  1.
</event>
<event>
 7    1  0.6058736E-006  0.4632563E+02  0.7818608E-02  0.1511216E+00
          2   -1    0    0  502    0  0.00000000000E+00  0.00000000000E+00  0.24833149732E+04  0.24833149732E+04  0.00000000000E+00 0. -1.
          1   -1    0    0  501    0 -0.00000000000E+00 -0.00000000000E+00 -0.18567913312E+03  0.18567913312E+03  0.00000000000E+00 0. -1.
         25    2    1    2    0    0  0.63762471173E+02  0.10945047617E+02  0.12469628975E+03  0.18804241124E+03  0.12500134779E+03 0.  0.
          2    1    1    2  501    0 -0.43251068349E+02  0.15972313607E+02 -0.15042929389E+03  0.15733639813E+03  0.00000000000E+00 0. -1.
          1    1    1    2  502    0 -0.20511402824E+02 -0.26917361224E+02  0.23233688443E+04  0.23236152970E+04  0.00000000000E+00 0. -1.
         22    1    3    3    0    0 -0.38038557965E+02  0.81036970907E+01  0.33125239073E+02  0.51087016572E+02  0.00000000000E+00 0.  1.
         22    1    3    3    0    0  0.10180102914E+03  0.28413505261E+01  0.91571050675E+02  0.13695539467E+03  0.00000000000E+00 0.  1.
</event>
<event>
 7    1  0.6058736E-006  0.5102824E+02  0.7818608E-02  0.1526037E+00
          2   -1    0    0  502    0  0.00000000000E+00  0.00000000000E+00  0.51216794783E+03  0.51216794783E+03  0.00000000000E+00 0. -1.
          1   -1    0    0  501    0 -0.00000000000E+00 -0.00000000000E+00 -0.98201441591E+02  0.98201441591E+02  0.00000000000E+00 0. -1.
         25    2    1    2    0    0 -0.28376231203E+02  0.13952208374E+02  0.14689595307E+02  0.12977023717E+03  0.12499862251E+03 0.  0.
          2    1    1    2  501    0  0.55870176852E+02 -0.97118834267E+01 -0.20201860908E+02  0.60198941231E+02  0.00000000000E+00 0. -1.
          1    1    1    2  502    0 -0.27493945649E+02 -0.42403249476E+01  0.41947877184E+03  0.42040021102E+03  0.00000000000E+00 0. -1.
         22    1    3    3    0    0 -0.19279992278E+01 -0.26672605900E+01  0.67947881532E+02  0.68027539017E+02  0.00000000000E+00 0. -1.
         22    1    3    3    0    0 -0.26448231975E+02  0.16619468964E+02 -0.53258286225E+02  0.61742698150E+02  0.00000000000E+00 0. -1.
</event>
<event>
 7    1  0.6058736E-006  0.1211801E+03  0.7818608E-02  0.1389448E+00
          2   -1    0    0  502    0  0.00000000000E+00  0.00000000000E+00  0.32268863399E+02  0.32268863399E+02  0.00000000000E+00 0. -1.
          1   -1    0    0  501    0 -0.00000000000E+00 -0.00000000000E+00 -0.19647788538E+04  0.19647788538E+04  0.00000000000E+00 0. -1.
         25    2    1    2    0    0 -0.11372750504E+03  0.89237621582E+02 -0.40612758387E+03  0.44884496896E+03  0.12499957310E+03 0.  0.
          2    1    1    2  501    0  0.82151625913E+02 -0.85761953122E+02 -0.15055227375E+04  0.15101995614E+04  0.00000000000E+00 0. -1.
          1    1    1    2  502    0  0.31575879125E+02 -0.34756684600E+01 -0.20859669011E+02  0.38003186775E+02  0.00000000000E+00 0. -1.
         22    1    3    3    0    0 -0.11032867151E+03  0.11633917073E+03 -0.37236776226E+03  0.40541949728E+03  0.00000000000E+00 0. -1.
         22    1    3    3    0    0 -0.33988335326E+01 -0.27101549152E+02 -0.33759821603E+02  0.43425471678E+02  0.00000000000E+00 0. -1.
</event>
<event>
 7    1  0.1428746E-005  0.1313389E+03  0.7818608E-02  0.1327540E+00
          2   -1    0    0  502    0  0.00000000000E+00  0.00000000000E+00  0.20132141229E+04  0.20132141229E+04  0.00000000000E+00 0. -1.
          1   -1    0    0  501    0 -0.00000000000E+00 -0.00000000000E+00 -0.16224480322E+04  0.16224480322E+04  0.00000000000E+00 0. -1.
         25    2    1    2    0    0  0.78905437165E+02 -0.42420466535E+02 -0.27614626725E+03  0.31608632375E+03  0.12501295592E+03 0.  0.
          2    1    1    2  501    0 -0.12159820392E+03  0.67239483653E+02 -0.13223852473E+04  0.13296653765E+04  0.00000000000E+00 0. -1.
          1    1    1    2  502    0  0.42692766758E+02 -0.24819017117E+02  0.19892976052E+04  0.19899104548E+04  0.00000000000E+00 0. -1.
         22    1    3    3    0    0  0.87344729060E+02 -0.46440623418E+02 -0.28592757343E+03  0.30255645828E+03  0.00000000000E+00 0. -1.
         22    1    3    3    0    0 -0.84392918947E+01  0.40201568828E+01  0.97813061792E+01  0.13529865469E+02  0.00000000000E+00 0. -1.
</event>
<event>
 7    1  0.6058736E-006  0.8139172E+02  0.7818608E-02  0.1377287E+00
          2   -1    0    0  502    0  0.00000000000E+00  0.00000000000E+00  0.80145884889E+02  0.80145884889E+02  0.00000000000E+00 0. -1.
          1   -1    0    0  501    0 -0.00000000000E+00 -0.00000000000E+00 -0.67038989309E+03  0.67038989309E+03  0.00000000000E+00 0. -1.
         25    2    1    2    0    0 -0.39327912149E+02  0.64603023809E+02 -0.18265802634E+03  0.23390265234E+03  0.12500504320E+03 0.  0.
          2    1    1    2  501    0 -0.39539160776E+02 -0.34082624263E+02 -0.42674294647E+03  0.42992384543E+03  0.00000000000E+00 0. -1.
          1    1    1    2  502    0  0.78867072925E+02 -0.30520399546E+02  0.19156964612E+02  0.86709280203E+02  0.00000000000E+00 0. -1.
         22    1    3    3    0    0 -0.29838456044E+02  0.60214682136E+02 -0.20146900215E+03  0.21238149692E+03  0.00000000000E+00 0.  1.
         22    1    3    3    0    0 -0.94894561046E+01  0.43883416734E+01  0.18810975811E+02  0.21521155423E+02  0.00000000000E+00 0.  1.
</event>
<event>
 7    1  0.6058736E-006  0.9655185E+02  0.7818608E-02  0.1362455E+00
          2   -1    0    0  502    0  0.00000000000E+00  0.00000000000E+00  0.22561598591E+04  0.22561598591E+04  0.00000000000E+00 0. -1.
          1   -1    0    0  501    0 -0.00000000000E+00 -0.00000000000E+00 -0.23811925960E+02  0.23811925960E+02  0.00000000000E+00 0. -1.
         25    2    1    2    0    0  0.24147282775E+02  0.99538176217E+02  0.73906322978E+03  0.75652541825E+03  0.12500124419E+03 0.  0.
          2    1    1    2  501    0  0.25317683145E+02 -0.94176987033E+02  0.14799309385E+03  0.17723500160E+03  0.00000000000E+00 0. -1.
          1    1    1    2  502    0 -0.49464965920E+02 -0.53611891844E+01  0.13452916095E+04  0.13462113652E+04  0.00000000000E+00 0. -1.
         22    1    3    3    0    0  0.30347854789E+02  0.60461521787E+02  0.69085715069E+03  0.69416150179E+03  0.00000000000E+00 0. -1.
         22    1    3    3    0    0 -0.62005720138E+01  0.39076654430E+02  0.48206079098E+02  0.62363916464E+02  0.00000000000E+00 0. -1.
</event>
<event>
 7    1  0.6058736E-006  0.7815536E+02  0.7818608E-02  0.1455733E+00
          2   -1    0    0  502    0  0.00000000000E+00  0.00000000000E+00  0.29597958819E+03  0.29597958819E+03  0.00000000000E+00 0. -1.
          1   -1    0    0  501    0 -0.00000000000E+00 -0.00000000000E+00 -0.59037813257E+03  0.59037813257E+03  0.00000000000E+00 0. -1.
         25    2    1    2    0    0  0.15235151576E+02 -0.95950538897E+02 -0.32114598325E+03  0.35804775496E+03  0.12499934608E+03 0.  0.
          2    1    1    2  501    0 -0.25946762569E+02  0.68322617245E+02 -0.24463304203E+03  0.25531654816E+03  0.00000000000E+00 0. -1.
          1    1    1    2  502    0  0.10711610993E+02  0.27627921652E+02  0.27138048089E+03  0.27299341764E+03  0.00000000000E+00 0. -1.
         22    1    3    3    0    0  0.52829364200E+02 -0.64290424922E+02 -0.28537467784E+03  0.29725899013E+03  0.00000000000E+00 0.  1.
         22    1    3    3    0    0 -0.37594212625E+02 -0.31660113975E+02 -0.35771305402E+02  0.60788764833E+02  0.00000000000E+00 0.  1.
</event>
<event>
 7    1  0.6058736E-006  0.4715843E+02  0.7818608E-02  0.1527975E+00
          2   -1    0    0  502    0  0.00000000000E+00  0.00000000000E+00  0.20293258196E+04  0.20293258196E+04  0.00000000000E+00 0. -1.
          1   -1    0    0  501    0 -0.00000000000E+00 -0.00000000000E+00 -0.59643761946E+02  0.59643761946E+02  0.00000000000E+00 0. -1.
         25    2    1    2    0    0 -0.58521537218E+01 -0.20536781817E+02  0.13059324297E+04  0.13120746642E+04  0.12499762537E+03 0.  0.
          2    1    1    2  501    0  0.31699149966E+02  0.35202632475E+02 -0.46290318828E+02  0.66233337972E+02  0.00000000000E+00 0. -1.
          1    1    1    2  502    0 -0.25846996244E+02 -0.14665850657E+02  0.71003994678E+03  0.71066157938E+03  0.00000000000E+00 0. -1.
         22    1    3    3    0    0 -0.64877847179E+02 -0.18007488457E+02  0.74715327184E+03  0.75018092239E+03  0.00000000000E+00 0.  1.
         22    1    3    3    0    0  0.59025693458E+02 -0.25292933601E+01  0.55877915787E+03  0.56189374181E+03  0.00000000000E+00 0.  1.
</event>
<event>
 7    1  0.6058736E-006  0.6384993E+02  0.7818608E-02  0.1480587E+00
          2   -1    0    0  502    0  0.00000000000E+00  0.00000000000E+00  0.81242743746E+03  0.81242743746E+03  0.00000000000E+00 0. -1.
          1   -1    0    0  501    0 -0.00000000000E+00 -0.00000000000E+00 -0.32021985336E+03  0.32021985336E+03  0.00000000000E+00 0. -1.
         25    2    1    2    0    0 -0.63796820891E+02  0.24702282756E+01  0.15576301021E+03  0.20967445017E+03  0.12500049328E+03 0.  0.
          2    1    1    2  501    0  0.57874689080E+02  0.27287792196E+02 -0.28940210750E+03  0.29639109816E+03  0.00000000000E+00 0. -1.
          1    1    1    2  502    0  0.59221318105E+01 -0.29758020471E+02  0.62584668139E+03  0.62658174250E+03  0.00000000000E+00 0. -1.
         22    1    3    3    0    0  0.36461204088E+02  0.14719034845E+02  0.41485187924E+02  0.57158465755E+02  0.00000000000E+00 0.  1.
         22    1    3    3    0    0 -0.10025802498E+03 -0.12248806570E+02  0.11427782229E+03  0.15251598442E+03  0.00000000000E+00 0.  1.
</event>
<event>
 7    1  0.6058736E-006  0.1088588E+03  0.7818608E-02  0.1347108E+00
          2   -1    0    0  502    0  0.00000000000E+00  0.00000000000E+00  0.65411891914E+03  0.65411891914E+03  0.00000000000E+00 0. -1.
          1   -1    0    0  501    0 -0.00000000000E+00 -0.00000000000E+00 -0.69132051625E+03  0.69132051625E+03  0.00000000000E+00 0. -1.
         25    2    1    2    0    0  0.66133710714E+02 -0.42840022523E+02  0.29871410524E+03  0.33324742031E+03  0.12495915831E+03 0.  0.
          2    1    1    2  501    0 -0.10828378622E+03  0.15472298045E+02 -0.66771154746E+03  0.67661176532E+03  0.00000000000E+00 0. -1.
          1    1    1    2  502    0  0.42150075506E+02  0.27367724479E+02  0.33179584510E+03  0.33558024977E+03  0.00000000000E+00 0. -1.
         22    1    3    3    0    0  0.19213890402E+02 -0.76962365237E+02  0.10864833615E+03  0.13452449664E+03  0.00000000000E+00 0.  1.
         22    1    3    3    0    0  0.46919820312E+02  0.34122342714E+02  0.19006576909E+03  0.19872292367E+03  0.00000000000E+00 0.  1.
</event>
<event>
 7    1  0.6058736E-006  0.9898569E+02  0.7818608E-02  0.1305062E+00
          2   -1    0    0  502    0  0.00000000000E+00  0.00000000000E+00  0.50785089925E+02  0.50785089925E+02  0.00000000000E+00 0. -1.
          1   -1    0    0  501    0 -0.00000000000E+00 -0.00000000000E+00 -0.94550033268E+03  0.94550033268E+03  0.00000000000E+00 0. -1.
         25    2    1    2    0    0  0.62097857267E+02  0.27934058237E+02 -0.33857866961E+03  0.36728298618E+03  0.12499928376E+03 0.  0.
          2    1    1    2  501    0 -0.11452779846E+03  0.32741472373E+02 -0.53212598957E+03  0.54529504803E+03  0.00000000000E+00 0. -1.
          1    1    1    2  502    0  0.52429941191E+02 -0.60675530610E+02 -0.24010583587E+02  0.83707388397E+02  0.00000000000E+00 0. -1.
         22    1    3    3    0    0  0.75449497248E+02  0.22925321848E+02 -0.95773876230E+02  0.12405979359E+03  0.00000000000E+00 0.  1.
         22    1    3    3    0    0 -0.13351639981E+02  0.50087363890E+01 -0.24280479338E+03  0.24322319260E+03  0.00000000000E+00 0.  1.
</event>
<event>
 7    1  0.6058736E-006  0.1535756E+03  0.7818608E-02  0.1344744E+00
          2   -1    0    0  502    0  0.00000000000E+00  0.00000000000E+00  0.16557696101E+04  0.16557696101E+04  0.00000000000E+00 0. -1.
          1   -1    0    0  501    0 -0.00000000000E+00 -0.00000000000E+00 -0.15785480658E+03  0.15785480658E+03  0.00000000000E+00 0. -1.
         25    2    1    2    0    0 -0.10578745724E+03  0.89563851489E+02  0.38124409614E+03  0.42448140930E+03  0.12499894557E+03 0.  0.
          2    1    1    2  501    0 -0.33086401517E+02 -0.15060206125E+02 -0.12875356096E+03  0.13378714151E+03  0.00000000000E+00 0. -1.
          1    1    1    2  502    0  0.13887385876E+03 -0.74503645364E+02  0.12454242683E+04  0.12553558659E+04  0.00000000000E+00 0. -1.
         22    1    3    3    0    0 -0.75424558497E+02 -0.10218674402E+02  0.21656973822E+03  0.22955552017E+03  0.00000000000E+00 0.  1.
         22    1    3    3    0    0 -0.30362898747E+02  0.99782525892E+02  0.16467435792E+03  0.19492588912E+03  0.00000000000E+00 0.  1.
</event>
<event>
 7    1  0.6058736E-006  0.8530277E+02  0.7818608E-02  0.1370230E+00
          2   -1    0    0  502    0  0.00000000000E+00  0.00000000000E+00  0.11376752668E+03  0.11376752668E+03  0.00000000000E+00 0. -1.
          1   -1    0    0  501    0 -0.00000000000E+00 -0.00000000000E+00 -0.12392232233E+04  0.12392232233E+04  0.00000000000E+00 0. -1.
         25    2    1    2    0    0  0.71857288836E+02 -0.67383084972E+02 -0.36497377463E+03  0.39816421921E+03  0.12499975677E+03 0.  0.
          2    1    1    2  501    0  0.12002695055E+02  0.51403765683E+02 -0.83791228279E+03  0.83957334728E+03  0.00000000000E+00 0. -1.
          1    1    1    2  502    0 -0.83859983891E+02  0.15979319288E+02  0.77430360767E+02  0.11525318352E+03  0.00000000000E+00 0. -1.
         22    1    3    3    0    0  0.10796602025E+03 -0.48786944880E+02 -0.27639704162E+03  0.30071939102E+03  0.00000000000E+00 0. -1.
         22    1    3    3    0    0 -0.36108731413E+02 -0.18596140091E+02 -0.88576733010E+02  0.97444828191E+02  0.00000000000E+00 0. -1.
</event>
<event>
 7    1  0.6058736E-006  0.4049484E+02  0.7818608E-02  0.1574492E+00
          2   -1    0    0  502    0  0.00000000000E+00  0.00000000000E+00  0.15828162711E+04  0.15828162711E+04  0.00000000000E+00 0. -1.
          1   -1    0    0  501    0 -0.00000000000E+00 -0.00000000000E+00 -0.91535597704E+03  0.91535597704E+03  0.00000000000E+00 0. -1.
         25    2    1    2    0    0  0.12143868991E+01  0.23146315459E+02  0.98443635874E+02  0.16078944949E+03  0.12499948387E+03 0.  0.
          2    1    1    2  501    0  0.24179747290E+02  0.86502217089E+01 -0.88371163757E+03  0.88408469327E+03  0.00000000000E+00 0. -1.
          1    1    1    2  502    0 -0.25394134189E+02 -0.31796537168E+02  0.14527282957E+04  0.14532981053E+04  0.00000000000E+00 0. -1.
         22    1    3    3    0    0 -0.26301623615E+02  0.62355391461E+02  0.23102163154E+02  0.71510000639E+02  0.00000000000E+00 0. -1.
         22    1    3    3    0    0  0.27516010514E+02 -0.39209076002E+02  0.75341472720E+02  0.89279448851E+02  0.00000000000E+00 0. -1.
</event>
<event>
 7    1  0.6058736E-006  0.5719256E+02  0.7818608E-02  0.1462966E+00
          2   -1    0    0  502    0  0.00000000000E+00  0.00000000000E+00  0.84813052332E+03  0.84813052332E+03  0.00000000000E+00 0. -1.
          1   -1    0    0  501    0 -0.00000000000E+00 -0.00000000000E+00 -0.34237068349E+02  0.34237068349E+02  0.00000000000E+00 0. -1.
         25    2    1    2    0    0 -0.74521450645E+01  0.21031562649E+02  0.18387244594E+03  0.22345433521E+03  0.12499960982E+03 0.  0.
          2    1    1    2  501    0 -0.24923607499E+02  0.29236568102E+02  0.15398639656E+02  0.41389385455E+02  0.00000000000E+00 0. -1.
          1    1    1    2  502    0  0.32375752563E+02 -0.50268130751E+02  0.61462236937E+03  0.61752387100E+03  0.00000000000E+00 0. -1.
         22    1    3    3    0    0 -0.14558168554E+02 -0.50947275223E+02  0.60316432278E+02  0.80284725366E+02  0.00000000000E+00 0. -1.
         22    1    3    3    0    0  0.71060234892E+01  0.71978837872E+02  0.12355601366E+03  0.14316960985E+03  0.00000000000E+00 0. -1.
</event>
<event>
 7    1  0.6058736E-006  0.5782075E+02  0.7818608E-02  0.1462368E+00
          2   -1    0    0  502    0  0.00000000000E+00  0.00000000000E+00  0.10574270722E+03  0.10574270722E+03  0.00000000000E+00 0. -1.
          1   -1    0    0  501    0 -0.00000000000E+00 -0.00000000000E+00 -0.16282772320E+03  0.16282772320E+03  0.00000000000E+00 0. -1.
         25    2    1    2    0    0  0.10758787486E+02  0.58499445828E+02  0.12343945292E+01  0.13843918966E+03  0.12500379528E+03 0.  0.
          2    1    1    2  501    0 -0.43979591701E+02 -0.39710909826E+02 -0.68557385609E+02  0.90616091104E+02  0.00000000000E+00 0. -1.
          1    1    1    2  502    0  0.33220804215E+02 -0.18788536003E+02  0.10237975097E+02  0.39515149650E+02  0.00000000000E+00 0. -1.
         22    1    3    3    0    0 -0.22133934150E+02  0.17830688423E+02 -0.54833049102E+02  0.61761701437E+02  0.00000000000E+00 0. -1.
         22    1    3    3    0    0  0.32892721636E+02  0.40668757405E+02  0.56067443631E+02  0.76677488227E+02  0.00000000000E+00 0. -1.
</event>
<event>
 7    1  0.6058736E-006  0.1278478E+03  0.7818608E-02  0.1408722E+00
          2   -1    0    0  502    0  0.00000000000E+00  0.00000000000E+00  0.95281827775E+02  0.95281827775E+02  0.00000000000E+00 0. -1.
          1   -1    0    0  501    0 -0.00000000000E+00 -0.00000000000E+00 -0.11932039234E+04  0.11932039234E+04  0.00000000000E+00 0. -1.
         25    2    1    2    0    0 -0.94229939954E+02  0.56496397614E+02 -0.38811224877E+03  0.42228829804E+03  0.12500065796E+03 0.  0.
          2    1    1    2  501    0  0.10919577758E+03 -0.77564717411E+02 -0.77999197277E+03  0.79140854230E+03  0.00000000000E+00 0. -1.
          1    1    1    2  502    0 -0.14965837628E+02  0.21068319797E+02  0.70182125886E+02  0.74788910869E+02  0.00000000000E+00 0. -1.
         22    1    3    3    0    0 -0.25700646361E+02 -0.11045514829E+02 -0.64816010388E+01  0.28714765771E+02  0.00000000000E+00 0.  1.
         22    1    3    3    0    0 -0.68529293592E+02  0.67541912443E+02 -0.38163064773E+03  0.39357353227E+03  0.00000000000E+00 0.  1.
</event>
<event>
 7    1  0.6058736E-006  0.6033078E+02  0.7818608E-02  0.1407792E+00
          2   -1    0    0  502    0  0.00000000000E+00  0.00000000000E+00  0.18296425494E+04  0.18296425494E+04  0.00000000000E+00 0. -1.
          1   -1    0    0  501    0 -0.00000000000E+00 -0.00000000000E+00 -0.61066530701E+02  0.61066530701E+02  0.00000000000E+00 0. -1.
         25    2    1    2    0    0  0.61782001496E+02 -0.15458711723E+02  0.32264066160E+03  0.35182165771E+03  0.12500197936E+03 0.  0.
          2    1    1    2  501    0 -0.24765625202E+02  0.56358895016E+02 -0.25344845917E+02  0.66573436546E+02  0.00000000000E+00 0. -1.
          1    1    1    2  502    0 -0.37016376294E+02 -0.40900183293E+02  0.14712802031E+04  0.14723139859E+04  0.00000000000E+00 0. -1.
         22    1    3    3    0    0 -0.25430309020E+02 -0.25295208698E+02  0.18597030663E+03  0.18939773797E+03  0.00000000000E+00 0.  1.
         22    1    3    3    0    0  0.87212310516E+02  0.98364969742E+01  0.13667035497E+03  0.16242391974E+03  0.00000000000E+00 0.  1.
</event>
<event>
 7    1  0.6058736E-006  0.1194789E+03  0.7818608E-02  0.1413294E+00
          2   -1    0    0  502    0  0.00000000000E+00  0.00000000000E+00  0.80601374877E+03  0.80601374877E+03  0.00000000000E+00 0. -1.
          1   -1    0    0  501    0 -0.00000000000E+00 -0.00000000000E+00 -0.66341608114E+03  0.66341608114E+03  0.00000000000E+00 0. -1.
         25    2    1    2    0    0  0.11169322852E+03 -0.63592929589E+02 -0.47031675791E+02  0.18535479248E+03  0.12499993031E+03 0.  0.
          2    1    1    2  501    0 -0.89422909259E+02  0.78294526064E+02 -0.54052251319E+03  0.55343570248E+03  0.00000000000E+00 0. -1.
          1    1    1    2  502    0 -0.22270319259E+02 -0.14701596475E+02  0.73015185662E+03  0.73063933495E+03  0.00000000000E+00 0. -1.
         22    1    3    3    0    0  0.13650660177E+03 -0.69662176965E+02 -0.35417191190E+02  0.15729351118E+03  0.00000000000E+00 0. -1.
         22    1    3    3    0    0 -0.24813373253E+02  0.60692473755E+01 -0.11614484602E+02  0.28061281305E+02  0.00000000000E+00 0. -1.
</event>
<event>
 7    1  0.6058736E-006  0.4736860E+02  0.7818608E-02  0.1527089E+00
          2   -1    0    0  502    0  0.00000000000E+00  0.00000000000E+00  0.52634355906E+03  0.52634355906E+03  0.00000000000E+00 0. -1.
          1   -1    0    0  501    0 -0.00000000000E+00 -0.00000000000E+00 -0.19137069970E+04  0.19137069970E+04  0.00000000000E+00 0. -1.
         25    2    1    2    0    0  0.18310376035E+02  0.66826402862E+00  0.17051852648E+02  0.12748185574E+03  0.12500056567E+03 0.  0.
          2    1    1    2  501    0  0.29719082550E+02 -0.15612011059E+01 -0.18571019385E+04  0.18573403757E+04  0.00000000000E+00 0. -1.
          1    1    1    2  502    0 -0.48029458586E+02  0.89293707732E+00  0.45268664797E+03  0.45522832456E+03  0.00000000000E+00 0. -1.
         22    1    3    3    0    0  0.72155540605E+02  0.50221536029E+00  0.14338522632E+02  0.73568114639E+02  0.00000000000E+00 0.  1.
         22    1    3    3    0    0 -0.53845164570E+02  0.16604866833E+00  0.27133300167E+01  0.53913741101E+02  0.00000000000E+00 0.  1.
</event>
<event>
 7    1  0.6058736E-006  0.1566066E+03  0.7818608E-02  0.1247447E+00
          2   -1    0    0  502    0  0.00000000000E+00  0.00000000000E+00  0.74977218699E+03  0.74977218699E+03  0.00000000000E+00 0. -1.
          1   -1    0    0  501    0 -0.00000000000E+00 -0.00000000000E+00 -0.43456326899E+03  0.43456326899E+03  0.00000000000E+00 0. -1.
         25    2    1    2    0    0  0.10914651073E+03 -0.90933135304E+02 -0.12650689448E+03  0.22761910976E+03  0.12499867550E+03 0.  0.
          2    1    1    2  501    0 -0.17062070976E+03  0.27951392170E+02 -0.22525793980E+03  0.28396099445E+03  0.00000000000E+00 0. -1.
          1    1    1    2  502    0  0.61474199033E+02  0.62981743134E+02  0.66697375228E+03  0.67275535178E+03  0.00000000000E+00 0. -1.
         22    1    3    3    0    0  0.17829520501E+02 -0.98398095106E+00  0.24008505377E+02  0.29921035247E+02  0.00000000000E+00 0.  1.
         22    1    3    3    0    0  0.91316990227E+02 -0.89949154353E+02 -0.15051539985E+03  0.19769807451E+03  0.00000000000E+00 0.  1.
</event>
<event>
 7    1  0.6058736E-006  0.1056433E+03  0.7818608E-02  0.1375894E+00
          2   -1    0    0  502    0  0.00000000000E+00  0.00000000000E+00  0.81452114280E+03  0.81452114280E+03  0.00000000000E+00 0. -1.
          1   -1    0    0  501    0 -0.00000000000E+00 -0.00000000000E+00 -0.30564586301E+03  0.30564586301E+03  0.00000000000E+00 0. -1.
         25    2    1    2    0    0 -0.84065274108E+02  0.10865701555E+03  0.17101072299E+02  0.18652436745E+03  0.12500230254E+03 0.  0.
          2    1    1    2  501    0  0.52186600996E+01 -0.40343462433E+02 -0.21520076328E+03  0.21901186701E+03  0.00000000000E+00 0. -1.
          1    1    1    2  502    0  0.78846614008E+02 -0.68313553116E+02  0.70697497076E+03  0.71463077135E+03  0.00000000000E+00 0. -1.
         22    1    3    3    0    0 -0.43251604028E+02  0.39275247801E+02  0.69257623632E+02  0.90608304100E+02  0.00000000000E+00 0. -1.
         22    1    3    3    0    0 -0.40813670080E+02  0.69381767748E+02 -0.52156551333E+02  0.95916063348E+02  0.00000000000E+00 0. -1.
</event>
<event>
 7    1  0.6058736E-006  0.5364916E+02  0.7818608E-02  0.1429897E+00
          2   -1    0    0  502    0  0.00000000000E+00  0.00000000000E+00  0.81482962900E+03  0.81482962900E+03  0.00000000000E+00 0. -1.
          1   -1    0    0  501    0 -0.00000000000E+00 -0.00000000000E+00 -0.16862095918E+04  0.16862095918E+04  0.00000000000E+00 0. -1.
         25    2    1    2    0    0  0.68472403455E+01  0.28696642164E+02 -0.26798020693E+03  0.29716477048E+03  0.12499250992E+03 0.  0.
          2    1    1    2  501    0 -0.53801701923E+02 -0.27445535148E+01 -0.14022201100E+04  0.14032545715E+04  0.00000000000E+00 0. -1.
          1    1    1    2  502    0  0.46954461577E+02 -0.25952088649E+02  0.79882035404E+03  0.80061987884E+03  0.00000000000E+00 0. -1.
         22    1    3    3    0    0  0.28077515657E+02  0.34192595426E+02 -0.27138859846E+03  0.27497136549E+03  0.00000000000E+00 0. -1.
         22    1    3    3    0    0 -0.21230275311E+02 -0.54959532623E+01  0.34083915286E+01  0.22193404986E+02  0.00000000000E+00 0. -1.
</event>
<event>
 7    1  0.6058736E-006  0.3180401E+03  0.7818608E-02  0.1170777E+00
          2   -1    0    0  502    0  0.00000000000E+00  0.00000000000E+00  0.10639492377E+04  0.10639492377E+04  0.00000000000E+00 0. -1.
          1   -1    0    0  501    0 -0.00000000000E+00 -0.00000000000E+00 -0.75989492450E+03  0.75989492450E+03  0.00000000000E+00 0. -1.
         25    2    1    2    0    0 -0.39157347038E+03  0.25971352373E+02  0.10619668518E+01  0.41186129574E+03  0.12499722117E+03 0.  0.
          2    1    1    2  501    0  0.90175145195E+02  0.39540085147E+02 -0.52200716048E+03  0.53121224641E+03  0.00000000000E+00 0. -1.
          1    1    1    2  502    0  0.30139832519E+03 -0.65511437520E+02  0.82499950684E+03  0.88077062006E+03  0.00000000000E+00 0. -1.
         22    1    3    3    0    0 -0.30522050831E+03  0.70190178782E+02  0.16514023671E+02  0.31362227738E+03  0.00000000000E+00 0.  1.
         22    1    3    3    0    0 -0.86352962072E+02 -0.44218826409E+02 -0.15452056819E+02  0.98239018356E+02  0.00000000000E+00 0.  1.
</event>
<event>
 7    1  0.6058736E-006  0.1095628E+03  0.7818608E-02  0.1337778E+00
          2   -1    0    0  502    0  0.00000000000E+00  0.00000000000E+00  0.19998956248E+04  0.19998956248E+04  0.00000000000E+00 0. -1.
          1   -1    0    0  501    0 -0.00000000000E+00 -0.00000000000E+00 -0.14964751199E+03  0.14964751199E+03  0.00000000000E+00 0. -1.
         25    2    1    2    0    0 -0.66935116115E+02 -0.68546944685E+02  0.16291339906E+03  0.22659861777E+03  0.12500865805E+03 0.  0.
          2    1    1    2  501    0  0.30655589589E+02  0.10870534030E+03 -0.90226612315E+02  0.14455953014E+03  0.00000000000E+00 0. -1.
          1    1    1    2  502    0  0.36279526526E+02 -0.40158395618E+02  0.17775613261E+04  0.17783849889E+04  0.00000000000E+00 0. -1.
         22    1    3    3    0    0 -0.92490748938E+02 -0.86193356514E+02  0.13207507501E+03  0.18283232424E+03  0.00000000000E+00 0.  1.
         22    1    3    3    0    0  0.25555632823E+02  0.17646411830E+02  0.30838324043E+02  0.43766293529E+02  0.00000000000E+00 0.  1.
</event>
<event>
 7    1  0.6058736E-006  0.6726171E+02  0.7818608E-02  0.1372879E+00
          2   -1    0    0  502    0  0.00000000000E+00  0.00000000000E+00  0.29416872102E+03  0.29416872102E+03  0.00000000000E+00 0. -1.
          1   -1    0    0  501    0 -0.00000000000E+00 -0.00000000000E+00 -0.95526697475E+02  0.95526697475E+02  0.00000000000E+00 0. -1.
         25    2    1    2    0    0  0.22043356740E+02  0.24257301456E+02  0.24567685137E+02  0.13153827428E+03  0.12499768077E+03 0.  0.
          2    1    1    2  501    0 -0.56279372547E+02 -0.80093461137E+02  0.34172127802E+02  0.10368251834E+03  0.00000000000E+00 0. -1.
          1    1    1    2  502    0  0.34236015807E+02  0.55836159681E+02  0.13990221061E+03  0.15447462588E+03  0.00000000000E+00 0. -1.
         22    1    3    3    0    0 -0.11824189278E+02  0.23107587374E+02  0.70116282951E+02  0.74766738468E+02  0.00000000000E+00 0. -1.
         22    1    3    3    0    0  0.33867546018E+02  0.11497140817E+01 -0.45548597814E+02  0.56771535813E+02  0.00000000000E+00 0. -1.
</event>
<event>
 7    1  0.6058736E-006  0.1939054E+03  0.7818608E-02  0.1361711E+00
          2   -1    0    0  502    0  0.00000000000E+00  0.00000000000E+00  0.12798523745E+03  0.12798523745E+03  0.00000000000E+00 0. -1.
          1   -1    0    0  501    0 -0.00000000000E+00 -0.00000000000E+00 -0.15033919583E+04  0.15033919583E+04  0.00000000000E+00 0. -1.
         25    2    1    2    0    0 -0.16542143937E+03 -0.76683015812E+02 -0.55515986879E+03  0.59755529259E+03  0.12500124109E+03 0.  0.
          2    1    1    2  501    0  0.17305407467E+03  0.10041503615E+03 -0.91460122319E+03  0.93622982739E+03  0.00000000000E+00 0. -1.
          1    1    1    2  502    0 -0.76326352994E+01 -0.23732020341E+02  0.94354371102E+02  0.97592075791E+02  0.00000000000E+00 0. -1.
         22    1    3    3    0    0 -0.12114250969E+03 -0.30023149196E+02 -0.49133421449E+03  0.50693807065E+03  0.00000000000E+00 0.  1.
         22    1    3    3    0    0 -0.44278929686E+02 -0.46659866616E+02 -0.63825654294E+02  0.90617221944E+02  0.00000000000E+00 0.  1.
</event>
<event>
 7    1  0.6058736E-006  0.1244968E+03  0.7818608E-02  0.1402325E+00
          2   -1    0    0  502    0  0.00000000000E+00  0.00000000000E+00  0.23954976530E+04  0.23954976530E+04  0.00000000000E+00 0. -1.
          1   -1    0    0  501    0 -0.00000000000E+00 -0.00000000000E+00 -0.21410845842E+03  0.21410845842E+03  0.00000000000E+00 0. -1.
         25    2    1    2    0    0 -0.10984757076E+03 -0.26881318600E+01 -0.43861259018E+02  0.17212306244E+03  0.12501529396E+03 0.  0.
          2    1    1    2  501    0 -0.11723914956E+02 -0.25323706377E+02 -0.10258197404E+03  0.10630993220E+03  0.00000000000E+00 0. -1.
          1    1    1    2  502    0  0.12157148572E+03  0.28011838237E+02  0.23278324277E+04  0.23311731168E+04  0.00000000000E+00 0. -1.
         22    1    3    3    0    0 -0.96076494910E+02 -0.29982925238E+02 -0.77233121580E+02  0.12686458824E+03  0.00000000000E+00 0.  1.
         22    1    3    3    0    0 -0.13771075855E+02  0.27294793378E+02  0.33371862563E+02  0.45258474197E+02  0.00000000000E+00 0.  1.
</event>
<event>
 7    1  0.6058736E-006  0.5645957E+02  0.7818608E-02  0.1459479E+00
          2   -1    0    0  502    0  0.00000000000E+00  0.00000000000E+00  0.31480793491E+03  0.31480793491E+03  0.00000000000E+00 0. -1.
          1   -1    0    0  501    0 -0.00000000000E+00 -0.00000000000E+00 -0.89052139277E+03  0.89052139277E+03  0.00000000000E+00 0. -1.
         25    2    1    2    0    0  0.16951288487E+02 -0.20589141474E+02 -0.37236742241E+03  0.39369195343E+03  0.12499839198E+03 0.  0.
          2    1    1    2  501    0  0.38708062723E+02  0.97355550913E+01 -0.50405264634E+03  0.50563046331E+03  0.00000000000E+00 0. -1.
          1    1    1    2  502    0 -0.55659351209E+02  0.10853586383E+02  0.30070661088E+03  0.30600691093E+03  0.00000000000E+00 0. -1.
         22    1    3    3    0    0 -0.15547029461E+02 -0.23362956662E+02 -0.98972212482E+01  0.29757232020E+02  0.00000000000E+00 0. -1.
         22    1    3    3    0    0  0.32498317947E+02  0.27738151882E+01 -0.36247020116E+03  0.36393472141E+03  0.00000000000E+00 0. -1.
</event>
<event>
 7    1  0.6058736E-006  0.7900804E+02  0.7818608E-02  0.1437945E+00
          2   -1    0    0  502    0  0.00000000000E+00  0.00000000000E+00  0.17864214939E+04  0.17864214939E+04  0.00000000000E+00 0. -1.
          1   -1    0    0  501    0 -0.00000000000E+00 -0.00000000000E+00 -0.28889762140E+03  0.28889762140E+03  0.00000000000E+00 0. -1.
         25    2    1    2    0    0 -0.60473239619E+02 -0.79940089905E+02 -0.11959962506E+03  0.19994010820E+03  0.12499818345E+03 0.  0.
          2    1    1    2  501    0  0.29268241783E+02  0.67930257293E+02 -0.11836098176E+03  0.13957246088E+03  0.00000000000E+00 0. -1.
          1    1    1    2  502    0  0.31204997836E+02  0.12009832612E+02  0.17354844793E+04  0.17358065462E+04  0.00000000000E+00 0. -1.
         22    1    3    3    0    0 -0.96739861304E+02 -0.69151589503E+02 -0.10726054260E+03  0.16014170942E+03  0.00000000000E+00 0. -1.
         22    1    3    3    0    0  0.36266621685E+02 -0.10788500402E+02 -0.12339082460E+02  0.39798398779E+02  0.00000000000E+00 0. -1.
</event>
<event>
 7    1  0.6058736E-006  0.1056536E+03  0.7818608E-02  0.1331044E+00
          2   -1    0    0  502    0  0.00000000000E+00  0.00000000000E+00  0.44286286823E+03  0.44286286823E+03  0.00000000000E+00 0. -1.
          1   -1    0    0  501    0 -0.00000000000E+00 -0.00000000000E+00 -0.59356234130E+03  0.59356234130E+03  0.00000000000E+00 0. -1.
         25    2    1    2    0    0 -0.62354892773E+02 -0.15075411702E+03  0.26984150299E+03  0.33919772969E+03  0.12500290652E+03 0.  0.
          2    1    1    2  501    0  0.48331262292E+02  0.92906836766E+02 -0.54727837857E+03  0.55720841243E+03  0.00000000000E+00 0. -1.
          1    1    1    2  502    0  0.14023630481E+02  0.57847280253E+02  0.12673740251E+03  0.14001906741E+03  0.00000000000E+00 0. -1.
         22    1    3    3    0    0 -0.58707554199E+02 -0.33739229235E+02  0.33713090504E+02  0.75640498284E+02  0.00000000000E+00 0.  1.
         22    1    3    3    0    0 -0.36473385741E+01 -0.11701488778E+03  0.23612841249E+03  0.26355723140E+03  0.00000000000E+00 0.  1.
</event>
<event>
 7    1  0.6058736E-006  0.1259688E+03  0.7818608E-02  0.1363325E+00
          2   -1    0    0  502    0  0.00000000000E+00  0.00000000000E+00  0.18015993322E+04  0.18015993322E+04  0.00000000000E+00 0. -1.
          1   -1    0    0  501    0 -0.00000000000E+00 -0.00000000000E+00 -0.94386830777E+02  0.94386830777E+02  0.00000000000E+00 0. -1.
         25    2    1    2    0    0 -0.86052216622E+02  0.53693809880E+02  0.71965685498E+03  0.73744086470E+03  0.12500012322E+03 0.  0.
          2    1    1    2  501    0  0.89255889554E+02 -0.91417117208E+02 -0.37216306230E+02  0.13307425216E+03  0.00000000000E+00 0. -1.
          1    1    1    2  502    0 -0.32036729317E+01  0.37723307328E+02  0.10247719527E+04  0.10254710461E+04  0.00000000000E+00 0. -1.
         22    1    3    3    0    0  0.23089131984E+02 -0.18948710804E+02  0.13404268780E+03  0.13733027274E+03  0.00000000000E+00 0. -1.
         22    1    3    3    0    0 -0.10914134861E+03  0.72642520685E+02  0.58561416717E+03  0.60011059196E+03  0.00000000000E+00 0. -1.
</event>
<event>
 7    1  0.6058736E-006  0.7070027E+02  0.7818608E-02  0.1503084E+00
          2   -1    0    0  502    0  0.00000000000E+00  0.00000000000E+00  0.22515458243E+03  0.22515458243E+03  0.00000000000E+00 0. -1.
          1   -1    0    0  501    0 -0.00000000000E+00 -0.00000000000E+00 -0.16160926248E+03  0.16160926248E+03  0.00000000000E+00 0. -1.
         25    2    1    2    0    0  0.36368586959E+02  0.34444562445E+02 -0.96495979059E+02  0.16566580610E+03  0.12499833334E+03 0.  0.
          2    1    1    2  501    0  0.22422839465E+02  0.68162723533E+01 -0.17715657008E+02  0.29378390046E+02  0.00000000000E+00 0. -1.
          1    1    1    2  502    0 -0.58791426423E+02 -0.41260834799E+02  0.17775695602E+03  0.19171964877E+03  0.00000000000E+00 0. -1.
         22    1    3    3    0    0  0.88859859507E+00 -0.39228447890E+02 -0.73463129346E-01  0.39238579589E+02  0.00000000000E+00 0.  1.
         22    1    3    3    0    0  0.35479988363E+02  0.73673010335E+02 -0.96422515930E+02  0.12642722651E+03  0.00000000000E+00 0.  1.
</event>
<event>
 7    1  0.6058736E-006  0.6426129E+02  0.7818608E-02  0.1395414E+00
          2   -1    0    0  502    0  0.00000000000E+00  0.00000000000E+00  0.36789681510E+03  0.36789681510E+03  0.00000000000E+00 0. -1.
          1   -1    0    0  501    0 -0.00000000000E+00 -0.00000000000E+00 -0.15471323117E+03  0.15471323117E+03  0.00000000000E+00 0. -1.
         25    2    1    2    0    0  0.43605104055E+02  0.36375926989E+02  0.22056971752E+03  0.25981047230E+03  0.12500347221E+03 0.  0.
          2    1    1    2  501    0  0.32852931532E+02 -0.46713660379E+02 -0.11616090056E+03  0.12944047279E+03  0.00000000000E+00 0. -1.
          1    1    1    2  502    0 -0.76458035587E+02  0.10337733390E+02  0.10877476697E+03  0.13335910118E+03  0.00000000000E+00 0. -1.
         22    1    3    3    0    0  0.54324917580E+02 -0.33937579324E+02  0.81999177015E+02  0.10405201099E+03  0.00000000000E+00 0. -1.
         22    1    3    3    0    0 -0.10719813524E+02  0.70313506313E+02  0.13857054051E+03  0.15575846131E+03  0.00000000000E+00 0. -1.
</event>
<event>
 7    1  0.6058736E-006  0.1021018E+03  0.7818608E-02  0.1395292E+00
          2   -1    0    0  502    0  0.00000000000E+00  0.00000000000E+00  0.46649746689E+02  0.46649746689E+02  0.00000000000E+00 0. -1.
          1   -1    0    0  501    0 -0.00000000000E+00 -0.00000000000E+00 -0.13893926730E+04  0.13893926730E+04  0.00000000000E+00 0. -1.
         25    2    1    2    0    0 -0.70748158661E+02  0.81779350196E+01 -0.69886885662E+03  0.71352301076E+03  0.12500091019E+03 0.  0.
          2    1    1    2  501    0 -0.31295078084E+02  0.17751094600E+02 -0.61123123560E+03  0.61228923447E+03  0.00000000000E+00 0. -1.
          1    1    1    2  502    0  0.10204323675E+03 -0.25929029620E+02 -0.32642834072E+02  0.11023017445E+03  0.00000000000E+00 0. -1.
         22    1    3    3    0    0 -0.48842320072E+02  0.52628205801E+02 -0.58431713921E+03  0.58871200043E+03  0.00000000000E+00 0.  1.
         22    1    3    3    0    0 -0.21905838589E+02 -0.44450270782E+02 -0.11455171741E+03  0.12481101033E+03  0.00000000000E+00 0.  1.
</event>
<event>
 7    1  0.6058736E-006  0.5176673E+02  0.7818608E-02  0.1481343E+00
          2   -1    0    0  502    0  0.00000000000E+00  0.00000000000E+00  0.24377316597E+03  0.24377316597E+03  0.00000000000E+00 0. -1.
          1   -1    0    0  501    0 -0.00000000000E+00 -0.00000000000E+00 -0.64266944013E+03  0.64266944013E+03  0.00000000000E+00 0. -1.
         25    2    1    2    0    0  0.18332572669E+02  0.72968970363E+02 -0.12857374891E+03  0.19445757177E+03  0.12498793724E+03 0.  0.
          2    1    1    2  501    0  0.10903536924E+02 -0.49926977307E+02 -0.47813835812E+03  0.48086160138E+03  0.00000000000E+00 0. -1.
          1    1    1    2  502    0 -0.29236109592E+02 -0.23041993056E+02  0.20781583287E+03  0.21112343295E+03  0.00000000000E+00 0. -1.
         22    1    3    3    0    0  0.12984667405E+02  0.92232331347E+02 -0.36173974610E+02  0.99919772680E+02  0.00000000000E+00 0.  1.
         22    1    3    3    0    0  0.53479052635E+01 -0.19263360984E+02 -0.92399774299E+02  0.94537799094E+02  0.00000000000E+00 0.  1.
</event>
<event>
 7    1  0.6058736E-006  0.8794322E+02  0.7818608E-02  0.1376871E+00
          2   -1    0    0  502    0  0.00000000000E+00  0.00000000000E+00  0.56242825093E+03  0.56242825093E+03  0.00000000000E+00 0. -1.
          1   -1    0    0  501    0 -0.00000000000E+00 -0.00000000000E+00 -0.13018288641E+03  0.13018288641E+03  0.00000000000E+00 0. -1.
         25    2    1    2    0    0 -0.10650534637E+03 -0.96944393949E+00 -0.18906598038E+02  0.16530649972E+03  0.12499780308E+03 0.  0.
          2    1    1    2  501    0  0.28619386408E+02 -0.39127732075E+02 -0.16737304166E+02  0.51285339489E+02  0.00000000000E+00 0. -1.
          1    1    1    2  502    0  0.77885959962E+02  0.40097176015E+02  0.46788926672E+03  0.47601929814E+03  0.00000000000E+00 0. -1.
         22    1    3    3    0    0 -0.61674663883E+02 -0.51846807832E+02 -0.45425185511E+02  0.92494881622E+02  0.00000000000E+00 0.  1.
         22    1    3    3    0    0 -0.44830682486E+02  0.50877363893E+02  0.26518587473E+02  0.72811618100E+02  0.00000000000E+00 0.  1.
</event>
<event>
 7    1  0.6058736E-006  0.1377905E+03  0.7818608E-02  0.1240482E+00
          2   -1    0    0  502    0  0.00000000000E+00  0.00000000000E+00  0.83762685491E+03  0.83762685491E+03  0.00000000000E+00 0. -1.
          1   -1    0    0  501    0 -0.00000000000E+00 -0.00000000000E+00 -0.38965624754E+03  0.38965624754E+03  0.00000000000E+00 0. -1.
         25    2    1    2    0    0  0.10226988006E+03 -0.16573212255E+02  0.39822689881E+03  0.43004821055E+03  0.12499200268E+03 0.  0.
          2    1    1    2  501    0 -0.72664635005E+02  0.11971898568E+03 -0.35335578103E+03  0.38009616243E+03  0.00000000000E+00 0. -1.
          1    1    1    2  502    0 -0.29605245051E+02 -0.10314577343E+03  0.40309948959E+03  0.41713872946E+03  0.00000000000E+00 0. -1.
         22    1    3    3    0    0  0.10087394733E+03  0.24824107790E+02  0.35620320891E+03  0.37104247144E+03  0.00000000000E+00 0.  1.
         22    1    3    3    0    0  0.13959327280E+01 -0.41397320045E+02  0.42023689897E+02  0.59005739108E+02  0.00000000000E+00 0.  1.
</event>
<event>
 7    1  0.6058736E-006  0.5955899E+02  0.7818608E-02  0.1528293E+00
          2   -1    0    0  502    0  0.00000000000E+00  0.00000000000E+00  0.62014479368E+03  0.62014479368E+03  0.00000000000E+00 0. -1.
          1   -1    0    0  501    0 -0.00000000000E+00 -0.00000000000E+00 -0.25012784731E+03  0.25012784731E+03  0.00000000000E+00 0. -1.
         25    2    1    2    0    0  0.45561797613E+02  0.67237022629E+02 -0.65033562932E+02  0.16264743110E+03  0.12501251106E+03 0.  0.
          2    1    1    2  501    0 -0.66575466294E+01 -0.22517472950E+02 -0.13372429414E+03  0.13577019687E+03  0.00000000000E+00 0. -1.
          1    1    1    2  502    0 -0.38904250984E+02 -0.44719549679E+02  0.56877480345E+03  0.57185501301E+03  0.00000000000E+00 0. -1.
         22    1    3    3    0    0 -0.29158754565E+02  0.62956338689E+02 -0.51937095545E+02  0.86667153193E+02  0.00000000000E+00 0. -1.
         22    1    3    3    0    0  0.74720552178E+02  0.42806839401E+01 -0.13096467387E+02  0.75980277907E+02  0.00000000000E+00 0. -1.
</event>
<event>
 7    1  0.6058736E-006  0.7671726E+02  0.7818608E-02  0.1463325E+00
          2   -1    0    0  502    0  0.00000000000E+00  0.00000000000E+00  0.31741646877E+03  0.31741646877E+03  0.00000000000E+00 0. -1.
          1   -1    0    0  501    0 -0.00000000000E+00 -0.00000000000E+00 -0.21408070089E+03  0.21408070089E+03  0.00000000000E+00 0. -1.
         25    2    1    2    0    0 -0.50519433771E+02  0.31248347943E+02  0.31695343112E+02  0.14201016852E+03  0.12503447825E+03 0.  0.
          2    1    1    2  501    0  0.76538089207E+02 -0.19455123515E+02 -0.14813080325E+03  0.16786695864E+03  0.00000000000E+00 0. -1.
          1    1    1    2  502    0 -0.26018655435E+02 -0.11793224428E+02  0.21977122802E+03  0.22162004251E+03  0.00000000000E+00 0. -1.
         22    1    3    3    0    0 -0.84299572487E+02  0.28929271369E+02  0.51349593591E+02  0.10285961999E+03  0.00000000000E+00 0. -1.
         22    1    3    3    0    0  0.33780138716E+02  0.23190765742E+01 -0.19654250479E+02  0.39150548524E+02  0.00000000000E+00 0. -1.
</event>
<event>
 7    1  0.6058736E-006  0.5888259E+02  0.7818608E-02  0.1440296E+00
          2   -1    0    0  502    0  0.00000000000E+00  0.00000000000E+00  0.48931427388E+03  0.48931427388E+03  0.00000000000E+00 0. -1.
          1   -1    0    0  501    0 -0.00000000000E+00 -0.00000000000E+00 -0.15576780172E+03  0.15576780172E+03  0.00000000000E+00 0. -1.
         25    2    1    2    0    0 -0.15826937797E+02  0.28144545045E+02  0.14453362862E+03  0.19380088018E+03  0.12500481584E+03 0.  0.
          2    1    1    2  501    0  0.58211551380E+02 -0.16029422543E+02 -0.12254942914E+03  0.13661584712E+03  0.00000000000E+00 0. -1.
          1    1    1    2  502    0 -0.42384613584E+02 -0.12115122501E+02  0.31156227268E+03  0.31466534830E+03  0.00000000000E+00 0. -1.
         22    1    3    3    0    0  0.52186459197E+02  0.40343552103E+00  0.38684650436E+02  0.64962231050E+02  0.00000000000E+00 0.  1.
         22    1    3    3    0    0 -0.68013396993E+02  0.27741109524E+02  0.10584897818E+03  0.12883864913E+03  0.00000000000E+00 0.  1.
</event>
<event>
 7    1  0.6058736E-006  0.7005110E+02  0.7818608E-02  0.1501134E+00
          2   -1    0    0  502    0  0.00000000000E+00  0.00000000000E+00  0.76879130185E+03  0.76879130185E+03  0.00000000000E+00 0. -1.
          1   -1    0    0  501    0 -0.00000000000E+00 -0.00000000000E+00 -0.25745552113E+03  0.25745552113E+03  0.00000000000E+00 0. -1.
         25    2    1    2    0    0  0.89055130908E+02  0.23434788407E+02  0.26039975979E+00  0.15525714775E+03  0.12499883387E+03 0.  0.
          2    1    1    2  501    0 -0.66435490285E+02 -0.15499216728E+02 -0.17327445900E+03  0.18622013379E+03  0.00000000000E+00 0. -1.
          1    1    1    2  502    0 -0.22619640623E+02 -0.79355716788E+01  0.68434983996E+03  0.68476954145E+03  0.00000000000E+00 0. -1.
         22    1    3    3    0    0 -0.24703995263E+02 -0.21618269315E+02 -0.19007803432E+01  0.32882364818E+02  0.00000000000E+00 0. -1.
         22    1    3    3    0    0  0.11375912617E+03  0.45053057722E+02  0.21611801030E+01  0.12237478293E+03  0.00000000000E+00 0. -1.
</event>
<event>
 7    1  0.6058736E-006  0.7450315E+02  0.7818608E-02  0.1429589E+00
          2   -1    0    0  502    0  0.00000000000E+00  0.00000000000E+00  0.38543653124E+04  0.38543653124E+04  0.00000000000E+00 0. -1.
          1   -1    0    0  501    0 -0.00000000000E+00 -0.00000000000E+00 -0.97205093053E+01  0.97205093053E+01  0.00000000000E+00 0. -1.
         25    2    1    2    0    0 -0.12647486723E-02  0.41047006258E+02  0.98430522647E+03  0.99305979766E+03  0.12500450448E+03 0.  0.
          2    1    1    2  501    0 -0.29163534638E+01  0.37651055019E+02  0.69678864856E+02  0.79254345428E+02  0.00000000000E+00 0. -1.
          1    1    1    2  502    0  0.29176182125E+01 -0.78698061277E+02  0.27906607117E+04  0.27917716786E+04  0.00000000000E+00 0. -1.
         22    1    3    3    0    0 -0.27683150643E+02  0.75291203878E+02  0.46298414903E+03  0.46988237301E+03  0.00000000000E+00 0. -1.
         22    1    3    3    0    0  0.27681885894E+02 -0.34244197621E+02  0.52132107745E+03  0.52317742465E+03  0.00000000000E+00 0. -1.
</event>
<event>
 7    1  0.6058736E-006  0.2499614E+03  0.7818608E-02  0.1344643E+00
          2   -1    0    0  502    0  0.00000000000E+00  0.00000000000E+00  0.28112520061E+04  0.28112520061E+04  0.00000000000E+00 0. -1.
          1   -1    0    0  501    0 -0.00000000000E+00 -0.00000000000E+00 -0.40304156419E+03  0.40304156419E+03  0.00000000000E+00 0. -1.
         25    2    1    2    0    0  0.22499190802E+03  0.46619808701E+02  0.12979047395E+03  0.29200323224E+03  0.12500222108E+03 0.  0.
          2    1    1    2  501    0  0.20063171496E+02  0.98585067993E+01 -0.31545861759E+03  0.31624968051E+03  0.00000000000E+00 0. -1.
          1    1    1    2  502    0 -0.24505507951E+03 -0.56478315500E+02  0.25938785856E+04  0.26060406576E+04  0.00000000000E+00 0. -1.
         22    1    3    3    0    0  0.17178619041E+03  0.51157186799E+02  0.15117542708E+03  0.23448147631E+03  0.00000000000E+00 0. -1.
         22    1    3    3    0    0  0.53205717602E+02 -0.45373780980E+01 -0.21384953129E+02  0.57521755935E+02  0.00000000000E+00 0. -1.
</event>
<event>
 7    1  0.6058736E-006  0.8440830E+02  0.7818608E-02  0.1326342E+00
          2   -1    0    0  502    0  0.00000000000E+00  0.00000000000E+00  0.16430790693E+04  0.16430790693E+04  0.00000000000E+00 0. -1.
          1   -1    0    0  501    0 -0.00000000000E+00 -0.00000000000E+00 -0.31744861944E+03  0.31744861944E+03  0.00000000000E+00 0. -1.
         25    2    1    2    0    0  0.32822008476E+02 -0.98018404592E+01  0.76780011249E+03  0.77866236708E+03  0.12499883542E+03 0.  0.
          2    1    1    2  501    0  0.30736528291E+02 -0.78613148728E+02 -0.30281489230E+03  0.31435906274E+03  0.00000000000E+00 0. -1.
          1    1    1    2  502    0 -0.63558536767E+02  0.88414989187E+02  0.86064522967E+03  0.86750625892E+03  0.00000000000E+00 0. -1.
         22    1    3    3    0    0  0.36711858619E+02 -0.59822125583E+02  0.29626982859E+03  0.30447045605E+03  0.00000000000E+00 0. -1.
         22    1    3    3    0    0 -0.38898501425E+01  0.50020285123E+02  0.47153028390E+03  0.47419191103E+03  0.00000000000E+00 0. -1.
</event>
<event>
 7    1  0.6058736E-006  0.2605306E+03  0.7818608E-02  0.1255071E+00
          2   -1    0    0  502    0  0.00000000000E+00  0.00000000000E+00  0.22658661931E+04  0.22658661931E+04  0.00000000000E+00 0. -1.
          1   -1    0    0  501    0 -0.00000000000E+00 -0.00000000000E+00 -0.12391163265E+04  0.12391163265E+04  0.00000000000E+00 0. -1.
         25    2    1    2    0    0 -0.84465021050E+02 -0.22981026785E+03  0.27998468098E+03  0.39236867734E+03  0.12495862668E+03 0.  0.
          2    1    1    2  501    0  0.38925985661E+02 -0.29814302874E+02 -0.11734086707E+04  0.11744326432E+04  0.00000000000E+00 0. -1.
          1    1    1    2  502    0  0.45539035389E+02  0.25962457073E+03  0.19201738564E+04  0.19381811990E+04  0.00000000000E+00 0. -1.
         22    1    3    3    0    0 -0.48178727544E+02 -0.24755357617E+02  0.11348221762E+03  0.12574669473E+03  0.00000000000E+00 0.  1.
         22    1    3    3    0    0 -0.36286293506E+02 -0.20505491024E+03  0.16650246336E+03  0.26662198261E+03  0.00000000000E+00 0.  1.
</event>
<event>
 7    1  0.6058736E-006  0.5685196E+02  0.7818608E-02  0.1533738E+00
          2   -1    0    0  502    0  0.00000000000E+00  0.00000000000E+00  0.40729115887E+03  0.40729115887E+03  0.00000000000E+00 0. -1.
          1   -1    0    0  501    0 -0.00000000000E+00 -0.00000000000E+00 -0.54499410484E+02  0.54499410484E+02  0.00000000000E+00 0. -1.
         25    2    1    2    0    0 -0.14921918214E+02  0.73689919948E+02  0.10942807188E+03  0.18235190162E+03  0.12499938066E+03 0.  0.
          2    1    1    2  501    0  0.14476192098E+02 -0.49961836553E+02  0.21460237687E+02  0.56269770312E+02  0.00000000000E+00 0. -1.
          1    1    1    2  502    0  0.44572611558E+00 -0.23728083395E+02  0.22190343882E+03  0.22316889742E+03  0.00000000000E+00 0. -1.
         22    1    3    3    0    0  0.89264973877E+01 -0.33920124237E+02  0.33556746717E+02  0.48541862697E+02  0.00000000000E+00 0. -1.
         22    1    3    3    0    0 -0.23848415602E+02  0.10761004418E+03  0.75871325159E+02  0.13381003893E+03  0.00000000000E+00 0. -1.
</event>
<event>
 7    1  0.8853690E-006  0.6198431E+02  0.7818608E-02  0.1426486E+00
          2   -1    0    0  502    0  0.00000000000E+00  0.00000000000E+00  0.11775060801E+04  0.11775060801E+04  0.00000000000E+00 0. -1.
          1   -1    0    0  501    0 -0.00000000000E+00 -0.00000000000E+00 -0.10603237146E+04  0.10603237146E+04  0.00000000000E+00 0. -1.
         25    2    1    2    0    0  0.58324102423E+02  0.75267065905E+02 -0.12788389625E+03  0.20259949799E+03  0.12500173412E+03 0.  0.
          2    1    1    2  501    0 -0.43952222539E+02 -0.15101644807E+02 -0.89363872969E+03  0.89484637605E+03  0.00000000000E+00 0. -1.
          1    1    1    2  502    0 -0.14371879884E+02 -0.60165421098E+02  0.11387049915E+04  0.11403839206E+04  0.00000000000E+00 0. -1.
         22    1    3    3    0    0  0.56337809788E+02  0.61989295753E+02 -0.10466021798E+02  0.84416581380E+02  0.00000000000E+00 0. -1.
         22    1    3    3    0    0  0.19862926351E+01  0.13277770152E+02 -0.11741787445E+03  0.11818291661E+03  0.00000000000E+00 0. -1.
</event>
<event>
 7    1  0.6058736E-006  0.9681857E+02  0.7818608E-02  0.1289902E+00
          2   -1    0    0  502    0  0.00000000000E+00  0.00000000000E+00  0.17952183432E+04  0.17952183432E+04  0.00000000000E+00 0. -1.
          1   -1    0    0  501    0 -0.00000000000E+00 -0.00000000000E+00 -0.88469102038E+03  0.88469102038E+03  0.00000000000E+00 0. -1.
         25    2    1    2    0    0  0.15235539041E+02  0.19015889302E+03  0.92426147625E+03  0.95199026396E+03  0.12503463498E+03 0.  0.
          2    1    1    2  501    0 -0.11012667936E+02 -0.95919959610E+02 -0.86553863853E+03  0.87090702850E+03  0.00000000000E+00 0. -1.
          1    1    1    2  502    0 -0.42228711057E+01 -0.94238933412E+02  0.85180448506E+03  0.85701207108E+03  0.00000000000E+00 0. -1.
         22    1    3    3    0    0  0.69969739481E+02  0.12222286581E+03  0.57631026744E+03  0.59326867246E+03  0.00000000000E+00 0.  1.
         22    1    3    3    0    0 -0.54734200440E+02  0.67936027208E+02  0.34795120881E+03  0.35872159149E+03  0.00000000000E+00 0.  1.
</event>
<event>
 7    1  0.6058736E-006  0.1189463E+03  0.7818608E-02  0.1375793E+00
          2   -1    0    0  502    0  0.00000000000E+00  0.00000000000E+00  0.22374891985E+03  0.22374891985E+03  0.00000000000E+00 0. -1.
          1   -1    0    0  501    0 -0.00000000000E+00 -0.00000000000E+00 -0.43113673078E+03  0.43113673078E+03  0.00000000000E+00 0. -1.
         25    2    1    2    0    0  0.12203993098E+03  0.82824120477E+02  0.46337786499E+02  0.19881074052E+03  0.12499976160E+03 0.  0.
          2    1    1    2  501    0 -0.10514664899E+03 -0.50853031110E+02 -0.34161909227E+03  0.36103386652E+03  0.00000000000E+00 0. -1.
          1    1    1    2  502    0 -0.16893281982E+02 -0.31971089367E+02  0.87893494842E+02  0.95041043591E+02  0.00000000000E+00 0. -1.
         22    1    3    3    0    0  0.15477847373E+02  0.84957025145E+02  0.14422425193E+02  0.87551506151E+02  0.00000000000E+00 0. -1.
         22    1    3    3    0    0  0.10656208360E+03 -0.21329046678E+01  0.31915361306E+02  0.11125923436E+03  0.00000000000E+00 0. -1.
</event>
<event>
 7    1  0.6058736E-006  0.6919185E+02  0.7818608E-02  0.1423618E+00
          2   -1    0    0  502    0  0.00000000000E+00  0.00000000000E+00  0.15991244823E+03  0.15991244823E+03  0.00000000000E+00 0. -1.
          1   -1    0    0  501    0 -0.00000000000E+00 -0.00000000000E+00 -0.14111998008E+03  0.14111998008E+03  0.00000000000E+00 0. -1.
         25    2    1    2    0    0 -0.47016168341E+02 -0.31427280018E+02  0.70952397068E+02  0.15445872576E+03  0.12500024519E+03 0.  0.
          2    1    1    2  501    0 -0.39496031334E+02  0.15841796391E+02 -0.38936640691E+02  0.57679814427E+02  0.00000000000E+00 0. -1.
          1    1    1    2  502    0  0.86512199675E+02  0.15585483627E+02 -0.13223288227E+02  0.88893888114E+02  0.00000000000E+00 0. -1.
         22    1    3    3    0    0 -0.69442644530E+02 -0.39819426550E+02  0.50259868262E+00  0.80050735259E+02  0.00000000000E+00 0.  1.
         22    1    3    3    0    0  0.22426476189E+02  0.83921465328E+01  0.70449798386E+02  0.74407990500E+02  0.00000000000E+00 0.  1.
</event>
<event>
 7    1  0.6058736E-006  0.1368608E+03  0.7818608E-02  0.1287730E+00
          2   -1    0    0  502    0  0.00000000000E+00  0.00000000000E+00  0.10487787435E+04  0.10487787435E+04  0.00000000000E+00 0. -1.
          1   -1    0    0  501    0 -0.00000000000E+00 -0.00000000000E+00 -0.70033313795E+02  0.70033313795E+02  0.00000000000E+00 0. -1.
         25    2    1    2    0    0  0.45636431417E+02  0.70832712280E+02  0.37329834794E+03  0.40258805109E+03  0.12500210119E+03 0.  0.
          2    1    1    2  501    0 -0.69930401721E+02 -0.13446026044E+03  0.54463391093E+02  0.16104683695E+03  0.00000000000E+00 0. -1.
          1    1    1    2  502    0  0.24293970304E+02  0.63627548160E+02  0.55098369067E+03  0.55517716925E+03  0.00000000000E+00 0. -1.
         22    1    3    3    0    0 -0.23736335950E+00  0.76218601243E+02  0.10170650587E+03  0.12709659654E+03  0.00000000000E+00 0.  1.
         22    1    3    3    0    0  0.45873794777E+02 -0.53858889630E+01  0.27159184208E+03  0.27549145455E+03  0.00000000000E+00 0.  1.
</event>
<event>
 7    1  0.6058736E-006  0.2860589E+02  0.7818608E-02  0.1643503E+00
          2   -1    0    0  502    0  0.00000000000E+00  0.00000000000E+00  0.19966095935E+03  0.19966095935E+03  0.00000000000E+00 0. -1.
          1   -1    0    0  501    0 -0.00000000000E+00 -0.00000000000E+00 -0.86777259362E+03  0.86777259362E+03  0.00000000000E+00 0. -1.
         25    2    1    2    0    0  0.63388516873E+01 -0.15196225410E+02 -0.47946479742E+02  0.13488895603E+03  0.12500023692E+03 0.  0.
          2    1    1    2  501    0  0.22039457381E+02  0.97778549100E+01 -0.77482972868E+03  0.77520478106E+03  0.00000000000E+00 0. -1.
          1    1    1    2  502    0 -0.28378309068E+02  0.54183704996E+01  0.15466457415E+03  0.15733981588E+03  0.00000000000E+00 0. -1.
         22    1    3    3    0    0  0.60619003515E+02  0.10764131800E+02 -0.41780232219E+02  0.74405093406E+02  0.00000000000E+00 0.  1.
         22    1    3    3    0    0 -0.54280151827E+02 -0.25960357210E+02 -0.61662475230E+01  0.60483862620E+02  0.00000000000E+00 0.  1.
</event>
<event>
 7    1  0.6058736E-006  0.1221794E+03  0.7818608E-02  0.1292665E+00
          2   -1    0    0  502    0  0.00000000000E+00  0.00000000000E+00  0.28530408146E+04  0.28530408146E+04  0.00000000000E+00 0. -1.
          1   -1    0    0  501    0 -0.00000000000E+00 -0.00000000000E+00 -0.32787160100E+03  0.32787160100E+03  0.00000000000E+00 0. -1.
         25    2    1    2    0    0 -0.50546843305E+02  0.17173972049E+03  0.92605680297E+03  0.95144642691E+03  0.12497834216E+03 0.  0.
          2    1    1    2  501    0  0.67736239471E+02 -0.10095005588E+03 -0.30273060932E+03  0.32622834601E+03  0.00000000000E+00 0. -1.
          1    1    1    2  502    0 -0.17189396167E+02 -0.70789664601E+02  0.19018430199E+04  0.19032376427E+04  0.00000000000E+00 0. -1.
         22    1    3    3    0    0  0.58770349970E+01  0.24182858637E+00  0.29533856082E+03  0.29539712851E+03  0.00000000000E+00 0. -1.
         22    1    3    3    0    0 -0.56423878302E+02  0.17149789190E+03  0.63071824214E+03  0.65604929841E+03  0.00000000000E+00 0. -1.
</event>
<event>
 7    1  0.6058736E-006  0.4384593E+02  0.7818608E-02  0.1487758E+00
          2   -1    0    0  502    0  0.00000000000E+00  0.00000000000E+00  0.24168535013E+03  0.24168535013E+03  0.00000000000E+00 0. -1.
          1   -1    0    0  501    0 -0.00000000000E+00 -0.00000000000E+00 -0.63397619307E+03  0.63397619307E+03  0.00000000000E+00 0. -1.
         25    2    1    2    0    0  0.40833590957E+02  0.62170247885E+02 -0.28057625986E+03  0.31603895106E+03  0.12500023647E+03 0.  0.
          2    1    1    2  501    0 -0.20941167834E+01 -0.41962079198E+02 -0.33220163212E+03  0.33484791444E+03  0.00000000000E+00 0. -1.
          1    1    1    2  502    0 -0.38739474174E+02 -0.20208168688E+02  0.22048704904E+03  0.22477467770E+03  0.00000000000E+00 0. -1.
         22    1    3    3    0    0 -0.22725234440E+01 -0.36747828595E+02 -0.85928221800E+02  0.93483830532E+02  0.00000000000E+00 0. -1.
         22    1    3    3    0    0  0.43106114401E+02  0.98918076481E+02 -0.19464803806E+03  0.22255512053E+03  0.00000000000E+00 0. -1.
</event>
<event>
 7    1  0.6058736E-006  0.4284291E+02  0.7818608E-02  0.1525805E+00
          2   -1    0    0  502    0  0.00000000000E+00  0.00000000000E+00  0.94991591294E+02  0.94991591294E+02  0.00000000000E+00 0. -1.
          1   -1    0    0  501    0 -0.00000000000E+00 -0.00000000000E+00 -0.32269889555E+03  0.32269889555E+03  0.00000000000E+00 0. -1.
         25    2    1    2    0    0 -0.43000567323E+02 -0.53981928033E+01 -0.10215394046E+03  0.16714832116E+03  0.12499977776E+03 0.  0.
          2    1    1    2  501    0  0.16263286914E+02 -0.28926719433E+02 -0.17875797757E+03  0.18181216721E+03  0.00000000000E+00 0. -1.
          1    1    1    2  502    0  0.26737280409E+02  0.34324912237E+02  0.53204613773E+02  0.68729998476E+02  0.00000000000E+00 0. -1.
         22    1    3    3    0    0 -0.16306660411E+02 -0.69507447701E+01  0.28622107144E+02  0.33666675570E+02  0.00000000000E+00 0. -1.
         22    1    3    3    0    0 -0.26693906912E+02  0.15525519668E+01 -0.13077604760E+03  0.13348164559E+03  0.00000000000E+00 0. -1.
</event>
<event>
 7    1  0.6058736E-006  0.6233036E+02  0.7818608E-02  0.1438576E+00
          2   -1    0    0  502    0  0.00000000000E+00  0.00000000000E+00  0.82707147698E+03  0.82707147698E+03  0.00000000000E+00 0. -1.
          1   -1    0    0  501    0 -0.00000000000E+00 -0.00000000000E+00 -0.10288857317E+03  0.10288857317E+03  0.00000000000E+00 0. -1.
         25    2    1    2    0    0 -0.83502632098E+02 -0.43744561620E+02  0.28001155322E+03  0.32080608764E+03  0.12499519866E+03 0.  0.
          2    1    1    2  501    0  0.24207830731E+02  0.34545346361E+02 -0.75256117496E+02  0.86272146400E+02  0.00000000000E+00 0. -1.
          1    1    1    2  502    0  0.59294801367E+02  0.91992152589E+01  0.51942746808E+03  0.52288181612E+03  0.00000000000E+00 0. -1.
         22    1    3    3    0    0 -0.26220556816E+02 -0.66710880698E+02  0.23139415451E+03  0.24224185011E+03  0.00000000000E+00 0. -1.
         22    1    3    3    0    0 -0.57282075282E+02  0.22966319078E+02  0.48617398713E+02  0.78564237528E+02  0.00000000000E+00 0. -1.
</event>
<event>
 7    1  0.6058736E-006  0.6263321E+02  0.7818608E-02  0.1439981E+00
          2   -1    0    0  502    0  0.00000000000E+00  0.00000000000E+00  0.13527333160E+04  0.13527333160E+04  0.00000000000E+00 0. -1.
          1   -1    0    0  501    0 -0.00000000000E+00 -0.00000000000E+00 -0.12550317661E+04  0.12550317661E+04  0.00000000000E+00 0. -1.
         25    2    1    2    0    0  0.63612467153E+02 -0.20339443003E+02  0.17707314540E+02  0.14282495783E+03  0.12500072268E+03 0.  0.
          2    1    1    2  501    0 -0.44681118390E+01  0.41298954247E+02 -0.11913371598E+04  0.11920611544E+04  0.00000000000E+00 0. -1.
          1    1    1    2  502    0 -0.59144355314E+02 -0.20959511244E+02  0.12713313951E+04  0.12728789699E+04  0.00000000000E+00 0. -1.
         22    1    3    3    0    0  0.42031976813E+02 -0.18588910862E+02 -0.52254189122E+02  0.69589761910E+02  0.00000000000E+00 0.  1.
         22    1    3    3    0    0  0.21580490340E+02 -0.17505321414E+01  0.69961503662E+02  0.73235195916E+02  0.00000000000E+00 0.  1.
</event>
<event>
 7    1  0.6058736E-006  0.6166855E+02  0.7818608E-02  0.1394283E+00
          2   -1    0    0  502    0  0.00000000000E+00  0.00000000000E+00  0.67714390035E+03  0.67714390035E+03  0.00000000000E+00 0. -1.
          1   -1    0    0  501    0 -0.00000000000E+00 -0.00000000000E+00 -0.70766402909E+03  0.70766402909E+03  0.00000000000E+00 0. -1.
         25    2    1    2    0    0  0.74076279634E+02 -0.42211381235E+02  0.93077014733E+02  0.17764177362E+03  0.12499669256E+03 0.  0.
          2    1    1    2  501    0 -0.14535180493E+02  0.58264313494E+02 -0.66226401020E+03  0.66498091770E+03  0.00000000000E+00 0. -1.
          1    1    1    2  502    0 -0.59541099142E+02 -0.16052932259E+02  0.53866686673E+03  0.54218523812E+03  0.00000000000E+00 0. -1.
         22    1    3    3    0    0  0.28371499696E+02  0.40810567934E+02  0.58490625076E+02  0.76756743494E+02  0.00000000000E+00 0. -1.
         22    1    3    3    0    0  0.45704779939E+02 -0.83021949169E+02  0.34586389657E+02  0.10088503012E+03  0.00000000000E+00 0. -1.
</event>
<event>
 7    1  0.6058736E-006  0.9859600E+02  0.7818608E-02  0.1317480E+00
          2   -1    0    0  502    0  0.00000000000E+00  0.00000000000E+00  0.34974942850E+03  0.34974942850E+03  0.00000000000E+00 0. -1.
          1   -1    0    0  501    0 -0.00000000000E+00 -0.00000000000E+00 -0.83324969112E+03  0.83324969112E+03  0.00000000000E+00 0. -1.
         25    2    1    2    0    0  0.28423452486E+02 -0.78116554321E+01  0.31591189628E+02  0.13227138264E+03  0.12501520225E+03 0.  0.
          2    1    1    2  501    0 -0.96535520039E+02  0.30975457580E+02 -0.77471499120E+03  0.78132061485E+03  0.00000000000E+00 0. -1.
          1    1    1    2  502    0  0.68112067553E+02 -0.23163802147E+02  0.25962353895E+03  0.26940712213E+03  0.00000000000E+00 0. -1.
         22    1    3    3    0    0  0.54257431906E+02 -0.53118608869E+02  0.13861410284E+02  0.77185453424E+02  0.00000000000E+00 0.  1.
         22    1    3    3    0    0 -0.25833979420E+02  0.45306953437E+02  0.17729779344E+02  0.55085929220E+02  0.00000000000E+00 0.  1.
</event>
<event>
 7    1  0.6058736E-006  0.2837189E+03  0.7818608E-02  0.1293702E+00
          2   -1    0    0  502    0  0.00000000000E+00  0.00000000000E+00  0.14940783843E+04  0.14940783843E+04  0.00000000000E+00 0. -1.
          1   -1    0    0  501    0 -0.00000000000E+00 -0.00000000000E+00 -0.12927226634E+04  0.12927226634E+04  0.00000000000E+00 0. -1.
         25    2    1    2    0    0 -0.18226275968E+03 -0.24796293332E+03 -0.21092874957E+02  0.33282864835E+03  0.12499867967E+03 0.  0.
          2    1    1    2  501    0  0.25657349869E+01  0.30962695579E+02 -0.11007107491E+04  0.11011491382E+04  0.00000000000E+00 0. -1.
          1    1    1    2  502    0  0.17969702469E+03  0.21700023775E+03  0.13231593449E+04  0.13528232612E+04  0.00000000000E+00 0. -1.
         22    1    3    3    0    0 -0.19202503177E+02 -0.41435547789E+01 -0.33953662716E+02  0.39226985434E+02  0.00000000000E+00 0.  1.
         22    1    3    3    0    0 -0.16306025650E+03 -0.24381937855E+03  0.12860787759E+02  0.29360166291E+03  0.00000000000E+00 0.  1.
</event>
<event>
 7    1  0.6058736E-006  0.1085854E+03  0.7818608E-02  0.1300583E+00
          2   -1    0    0  502    0  0.00000000000E+00  0.00000000000E+00  0.10284239990E+04  0.10284239990E+04  0.00000000000E+00 0. -1.
          1   -1    0    0  501    0 -0.00000000000E+00 -0.00000000000E+00 -0.68777742546E+02  0.68777742546E+02  0.00000000000E+00 0. -1.
         25    2    1    2    0    0 -0.17056817482E+03 -0.14471053341E+02  0.48468236838E+03  0.52900404850E+03  0.12500148585E+03 0.  0.
          2    1    1    2  501    0  0.96486745409E+02  0.32174794045E+02  0.16005027821E+02  0.10296149925E+03  0.00000000000E+00 0. -1.
          1    1    1    2  502    0  0.74081429407E+02 -0.17703740704E+02  0.45895886022E+03  0.46523619377E+03  0.00000000000E+00 0. -1.
         22    1    3    3    0    0 -0.14155820280E+03  0.11185479173E+01  0.21564726638E+03  0.25796069357E+03  0.00000000000E+00 0. -1.
         22    1    3    3    0    0 -0.29009972017E+02 -0.15589601259E+02  0.26903510200E+03  0.27104335493E+03  0.00000000000E+00 0. -1.
</event>
<event>
 7    1  0.6058736E-006  0.1760484E+03  0.7818608E-02  0.1229508E+00
          2   -1    0    0  502    0  0.00000000000E+00  0.00000000000E+00  0.87476431551E+02  0.87476431551E+02  0.00000000000E+00 0. -1.
          1   -1    0    0  501    0 -0.00000000000E+00 -0.00000000000E+00 -0.20294235725E+04  0.20294235725E+04  0.00000000000E+00 0. -1.
         25    2    1    2    0    0 -0.12699306340E+03  0.78699664668E+02 -0.65028165644E+03  0.67883134926E+03  0.12499957065E+03 0.  0.
          2    1    1    2  501    0 -0.57022019939E+02 -0.74702911488E+02 -0.12445263352E+04  0.12480696434E+04  0.00000000000E+00 0. -1.
          1    1    1    2  502    0  0.18401508334E+03 -0.39967531803E+01 -0.47139149296E+02  0.18999901139E+03  0.00000000000E+00 0. -1.
         22    1    3    3    0    0 -0.56856180325E+02  0.93832639278E+02 -0.26312928967E+03  0.28508632468E+03  0.00000000000E+00 0.  1.
         22    1    3    3    0    0 -0.70136883078E+02 -0.15132974610E+02 -0.38715236677E+03  0.39374502458E+03  0.00000000000E+00 0.  1.
</event>
<event>
 7    1  0.6058736E-006  0.1398218E+03  0.7818608E-02  0.1357581E+00
          2   -1    0    0  502    0  0.00000000000E+00  0.00000000000E+00  0.18824145184E+04  0.18824145184E+04  0.00000000000E+00 0. -1.
          1   -1    0    0  501    0 -0.00000000000E+00 -0.00000000000E+00 -0.25613143966E+03  0.25613143966E+03  0.00000000000E+00 0. -1.
         25    2    1    2    0    0  0.11539170583E+03  0.42844228349E+02 -0.37056045666E+02  0.17930149921E+03  0.12500001369E+03 0.  0.
          2    1    1    2  501    0 -0.14711172851E+03 -0.26260448675E+02 -0.10999180211E+03  0.18555233322E+03  0.00000000000E+00 0. -1.
          1    1    1    2  502    0  0.31720022683E+02 -0.16583779675E+02  0.17733309265E+04  0.17736921256E+04  0.00000000000E+00 0. -1.
         22    1    3    3    0    0  0.91740297536E+02 -0.15553960043E+02  0.18999085352E+02  0.94969327203E+02  0.00000000000E+00 0. -1.
         22    1    3    3    0    0  0.23651408291E+02  0.58398188393E+02 -0.56055131018E+02  0.84332172005E+02  0.00000000000E+00 0. -1.
</event>
<event>
 7    1  0.6058736E-006  0.3745977E+02  0.7818608E-02  0.1566090E+00
          2   -1    0    0  502    0  0.00000000000E+00  0.00000000000E+00  0.19350232360E+03  0.19350232360E+03  0.00000000000E+00 0. -1.
          1   -1    0    0  501    0 -0.00000000000E+00 -0.00000000000E+00 -0.45842090519E+03  0.45842090519E+03  0.00000000000E+00 0. -1.
         25    2    1    2    0    0  0.21349876136E+02  0.50694141809E+01  0.94040904527E+02  0.15795592923E+03  0.12499947073E+03 0.  0.
          2    1    1    2  501    0 -0.29812849973E+02  0.22938695475E+02 -0.42241739541E+03  0.42408895968E+03  0.00000000000E+00 0. -1.
          1    1    1    2  502    0  0.84629738376E+01 -0.28008109656E+02  0.63457909295E+02  0.69878339883E+02  0.00000000000E+00 0. -1.
         22    1    3    3    0    0  0.63505736000E+02  0.10505501976E+01  0.10611811429E+02  0.64394818910E+02  0.00000000000E+00 0. -1.
         22    1    3    3    0    0 -0.42155859864E+02  0.40188639833E+01  0.83429093099E+02  0.93561110318E+02  0.00000000000E+00 0. -1.
</event>
<event>
 7    1  0.6058736E-006  0.1261658E+03  0.7818608E-02  0.1361486E+00
          2   -1    0    0  502    0  0.00000000000E+00  0.00000000000E+00  0.18249695590E+04  0.18249695590E+04  0.00000000000E+00 0. -1.
          1   -1    0    0  501    0 -0.00000000000E+00 -0.00000000000E+00 -0.19925798600E+03  0.19925798600E+03  0.00000000000E+00 0. -1.
         25    2    1    2    0    0  0.68270810984E+00  0.10319009428E+03  0.33899533711E+03  0.37575538792E+03  0.12500244526E+03 0.  0.
          2    1    1    2  501    0  0.30601007946E+02  0.23175151692E+02 -0.17591735607E+03  0.18005672859E+03  0.00000000000E+00 0. -1.
          1    1    1    2  502    0 -0.31283716056E+02 -0.12636524598E+03  0.14626335919E+04  0.14684154285E+04  0.00000000000E+00 0. -1.
         22    1    3    3    0    0  0.12607508219E+02 -0.24225304071E+02  0.26420140926E+02  0.37997874511E+02  0.00000000000E+00 0.  1.
         22    1    3    3    0    0 -0.11924800109E+02  0.12741539836E+03  0.31257519619E+03  0.33775751341E+03  0.00000000000E+00 0.  1.
</event>
<event>
 7    1  0.6058736E-006  0.7277854E+02  0.7818608E-02  0.1375214E+00
          2   -1    0    0  502    0  0.00000000000E+00  0.00000000000E+00  0.67189800452E+03  0.67189800452E+03  0.00000000000E+00 0. -1.
          1   -1    0    0  501    0 -0.00000000000E+00 -0.00000000000E+00 -0.19772638797E+03  0.19772638797E+03  0.00000000000E+00 0. -1.
         25    2    1    2    0    0 -0.33739141347E+01  0.39916018306E+02  0.19913531529E+03  0.23853610490E+03  0.12505969668E+03 0.  0.
          2    1    1    2  501    0  0.55080036318E+02  0.22184545792E+02 -0.16932713700E+03  0.17943701903E+03  0.00000000000E+00 0. -1.
          1    1    1    2  502    0 -0.51706122183E+02 -0.62100564098E+02  0.44436343826E+03  0.45165126856E+03  0.00000000000E+00 0. -1.
         22    1    3    3    0    0  0.60814764868E+01  0.51090378931E+02  0.21254538355E+03  0.21868413578E+03  0.00000000000E+00 0. -1.
         22    1    3    3    0    0 -0.94553906215E+01 -0.11174360624E+02 -0.13410068261E+02  0.19851969120E+02  0.00000000000E+00 0. -1.
</event>
<event>
 7    1  0.6058736E-006  0.6982003E+02  0.7818608E-02  0.1411930E+00
          2   -1    0    0  502    0  0.00000000000E+00  0.00000000000E+00  0.33354372324E+02  0.33354372324E+02  0.00000000000E+00 0. -1.
          1   -1    0    0  501    0 -0.00000000000E+00 -0.00000000000E+00 -0.17553234618E+04  0.17553234618E+04  0.00000000000E+00 0. -1.
         25    2    1    2    0    0 -0.40376590418E+02 -0.76933226494E+02 -0.59290228084E+03  0.61213374252E+03  0.12500245482E+03 0.  0.
          2    1    1    2  501    0 -0.50938812615E+01  0.69032739433E+02 -0.11282640015E+04  0.11303853873E+04  0.00000000000E+00 0. -1.
          1    1    1    2  502    0  0.45470471680E+02  0.79004870607E+01 -0.80280720911E+00  0.46158704379E+02  0.00000000000E+00 0. -1.
         22    1    3    3    0    0  0.27295321384E+02  0.55041406788E+01 -0.38201938313E+02  0.47272806399E+02  0.00000000000E+00 0. -1.
         22    1    3    3    0    0 -0.67671911802E+02 -0.82437367173E+02 -0.55470034253E+03  0.56486093612E+03  0.00000000000E+00 0. -1.
</event>
<event>
 7    1  0.6058736E-006  0.1569141E+03  0.7818608E-02  0.1298703E+00
          2   -1    0    0  502    0  0.00000000000E+00  0.00000000000E+00  0.75282923377E+03  0.75282923377E+03  0.00000000000E+00 0. -1.
          1   -1    0    0  501    0 -0.00000000000E+00 -0.00000000000E+00 -0.20352323713E+03  0.20352323713E+03  0.00000000000E+00 0. -1.
         25    2    1    2    0    0  0.12527643734E+03  0.22480296263E+02  0.91928646801E+02  0.20068761353E+03  0.12500037059E+03 0.  0.
          2    1    1    2  501    0 -0.16713859515E+03  0.11042209186E+02 -0.10041800393E+03  0.19529725007E+03  0.00000000000E+00 0. -1.
          1    1    1    2  502    0  0.41862157809E+02 -0.33522505449E+02  0.55779535377E+03  0.56036760730E+03  0.00000000000E+00 0. -1.
         22    1    3    3    0    0  0.39997944748E+02 -0.24018189405E+02  0.92449274444E+02  0.10355470705E+03  0.00000000000E+00 0.  1.
         22    1    3    3    0    0  0.85278492592E+02  0.46498485668E+02 -0.52062764288E+00  0.97132906481E+02  0.00000000000E+00 0.  1.
</event>
<event>
 7    1  0.6058736E-006  0.6299762E+02  0.7818608E-02  0.1460862E+00
          2   -1    0    0  502    0  0.00000000000E+00  0.00000000000E+00  0.16702706396E+04  0.16702706396E+04  0.00000000000E+00 0. -1.
          1   -1    0    0  501    0 -0.00000000000E+00 -0.00000000000E+00 -0.71838779170E+03  0.71838779170E+03  0.00000000000E+00 0. -1.
         25    2    1    2    0    0 -0.26878555864E+02  0.64834254381E+02  0.10455254688E+03  0.17742872330E+03  0.12499511784E+03 0.  0.
          2    1    1    2  501    0  0.50161750017E+02 -0.38150145784E+02 -0.68028806179E+03  0.68320090881E+03  0.00000000000E+00 0. -1.
          1    1    1    2  502    0 -0.23283194152E+02 -0.26684108597E+02  0.15276183628E+04  0.15280287992E+04  0.00000000000E+00 0. -1.
         22    1    3    3    0    0 -0.41603761962E+02  0.20273314445E+02 -0.15277014400E+02  0.48736715698E+02  0.00000000000E+00 0. -1.
         22    1    3    3    0    0  0.14725206098E+02  0.44560939936E+02  0.11982956128E+03  0.12869200760E+03  0.00000000000E+00 0. -1.
</event>
<event>
 7    1  0.6058736E-006  0.1608598E+03  0.7818608E-02  0.1302579E+00
          2   -1    0    0  502    0  0.00000000000E+00  0.00000000000E+00  0.83946803058E+03  0.83946803058E+03  0.00000000000E+00 0. -1.
          1   -1    0    0  501    0 -0.00000000000E+00 -0.00000000000E+00 -0.72291377704E+03  0.72291377704E+03  0.00000000000E+00 0. -1.
         25    2    1    2    0    0 -0.30548709392E+02  0.18998351863E+03  0.68049052386E+02  0.23933905915E+03  0.12500220280E+03 0.  0.
          2    1    1    2  501    0 -0.26724556061E+02 -0.42826526330E+02 -0.62715087823E+03  0.62917925690E+03  0.00000000000E+00 0. -1.
          1    1    1    2  502    0  0.57273265452E+02 -0.14715699230E+03  0.67565607939E+03  0.69386349157E+03  0.00000000000E+00 0. -1.
         22    1    3    3    0    0 -0.18433663029E+02 -0.11251944625E+02 -0.91618412522E+01  0.23459444274E+02  0.00000000000E+00 0.  1.
         22    1    3    3    0    0 -0.12115046362E+02  0.20123546326E+03  0.77210893638E+02  0.21587961487E+03  0.00000000000E+00 0.  1.
</event>
<event>
 7    1  0.6058736E-006  0.6179955E+02  0.7818608E-02  0.1448290E+00
          2   -1    0    0  502    0  0.00000000000E+00  0.00000000000E+00  0.43589138348E+03  0.43589138348E+03  0.00000000000E+00 0. -1.
          1   -1    0    0  501    0 -0.00000000000E+00 -0.00000000000E+00 -0.30435880094E+03  0.30435880094E+03  0.00000000000E+00 0. -1.
         25    2    1    2    0    0  0.86652949504E+02 -0.23749264276E+02 -0.14368284465E+03  0.21057743933E+03  0.12500134758E+03 0.  0.
          2    1    1    2  501    0 -0.56982044947E+02 -0.24469095032E+01 -0.11979765250E+03  0.13268164288E+03  0.00000000000E+00 0. -1.
          1    1    1    2  502    0 -0.29670904558E+02  0.26196173780E+02  0.39501307970E+03  0.39699110221E+03  0.00000000000E+00 0. -1.
         22    1    3    3    0    0  0.96859252170E+02 -0.59316080133E+02 -0.12577950732E+03  0.16947152136E+03  0.00000000000E+00 0.  1.
         22    1    3    3    0    0 -0.10206302665E+02  0.35566815857E+02 -0.17903337339E+02  0.41105917970E+02  0.00000000000E+00 0.  1.
</event>
<event>
 7    1  0.6058736E-006  0.4267985E+02  0.7818608E-02  0.1505044E+00
          2   -1    0    0  502    0  0.00000000000E+00  0.00000000000E+00  0.64927339978E+03  0.64927339978E+03  0.00000000000E+00 0. -1.
          1   -1    0    0  501    0 -0.00000000000E+00 -0.00000000000E+00 -0.15492061232E+04  0.15492061232E+04  0.00000000000E+00 0. -1.
         25    2    1    2    0    0 -0.70293672762E+02  0.21410439230E+02  0.20701670432E+03  0.25275315186E+03  0.12501452944E+03 0.  0.
          2    1    1    2  501    0  0.38015896944E+02  0.47042584492E+01 -0.15250692246E+04  0.15255502215E+04  0.00000000000E+00 0. -1.
          1    1    1    2  502    0  0.32277775818E+02 -0.26114697680E+02  0.41811979682E+03  0.42017614966E+03  0.00000000000E+00 0. -1.
         22    1    3    3    0    0 -0.20907981422E+02 -0.50889016681E+02  0.58184769981E+02  0.80076857853E+02  0.00000000000E+00 0.  1.
         22    1    3    3    0    0 -0.49385691340E+02  0.72299455911E+02  0.14883193434E+03  0.17267629401E+03  0.00000000000E+00 0.  1.
</event>
<event>
 7    1  0.6058736E-006  0.1538524E+03  0.7818608E-02  0.1221506E+00
          2   -1    0    0  502    0  0.00000000000E+00  0.00000000000E+00  0.11472305544E+03  0.11472305544E+03  0.00000000000E+00 0. -1.
          1   -1    0    0  501    0 -0.00000000000E+00 -0.00000000000E+00 -0.66889141723E+03  0.66889141723E+03  0.00000000000E+00 0. -1.
         25    2    1    2    0    0  0.45961682990E+02 -0.73121728701E+02 -0.16561768445E+02  0.15283843617E+03  0.12500412747E+03 0.  0.
          2    1    1    2  501    0  0.15384802670E+02  0.17259698623E+03 -0.45714929464E+03  0.48888842224E+03  0.00000000000E+00 0. -1.
          1    1    1    2  502    0 -0.61346485660E+02 -0.99475257532E+02 -0.80457298705E+02  0.14188761425E+03  0.00000000000E+00 0. -1.
         22    1    3    3    0    0  0.70376234968E+01 -0.11985232122E+02  0.51543504388E+02  0.53384518150E+02  0.00000000000E+00 0.  1.
         22    1    3    3    0    0  0.38924059493E+02 -0.61136496579E+02 -0.68105272833E+02  0.99453918017E+02  0.00000000000E+00 0.  1.
</event>
<event>
 7    1  0.6058736E-006  0.5166504E+02  0.7818608E-02  0.1485265E+00
          2   -1    0    0  502    0  0.00000000000E+00  0.00000000000E+00  0.22606715167E+03  0.22606715167E+03  0.00000000000E+00 0. -1.
          1   -1    0    0  501    0 -0.00000000000E+00 -0.00000000000E+00 -0.14986368399E+04  0.14986368399E+04  0.00000000000E+00 0. -1.
         25    2    1    2    0    0  0.41862986113E+02  0.64992663404E+02 -0.14043211286E+03  0.20327871630E+03  0.12499800909E+03 0.  0.
          2    1    1    2  501    0 -0.42577166154E+02 -0.28716048932E+02 -0.13245885838E+04  0.13255837744E+04  0.00000000000E+00 0. -1.
          1    1    1    2  502    0  0.71418004097E+00 -0.36276614472E+02  0.19245100845E+03  0.19584150087E+03  0.00000000000E+00 0. -1.
         22    1    3    3    0    0  0.31219634748E+01 -0.29698936032E+02 -0.41500059554E+00  0.29865459696E+02  0.00000000000E+00 0. -1.
         22    1    3    3    0    0  0.38741022638E+02  0.94691599436E+02 -0.14001711226E+03  0.17341325660E+03  0.00000000000E+00 0. -1.
</event>
<event>
 7    1  0.6058736E-006  0.1817309E+03  0.7818608E-02  0.1310897E+00
          2   -1    0    0  502    0  0.00000000000E+00  0.00000000000E+00  0.18687195982E+03  0.18687195982E+03  0.00000000000E+00 0. -1.
          1   -1    0    0  501    0 -0.00000000000E+00 -0.00000000000E+00 -0.14459770820E+04  0.14459770820E+04  0.00000000000E+00 0. -1.
         25    2    1    2    0    0  0.10160552700E+03 -0.16202075158E+03 -0.38781289068E+03  0.45011026146E+03  0.12500400890E+03 0.  0.
          2    1    1    2  501    0 -0.12615991405E+03  0.12866566307E+03 -0.10161870955E+04  0.10320404012E+04  0.00000000000E+00 0. -1.
          1    1    1    2  502    0  0.24554387053E+02  0.33355088509E+02  0.14489486399E+03  0.15069837910E+03  0.00000000000E+00 0. -1.
         22    1    3    3    0    0  0.44796285580E+02 -0.15993060505E+03 -0.24110214562E+03  0.29277081523E+03  0.00000000000E+00 0. -1.
         22    1    3    3    0    0  0.56809241415E+02 -0.20901465285E+01 -0.14671074506E+03  0.15733944623E+03  0.00000000000E+00 0. -1.
</event>
<event>
 7    1  0.6058736E-006  0.1153532E+03  0.7818608E-02  0.1269547E+00
          2   -1    0    0  502    0  0.00000000000E+00  0.00000000000E+00  0.89784383914E+03  0.89784383914E+03  0.00000000000E+00 0. -1.
          1   -1    0    0  501    0 -0.00000000000E+00 -0.00000000000E+00 -0.36519691438E+03  0.36519691438E+03  0.00000000000E+00 0. -1.
         25    2    1    2    0    0 -0.60098300261E+02 -0.15635886023E+03 -0.70237577845E+02  0.22049724929E+03  0.12500328290E+03 0.  0.
          2    1    1    2  501    0 -0.33466966101E+02  0.90091778561E+02 -0.20508095671E+03  0.22648347664E+03  0.00000000000E+00 0. -1.
          1    1    1    2  502    0  0.93565266362E+02  0.66267081669E+02  0.80796545932E+03  0.81606002759E+03  0.00000000000E+00 0. -1.
         22    1    3    3    0    0  0.26964421462E+02 -0.41760279534E+02  0.16602137438E+02  0.52408319368E+02  0.00000000000E+00 0.  1.
         22    1    3    3    0    0 -0.87062721723E+02 -0.11459858070E+03 -0.86839715283E+02  0.16808892992E+03  0.00000000000E+00 0.  1.
</event>
<event>
 7    1  0.6058736E-006  0.7410749E+02  0.7818608E-02  0.1391959E+00
          2   -1    0    0  502    0  0.00000000000E+00  0.00000000000E+00  0.11665527560E+04  0.11665527560E+04  0.00000000000E+00 0. -1.
          1   -1    0    0  501    0 -0.00000000000E+00 -0.00000000000E+00 -0.25305882869E+02  0.25305882869E+02  0.00000000000E+00 0. -1.
         25    2    1    2    0    0 -0.19928632707E+02 -0.93394068900E+02  0.64337487375E+03  0.66232610311E+03  0.12500014476E+03 0.  0.
          2    1    1    2  501    0  0.43475256562E+02  0.26486703876E+02  0.36256434083E+02  0.62499379419E+02  0.00000000000E+00 0. -1.
          1    1    1    2  502    0 -0.23546623855E+02  0.66907365023E+02  0.46161556529E+03  0.46703315632E+03  0.00000000000E+00 0. -1.
         22    1    3    3    0    0 -0.49672576760E+02 -0.23899723682E+02  0.10423881264E+03  0.11791646083E+03  0.00000000000E+00 0. -1.
         22    1    3    3    0    0  0.29743944053E+02 -0.69494345218E+02  0.53913606111E+03  0.54440964228E+03  0.00000000000E+00 0. -1.
</event>
<event>
 7    1  0.6058736E-006  0.4542068E+02  0.7818608E-02  0.1534434E+00
          2   -1    0    0  502    0  0.00000000000E+00  0.00000000000E+00  0.83443584695E+03  0.83443584695E+03  0.00000000000E+00 0. -1.
          1   -1    0    0  501    0 -0.00000000000E+00 -0.00000000000E+00 -0.13027441725E+03  0.13027441725E+03  0.00000000000E+00 0. -1.
         25    2    1    2    0    0 -0.98921343118E+01  0.66221589132E+02  0.24008960033E+02  0.14382243472E+03  0.12500123751E+03 0.  0.
          2    1    1    2  501    0  0.19680926965E+02 -0.22068986505E+02 -0.66546570966E+02  0.72820499579E+02  0.00000000000E+00 0. -1.
          1    1    1    2  502    0 -0.97887926533E+01 -0.44152602627E+02  0.74669904063E+03  0.74806732989E+03  0.00000000000E+00 0. -1.
         22    1    3    3    0    0 -0.36703161937E+01 -0.37355872146E+02  0.10594314506E+01  0.37550696395E+02  0.00000000000E+00 0. -1.
         22    1    3    3    0    0 -0.62218181180E+01  0.10357746128E+03  0.22949528582E+02  0.10627173833E+03  0.00000000000E+00 0. -1.
</event>
<event>
 7    1  0.6058736E-006  0.1485124E+03  0.7818608E-02  0.1271205E+00
          2   -1    0    0  502    0  0.00000000000E+00  0.00000000000E+00  0.27061106986E+04  0.27061106986E+04  0.00000000000E+00 0. -1.
          1   -1    0    0  501    0 -0.00000000000E+00 -0.00000000000E+00 -0.47717104056E+02  0.47717104056E+02  0.00000000000E+00 0. -1.
         25    2    1    2    0    0 -0.14525761548E+03 -0.11616197426E+03  0.91642421384E+03  0.94342607552E+03  0.12500416449E+03 0.  0.
          2    1    1    2  501    0  0.72275023215E+02  0.12454308304E+03  0.12189095763E+03  0.18865859129E+03  0.00000000000E+00 0. -1.
          1    1    1    2  502    0  0.72982592270E+02 -0.83811087895E+01  0.16200784231E+04  0.16217431358E+04  0.00000000000E+00 0. -1.
         22    1    3    3    0    0 -0.15493755540E+03 -0.10707990455E+03  0.90881705373E+03  0.92812724838E+03  0.00000000000E+00 0. -1.
         22    1    3    3    0    0  0.96799399145E+01 -0.90820697036E+01  0.76071601019E+01  0.15298827134E+02  0.00000000000E+00 0. -1.
</event>
<event>
 7    1  0.6058736E-006  0.9952469E+02  0.7818608E-02  0.1294367E+00
          2   -1    0    0  502    0  0.00000000000E+00  0.00000000000E+00  0.15988809467E+04  0.15988809467E+04  0.00000000000E+00 0. -1.
          1   -1    0    0  501    0 -0.00000000000E+00 -0.00000000000E+00 -0.12956051490E+04  0.12956051490E+04  0.00000000000E+00 0. -1.
         25    2    1    2    0    0  0.29915420979E+02  0.16360593656E+03  0.12227857784E+03  0.24132560289E+03  0.12499664443E+03 0.  0.
          2    1    1    2  501    0  0.25880073412E+02 -0.95526378793E+02 -0.12327295625E+04  0.12366960991E+04  0.00000000000E+00 0. -1.
          1    1    1    2  502    0 -0.55795494391E+02 -0.68079557772E+02  0.14137267824E+04  0.14164643937E+04  0.00000000000E+00 0. -1.
         22    1    3    3    0    0 -0.49077892384E+02  0.55842729198E+02  0.40250116117E+02  0.84540651597E+02  0.00000000000E+00 0. -1.
         22    1    3    3    0    0  0.78993313363E+02  0.10776320737E+03  0.82028461721E+02  0.15678495129E+03  0.00000000000E+00 0. -1.
</event>
<event>
 7    1  0.6058736E-006  0.6825336E+02  0.7818608E-02  0.1366241E+00
          2   -1    0    0  502    0  0.00000000000E+00  0.00000000000E+00  0.21599530582E+04  0.21599530582E+04  0.00000000000E+00 0. -1.
          1   -1    0    0  501    0 -0.00000000000E+00 -0.00000000000E+00 -0.71248931322E+03  0.71248931322E+03  0.00000000000E+00 0. -1.
         25    2    1    2    0    0 -0.10837612640E+02  0.19387674127E+01  0.34464669325E+03  0.36678641680E+03  0.12501887742E+03 0.  0.
          2    1    1    2  501    0  0.19712935693E+02  0.65674510213E+02 -0.69909715229E+03  0.70245182715E+03  0.00000000000E+00 0. -1.
          1    1    1    2  502    0 -0.88753230528E+01 -0.67613277626E+02  0.18019142040E+04  0.18032041275E+04  0.00000000000E+00 0. -1.
         22    1    3    3    0    0 -0.52052679458E+01 -0.17402691279E+02 -0.31253652365E+01  0.18431396746E+02  0.00000000000E+00 0. -1.
         22    1    3    3    0    0 -0.56323446946E+01  0.19341458692E+02  0.34777205849E+03  0.34835502005E+03  0.00000000000E+00 0. -1.
</event>
<event>
 7    1  0.6058736E-006  0.1684193E+03  0.7818608E-02  0.1217791E+00
          2   -1    0    0  502    0  0.00000000000E+00  0.00000000000E+00  0.19568510640E+03  0.19568510640E+03  0.00000000000E+00 0. -1.
          1   -1    0    0  501    0 -0.00000000000E+00 -0.00000000000E+00 -0.20128024808E+04  0.20128024808E+04  0.00000000000E+00 0. -1.
         25    2    1    2    0    0 -0.52229124807E+02  0.57006845490E+02  0.79661647336E+01  0.14719462099E+03  0.12500053902E+03 0.  0.
          2    1    1    2  501    0  0.16322694402E+03 -0.58723936827E+02 -0.19122795011E+04  0.19201313565E+04  0.00000000000E+00 0. -1.
          1    1    1    2  502    0 -0.11099781921E+03  0.17170913373E+01  0.87195961947E+02  0.14116160970E+03  0.00000000000E+00 0. -1.
         22    1    3    3    0    0 -0.56138804739E+02  0.72428475223E+02  0.48478253421E+02  0.10367058636E+03  0.00000000000E+00 0.  1.
         22    1    3    3    0    0  0.39096799320E+01 -0.15421629733E+02 -0.40512088688E+02  0.43524034632E+02  0.00000000000E+00 0.  1.
</event>
<event>
 7    1  0.6058736E-006  0.7870571E+02  0.7818608E-02  0.1349191E+00
          2   -1    0    0  502    0  0.00000000000E+00  0.00000000000E+00  0.15053483674E+04  0.15053483674E+04  0.00000000000E+00 0. -1.
          1   -1    0    0  501    0 -0.00000000000E+00 -0.00000000000E+00 -0.12397118703E+03  0.12397118703E+03  0.00000000000E+00 0. -1.
         25    2    1    2    0    0 -0.88154642925E+02  0.59402208062E+02  0.75640433476E+03  0.77399459336E+03  0.12498099661E+03 0.  0.
          2    1    1    2  501    0  0.78222691287E+02  0.81527983994E+01 -0.99956446066E+02  0.12718706170E+03  0.00000000000E+00 0. -1.
          1    1    1    2  502    0  0.99319516378E+01 -0.67555006461E+02  0.72492929165E+03  0.72813789934E+03  0.00000000000E+00 0. -1.
         22    1    3    3    0    0  0.29235266096E+02  0.15103361086E+02  0.88773018798E+02  0.94675557386E+02  0.00000000000E+00 0. -1.
         22    1    3    3    0    0 -0.11738990902E+03  0.44298846975E+02  0.66763131596E+03  0.67931903597E+03  0.00000000000E+00 0. -1.
</event>
<event>
 7    1  0.6058736E-006  0.6376547E+02  0.7818608E-02  0.1424710E+00
          2   -1    0    0  502    0  0.00000000000E+00  0.00000000000E+00  0.49779054451E+03  0.49779054451E+03  0.00000000000E+00 0. -1.
          1   -1    0    0  501    0 -0.00000000000E+00 -0.00000000000E+00 -0.15611360746E+04  0.15611360746E+04  0.00000000000E+00 0. -1.
         25    2    1    2    0    0  0.92579009437E+02  0.44718538384E+02 -0.41806874873E+03  0.44830641725E+03  0.12500617751E+03 0.  0.
          2    1    1    2  501    0 -0.47028731039E+02 -0.40018558985E+02 -0.11260145096E+04  0.11277064611E+04  0.00000000000E+00 0. -1.
          1    1    1    2  502    0 -0.45550278398E+02 -0.46999793994E+01  0.48073772824E+03  0.48291374076E+03  0.00000000000E+00 0. -1.
         22    1    3    3    0    0  0.11555887452E+03  0.58798906082E+02 -0.38113288463E+03  0.40258345791E+03  0.00000000000E+00 0.  1.
         22    1    3    3    0    0 -0.22979865082E+02 -0.14080367698E+02 -0.36935864095E+02  0.45722959332E+02  0.00000000000E+00 0.  1.
</event>
<event>
 7    1  0.6058736E-006  0.3694335E+02  0.7818608E-02  0.1536521E+00
          2   -1    0    0  502    0  0.00000000000E+00  0.00000000000E+00  0.74012814734E+03  0.74012814734E+03  0.00000000000E+00 0. -1.
          1   -1    0    0  501    0 -0.00000000000E+00 -0.00000000000E+00 -0.19797154829E+02  0.19797154829E+02  0.00000000000E+00 0. -1.
         25    2    1    2    0    0 -0.37469440434E+02  0.27157465786E+02  0.39416330847E+03  0.41609090837E+03  0.12500177345E+03 0.  0.
          2    1    1    2  501    0  0.34374388690E+02  0.10220554890E+02  0.34491267000E+02  0.49756465302E+02  0.00000000000E+00 0. -1.
          1    1    1    2  502    0  0.30950517439E+01 -0.37378020675E+02  0.29167641704E+03  0.29407792850E+03  0.00000000000E+00 0. -1.
         22    1    3    3    0    0  0.21727189160E+02 -0.17123906772E+02  0.18634648064E+02  0.33354895299E+02  0.00000000000E+00 0.  1.
         22    1    3    3    0    0 -0.59196629594E+02  0.44281372558E+02  0.37552866041E+03  0.38273601307E+03  0.00000000000E+00 0.  1.
</event>
<event>
 7    1  0.6058736E-006  0.5533040E+02  0.7818608E-02  0.1478902E+00
          2   -1    0    0  502    0  0.00000000000E+00  0.00000000000E+00  0.31068734308E+04  0.31068734308E+04  0.00000000000E+00 0. -1.
          1   -1    0    0  501    0 -0.00000000000E+00 -0.00000000000E+00 -0.11070127323E+04  0.11070127323E+04  0.00000000000E+00 0. -1.
         25    2    1    2    0    0 -0.42008655671E+01 -0.79866095189E+02  0.64303899533E+03  0.65994194668E+03  0.12501193162E+03 0.  0.
          2    1    1    2  501    0  0.21612108613E+02  0.28078558791E+02 -0.10979714959E+04  0.10985430781E+04  0.00000000000E+00 0. -1.
          1    1    1    2  502    0 -0.17411243045E+02  0.51787536398E+02  0.24547931990E+04  0.24554011384E+04  0.00000000000E+00 0. -1.
         22    1    3    3    0    0 -0.55211280074E+02 -0.78281748867E+02  0.46320604556E+03  0.47300756685E+03  0.00000000000E+00 0. -1.
         22    1    3    3    0    0  0.51010414507E+02 -0.15843463213E+01  0.17983294976E+03  0.18693437983E+03  0.00000000000E+00 0. -1.
</event>
<event>
 7    1  0.6058736E-006  0.1188092E+03  0.7818608E-02  0.1329306E+00
          2   -1    0    0  502    0  0.00000000000E+00  0.00000000000E+00  0.45101206109E+03  0.45101206109E+03  0.00000000000E+00 0. -1.
          1   -1    0    0  501    0 -0.00000000000E+00 -0.00000000000E+00 -0.52183076438E+03  0.52183076438E+03  0.00000000000E+00 0. -1.
         25    2    1    2    0    0  0.78605226031E+02  0.17341768710E+01  0.24233652407E+03  0.28378259968E+03  0.12499513612E+03 0.  0.
          2    1    1    2  501    0 -0.11348172213E+03  0.39160704027E+02 -0.48986350137E+03  0.50435891186E+03  0.00000000000E+00 0. -1.
          1    1    1    2  502    0  0.34876496097E+02 -0.40894880898E+02  0.17670827401E+03  0.18470131393E+03  0.00000000000E+00 0. -1.
         22    1    3    3    0    0 -0.44871857306E+01 -0.43231620311E+02  0.34543115146E+02  0.55518777314E+02  0.00000000000E+00 0.  1.
         22    1    3    3    0    0  0.83092411762E+02  0.44965797182E+02  0.20779340892E+03  0.22826382236E+03  0.00000000000E+00 0.  1.
</event>
<event>
 7    1  0.6058736E-006  0.9016695E+02  0.7818608E-02  0.1475588E+00
          2   -1    0    0  502    0  0.00000000000E+00  0.00000000000E+00  0.39774900821E+03  0.39774900821E+03  0.00000000000E+00 0. -1.
          1   -1    0    0  501    0 -0.00000000000E+00 -0.00000000000E+00 -0.11652144159E+03  0.11652144159E+03  0.00000000000E+00 0. -1.
         25    2    1    2    0    0 -0.44121827044E+02 -0.60623592153E+02  0.24460572959E+03  0.28474322542E+03  0.12499914370E+03 0.  0.
          2    1    1    2  501    0  0.39733156481E+02  0.82446750323E+02 -0.73373274950E+02  0.11730229256E+03  0.00000000000E+00 0. -1.
          1    1    1    2  502    0  0.43886705627E+01 -0.21823158170E+02  0.10999511198E+03  0.11222493182E+03  0.00000000000E+00 0. -1.
         22    1    3    3    0    0  0.19831514862E+02 -0.32254630032E+01  0.16928312152E+03  0.17047131086E+03  0.00000000000E+00 0.  1.
         22    1    3    3    0    0 -0.63953341905E+02 -0.57398129150E+02  0.75322608067E+02  0.11427191456E+03  0.00000000000E+00 0.  1.
</event>
<event>
 7    1  0.7013139E-006  0.6785644E+02  0.7818608E-02  0.1418927E+00
          2   -1    0    0  502    0  0.00000000000E+00  0.00000000000E+00  0.10701070312E+04  0.10701070312E+04  0.00000000000E+00 0. -1.
          1   -1    0    0  501    0 -0.00000000000E+00 -0.00000000000E+00 -0.61036848157E+03  0.61036848157E+03  0.00000000000E+00 0. -1.
         25    2    1    2    0    0  0.59090282246E+02 -0.33760427775E+02 -0.25205461536E+03  0.28946206968E+03  0.12500133087E+03 0.  0.
          2    1    1    2  501    0  0.80083412543E+01  0.44264574130E+02 -0.33701741623E+03  0.34000621302E+03  0.00000000000E+00 0. -1.
          1    1    1    2  502    0 -0.67098623500E+02 -0.10504146355E+02  0.10488105813E+04  0.10510072301E+04  0.00000000000E+00 0. -1.
         22    1    3    3    0    0  0.12496075362E+02 -0.68343972927E+02 -0.71007496446E+02  0.99343419946E+02  0.00000000000E+00 0. -1.
         22    1    3    3    0    0  0.46594206884E+02  0.34583545152E+02 -0.18104711891E+03  0.19011864973E+03  0.00000000000E+00 0. -1.
</event>
<event>
 7    1  0.6058736E-006  0.1629604E+03  0.7818608E-02  0.1297921E+00
          2   -1    0    0  502    0  0.00000000000E+00  0.00000000000E+00  0.50799986441E+03  0.50799986441E+03  0.00000000000E+00 0. -1.
          1   -1    0    0  501    0 -0.00000000000E+00 -0.00000000000E+00 -0.27000785898E+04  0.27000785898E+04  0.00000000000E+00 0. -1.
         25    2    1    2    0    0  0.13585204933E+03 -0.37325156694E+02 -0.51667405358E+03  0.54992902790E+03  0.12498364476E+03 0.  0.
          2    1    1    2  501    0  0.27703027476E+02  0.44023905864E+02 -0.21528213801E+04  0.21534496643E+04  0.00000000000E+00 0. -1.
          1    1    1    2  502    0 -0.16355507681E+03 -0.66987491703E+01  0.47741670831E+03  0.50469976200E+03  0.00000000000E+00 0. -1.
         22    1    3    3    0    0  0.82256547306E+02 -0.50525716861E+02 -0.14510591088E+03  0.17428342724E+03  0.00000000000E+00 0. -1.
         22    1    3    3    0    0  0.53595502024E+02  0.13200560167E+02 -0.37156814270E+03  0.37564560066E+03  0.00000000000E+00 0. -1.
</event>
<event>
 7    1  0.6058736E-006  0.6309716E+02  0.7818608E-02  0.1402316E+00
          2   -1    0    0  502    0  0.00000000000E+00  0.00000000000E+00  0.13140229063E+03  0.13140229063E+03  0.00000000000E+00 0. -1.
          1   -1    0    0  501    0 -0.00000000000E+00 -0.00000000000E+00 -0.16511727298E+03  0.16511727298E+03  0.00000000000E+00 0. -1.
         25    2    1    2    0    0 -0.18483030101E+02 -0.56118904337E+02 -0.87846130974E+01  0.13852663780E+03  0.12498602372E+03 0.  0.
          2    1    1    2  501    0 -0.36557272213E+02  0.57763519859E+02 -0.61449372195E+02  0.91918897520E+02  0.00000000000E+00 0. -1.
          1    1    1    2  502    0  0.55040302314E+02 -0.16446155218E+01  0.36519002946E+02  0.66074028295E+02  0.00000000000E+00 0. -1.
         22    1    3    3    0    0 -0.15515626629E+02 -0.56512780028E+02  0.51590754082E+02  0.78077108572E+02  0.00000000000E+00 0. -1.
         22    1    3    3    0    0 -0.29674034722E+01  0.39387569133E+00 -0.60375367180E+02  0.60449529225E+02  0.00000000000E+00 0. -1.
</event>
<event>
 7    1  0.6058736E-006  0.1151964E+03  0.7818608E-02  0.1439878E+00
          2   -1    0    0  502    0  0.00000000000E+00  0.00000000000E+00  0.38944274384E+02  0.38944274384E+02  0.00000000000E+00 0. -1.
          1   -1    0    0  501    0 -0.00000000000E+00 -0.00000000000E+00 -0.22006820888E+04  0.22006820888E+04  0.00000000000E+00 0. -1.
         25    2    1    2    0    0 -0.10643742439E+03  0.20849839115E+02 -0.93831110801E+03  0.95279388734E+03  0.12499926095E+03 0.  0.
          2    1    1    2  501    0 -0.97175579933E+01 -0.20407416093E+02 -0.11482483009E+04  0.11484707459E+04  0.00000000000E+00 0. -1.
          1    1    1    2  502    0  0.11615498239E+03 -0.44242302223E+00 -0.75178405512E+02  0.13836172999E+03  0.00000000000E+00 0. -1.
         22    1    3    3    0    0 -0.13101540216E+03 -0.13653863543E+01 -0.79323777604E+03  0.80398573944E+03  0.00000000000E+00 0. -1.
         22    1    3    3    0    0  0.24577977763E+02  0.22215225469E+02 -0.14507333197E+03  0.14880814790E+03  0.00000000000E+00 0. -1.
</event>
<event>
 7    1  0.6058736E-006  0.7543900E+03  0.7818608E-02  0.1171387E+00
          2   -1    0    0  502    0  0.00000000000E+00  0.00000000000E+00  0.18327152955E+04  0.18327152955E+04  0.00000000000E+00 0. -1.
          1   -1    0    0  501    0 -0.00000000000E+00 -0.00000000000E+00 -0.10586222387E+04  0.10586222387E+04  0.00000000000E+00 0. -1.
         25    2    1    2    0    0  0.68021806806E+03 -0.26887004579E+03  0.55148453159E+03  0.92452539172E+03  0.12499715884E+03 0.  0.
          2    1    1    2  501    0  0.32705125932E+02 -0.25093254053E+02 -0.73564693224E+03  0.73680099456E+03  0.00000000000E+00 0. -1.
          1    1    1    2  502    0 -0.71292319399E+03  0.29396329985E+03  0.95825545749E+03  0.12300111479E+04  0.00000000000E+00 0. -1.
         22    1    3    3    0    0  0.22164632534E+03 -0.26319521385E+02  0.16042826472E+03  0.27487640652E+03  0.00000000000E+00 0. -1.
         22    1    3    3    0    0  0.45857174272E+03 -0.24255052441E+03  0.39105626687E+03  0.64964898520E+03  0.00000000000E+00 0. -1.
</event>
<event>
 7    1  0.6058736E-006  0.1255565E+03  0.7818608E-02  0.1280949E+00
          2   -1    0    0  502    0  0.00000000000E+00  0.00000000000E+00  0.74232607333E+03  0.74232607333E+03  0.00000000000E+00 0. -1.
          1   -1    0    0  501    0 -0.00000000000E+00 -0.00000000000E+00 -0.72319747228E+03  0.72319747228E+03  0.00000000000E+00 0. -1.
         25    2    1    2    0    0 -0.17539992381E+03 -0.23123910978E+02  0.43462200146E+02  0.22094202162E+03  0.12500626203E+03 0.  0.
          2    1    1    2  501    0  0.11937831905E+03 -0.32793525442E+02 -0.62580057949E+03  0.63792865092E+03  0.00000000000E+00 0. -1.
          1    1    1    2  502    0  0.56021604755E+02  0.55917436420E+02  0.60146698040E+03  0.60665287307E+03  0.00000000000E+00 0. -1.
         22    1    3    3    0    0 -0.96734150830E+01  0.36608608190E+02 -0.51037679042E+01  0.38207507113E+02  0.00000000000E+00 0.  1.
         22    1    3    3    0    0 -0.16572650872E+03 -0.59732519168E+02  0.48565968050E+02  0.18273451451E+03  0.00000000000E+00 0.  1.
</event>
<event>
 7    1  0.6058736E-006  0.4463098E+02  0.7818608E-02  0.1501208E+00
          2   -1    0    0  502    0  0.00000000000E+00  0.00000000000E+00  0.70600984714E+03  0.70600984714E+03  0.00000000000E+00 0. -1.
          1   -1    0    0  501    0 -0.00000000000E+00 -0.00000000000E+00 -0.23706660377E+03  0.23706660377E+03  0.00000000000E+00 0. -1.
         25    2    1    2    0    0  0.78838360244E+02  0.22492227503E+00  0.86119013905E+02  0.17105098293E+03  0.12500566616E+03 0.  0.
          2    1    1    2  501    0 -0.36141045831E+02  0.10390963383E+02 -0.19193524981E+03  0.19558447646E+03  0.00000000000E+00 0. -1.
          1    1    1    2  502    0 -0.42697314412E+02 -0.10615885658E+02  0.57475947927E+03  0.57644099151E+03  0.00000000000E+00 0. -1.
         22    1    3    3    0    0  0.59472409467E+02  0.59117665949E+02  0.63001548577E+02  0.10488594300E+03  0.00000000000E+00 0. -1.
         22    1    3    3    0    0  0.19365950777E+02 -0.58892743674E+02  0.23117465328E+02  0.66165039939E+02  0.00000000000E+00 0. -1.
</event>
<event>
 7    1  0.6058736E-006  0.6370893E+02  0.7818608E-02  0.1413249E+00
          2   -1    0    0  502    0  0.00000000000E+00  0.00000000000E+00  0.10968651959E+04  0.10968651959E+04  0.00000000000E+00 0. -1.
          1   -1    0    0  501    0 -0.00000000000E+00 -0.00000000000E+00 -0.50913716836E+03  0.50913716836E+03  0.00000000000E+00 0. -1.
         25    2    1    2    0    0 -0.92147912710E+02 -0.43207894396E+02  0.50805696571E+02  0.16900842182E+03  0.12499787153E+03 0.  0.
          2    1    1    2  501    0  0.49918273849E+02 -0.38001339376E+01 -0.44762750306E+03  0.45041831288E+03  0.00000000000E+00 0. -1.
          1    1    1    2  502    0  0.42229638861E+02  0.47008028333E+02  0.98454983406E+03  0.98657562957E+03  0.00000000000E+00 0. -1.
         22    1    3    3    0    0 -0.33530017733E+01  0.13907993661E+02  0.61265135221E+02  0.62913366642E+02  0.00000000000E+00 0. -1.
         22    1    3    3    0    0 -0.88794910937E+02 -0.57115888057E+02 -0.10459438650E+02  0.10609505518E+03  0.00000000000E+00 0. -1.
</event>
<event>
 7    1  0.6058736E-006  0.1278622E+03  0.7818608E-02  0.1346330E+00
          2   -1    0    0  502    0  0.00000000000E+00  0.00000000000E+00  0.21058017101E+04  0.21058017101E+04  0.00000000000E+00 0. -1.
          1   -1    0    0  501    0 -0.00000000000E+00 -0.00000000000E+00 -0.71621779350E+03  0.71621779350E+03  0.00000000000E+00 0. -1.
         25    2    1    2    0    0  0.87330135619E+02 -0.14574545649E+03  0.29898212965E+03  0.36590258134E+03  0.12500437797E+03 0.  0.
          2    1    1    2  501    0 -0.61653686642E+02  0.11116254135E+03 -0.67657631730E+03  0.68841397488E+03  0.00000000000E+00 0. -1.
          1    1    1    2  502    0 -0.25676448976E+02  0.34582915143E+02  0.17671781042E+04  0.17677029474E+04  0.00000000000E+00 0. -1.
         22    1    3    3    0    0  0.66891111846E+02 -0.10294979508E+02  0.60004425641E+02  0.90448540860E+02  0.00000000000E+00 0. -1.
         22    1    3    3    0    0  0.20439023773E+02 -0.13545047698E+03  0.23897770401E+03  0.27545404049E+03  0.00000000000E+00 0. -1.
</event>
<event>
 7    1  0.6058736E-006  0.1428356E+03  0.7818608E-02  0.1246186E+00
          2   -1    0    0  502    0  0.00000000000E+00  0.00000000000E+00  0.46389399676E+03  0.46389399676E+03  0.00000000000E+00 0. -1.
          1   -1    0    0  501    0 -0.00000000000E+00 -0.00000000000E+00 -0.16750730696E+04  0.16750730696E+04  0.00000000000E+00 0. -1.
         25    2    1    2    0    0 -0.71107989697E+02  0.17971169006E+03 -0.21250932626E+03  0.31326980337E+03  0.12500047284E+03 0.  0.
          2    1    1    2  501    0 -0.38316949276E+02 -0.89899840365E+02 -0.13983122954E+04  0.14017230274E+04  0.00000000000E+00 0. -1.
          1    1    1    2  502    0  0.10942493897E+03 -0.89811849694E+02  0.39964254886E+03  0.42397423562E+03  0.00000000000E+00 0. -1.
         22    1    3    3    0    0 -0.47106574144E+02  0.67427716623E+02 -0.13274584423E+02  0.83317110416E+02  0.00000000000E+00 0.  1.
         22    1    3    3    0    0 -0.24001415553E+02  0.11228397344E+03 -0.19923474184E+03  0.22995269295E+03  0.00000000000E+00 0.  1.
</event>
<event>
 7    1  0.6058736E-006  0.1010817E+03  0.7818608E-02  0.1349316E+00
          2   -1    0    0  502    0  0.00000000000E+00  0.00000000000E+00  0.12403775061E+03  0.12403775061E+03  0.00000000000E+00 0. -1.
          1   -1    0    0  501    0 -0.00000000000E+00 -0.00000000000E+00 -0.14990944521E+04  0.14990944521E+04  0.00000000000E+00 0. -1.
         25    2    1    2    0    0 -0.42822644333E+02 -0.73619428834E+02 -0.15567966191E+03  0.21705933769E+03  0.12499999910E+03 0.  0.
          2    1    1    2  501    0 -0.48596221385E+02  0.21424270623E+02 -0.12823208896E+04  0.12834202180E+04  0.00000000000E+00 0. -1.
          1    1    1    2  502    0  0.91418865718E+02  0.52195158211E+02  0.62943850055E+02  0.12265264697E+03  0.00000000000E+00 0. -1.
         22    1    3    3    0    0  0.35817752260E+02 -0.56652424500E+02 -0.47083520395E+02  0.81910112145E+02  0.00000000000E+00 0.  1.
         22    1    3    3    0    0 -0.78640396593E+02 -0.16967004334E+02 -0.10859614152E+03  0.13514922554E+03  0.00000000000E+00 0.  1.
</event>
<event>
 7    1  0.6058736E-006  0.7754265E+02  0.7818608E-02  0.1471827E+00
          2   -1    0    0  502    0  0.00000000000E+00  0.00000000000E+00  0.12302401885E+03  0.12302401885E+03  0.00000000000E+00 0. -1.
          1   -1    0    0  501    0 -0.00000000000E+00 -0.00000000000E+00 -0.49338588090E+03  0.49338588090E+03  0.00000000000E+00 0. -1.
         25    2    1    2    0    0  0.12555818453E+01 -0.96679411752E+02 -0.25839255284E+03  0.30288424582E+03  0.12499467933E+03 0.  0.
          2    1    1    2  501    0  0.15183133183E+02  0.21825601240E+02 -0.19715507419E+03  0.19893970866E+03  0.00000000000E+00 0. -1.
          1    1    1    2  502    0 -0.16438715028E+02  0.74853810512E+02  0.85185764975E+02  0.11458594527E+03  0.00000000000E+00 0. -1.
         22    1    3    3    0    0  0.40192354588E+02 -0.33607568099E+01 -0.22386469109E+02  0.46128885233E+02  0.00000000000E+00 0.  1.
         22    1    3    3    0    0 -0.38936772743E+02 -0.93318654942E+02 -0.23600608373E+03  0.25675536059E+03  0.00000000000E+00 0.  1.
</event>
<event>
 7    1  0.6058736E-006  0.8852584E+02  0.7818608E-02  0.1357056E+00
          2   -1    0    0  502    0  0.00000000000E+00  0.00000000000E+00  0.61369294403E+03  0.61369294403E+03  0.00000000000E+00 0. -1.
          1   -1    0    0  501    0 -0.00000000000E+00 -0.00000000000E+00 -0.48254562398E+03  0.48254562398E+03  0.00000000000E+00 0. -1.
         25    2    1    2    0    0 -0.52037498870E+02 -0.72036337114E+02  0.24683418317E+03  0.29060079749E+03  0.12499829746E+03 0.  0.
          2    1    1    2  501    0  0.84981351719E+02  0.25784483650E+02 -0.45399385363E+03  0.46259819376E+03  0.00000000000E+00 0. -1.
          1    1    1    2  502    0 -0.32943852849E+02  0.46251853464E+02  0.33830699051E+03  0.34303957675E+03  0.00000000000E+00 0. -1.
         22    1    3    3    0    0  0.86513263566E+01 -0.89417361772E+02  0.13446921996E+03  0.16171666936E+03  0.00000000000E+00 0. -1.
         22    1    3    3    0    0 -0.60688825226E+02  0.17381024659E+02  0.11236496322E+03  0.12888412813E+03  0.00000000000E+00 0. -1.
</event>
<event>
 7    1  0.6058736E-006  0.9253051E+02  0.7818608E-02  0.1363024E+00
          2   -1    0    0  502    0  0.00000000000E+00  0.00000000000E+00  0.57899234776E+03  0.57899234776E+03  0.00000000000E+00 0. -1.
          1   -1    0    0  501    0 -0.00000000000E+00 -0.00000000000E+00 -0.17133424429E+04  0.17133424429E+04  0.00000000000E+00 0. -1.
         25    2    1    2    0    0 -0.99573651729E+02  0.88702599366E+02 -0.76682349968E+02  0.19821613242E+03  0.12500555628E+03 0.  0.
          2    1    1    2  501    0  0.17322257367E+02 -0.48679933041E+02 -0.15714288445E+04  0.15722780955E+04  0.00000000000E+00 0. -1.
          1    1    1    2  502    0  0.82251394362E+02 -0.40022666326E+02  0.51376109932E+03  0.52184056269E+03  0.00000000000E+00 0. -1.
         22    1    3    3    0    0 -0.32638107388E+02  0.10400983749E+03 -0.69261418540E+02  0.12915276399E+03  0.00000000000E+00 0. -1.
         22    1    3    3    0    0 -0.66935544342E+02 -0.15307238120E+02 -0.74209314280E+01  0.69063368427E+02  0.00000000000E+00 0. -1.
</event>
<event>
 7    1  0.6058736E-006  0.9234826E+02  0.7818608E-02  0.1376020E+00
          2   -1    0    0  502    0  0.00000000000E+00  0.00000000000E+00  0.10634388902E+04  0.10634388902E+04  0.00000000000E+00 0. -1.
          1   -1    0    0  501    0 -0.00000000000E+00 -0.00000000000E+00 -0.42940327520E+03  0.42940327520E+03  0.00000000000E+00 0. -1.
         25    2    1    2    0    0  0.21223347988E+02  0.11765915814E+03  0.10710576709E+03  0.20344709435E+03  0.12499986745E+03 0.  0.
          2    1    1    2  501    0 -0.37330672602E+02 -0.27705072596E+02 -0.37750424939E+03  0.38035589711E+03  0.00000000000E+00 0. -1.
          1    1    1    2  502    0  0.16107324614E+02 -0.89954085541E+02  0.90443409733E+03  0.90903917398E+03  0.00000000000E+00 0. -1.
         22    1    3    3    0    0  0.70800550990E+02  0.60930469642E+02  0.36792971410E+02  0.10039403815E+03  0.00000000000E+00 0.  1.
         22    1    3    3    0    0 -0.49577203002E+02  0.56728688494E+02  0.70312795680E+02  0.10305305620E+03  0.00000000000E+00 0.  1.
</event>
<event>
 7    1  0.6181966E-006  0.1126721E+03  0.7818608E-02  0.1362493E+00
          2   -1    0    0  502    0  0.00000000000E+00  0.00000000000E+00  0.99923894283E+03  0.99923894283E+03  0.00000000000E+00 0. -1.
          1   -1    0    0  501    0 -0.00000000000E+00 -0.00000000000E+00 -0.30310742535E+04  0.30310742535E+04  0.00000000000E+00 0. -1.
         25    2    1    2    0    0  0.24959911492E+02 -0.73861315891E+02 -0.37599466776E+03  0.40382580011E+03  0.12499918192E+03 0.  0.
          2    1    1    2  501    0 -0.58513287264E+02  0.10014535353E+03 -0.26394288785E+04  0.26419760978E+04  0.00000000000E+00 0. -1.
          1    1    1    2  502    0  0.33553375772E+02 -0.26284037638E+02  0.98358823557E+03  0.98451129847E+03  0.00000000000E+00 0. -1.
         22    1    3    3    0    0 -0.15194347126E+02 -0.31939416989E+02 -0.32390775680E+03  0.32583313131E+03  0.00000000000E+00 0.  1.
         22    1    3    3    0    0  0.40154258619E+02 -0.41921898902E+02 -0.52086910958E+02  0.77992668796E+02  0.00000000000E+00 0.  1.
</event>
<event>
 7    1  0.6058736E-006  0.8125186E+02  0.7818608E-02  0.1407943E+00
          2   -1    0    0  502    0  0.00000000000E+00  0.00000000000E+00  0.13793998591E+04  0.13793998591E+04  0.00000000000E+00 0. -1.
          1   -1    0    0  501    0 -0.00000000000E+00 -0.00000000000E+00 -0.67799407188E+03  0.67799407188E+03  0.00000000000E+00 0. -1.
         25    2    1    2    0    0  0.65466090318E+02 -0.98117057133E+02  0.21560628008E+03  0.27572427251E+03  0.12500016223E+03 0.  0.
          2    1    1    2  501    0 -0.31470290131E+02  0.26141262237E+02 -0.64588987863E+03  0.64718427057E+03  0.00000000000E+00 0. -1.
          1    1    1    2  502    0 -0.33995800187E+02  0.71975794895E+02  0.11316893858E+04  0.11344853880E+04  0.00000000000E+00 0. -1.
         22    1    3    3    0    0  0.65336163963E+02 -0.11249178611E+03  0.22403114552E+03  0.25906209762E+03  0.00000000000E+00 0. -1.
         22    1    3    3    0    0  0.12992635428E+00  0.14374728980E+02 -0.84248654368E+01  0.16662174880E+02  0.00000000000E+00 0. -1.
</event>
<event>
 7    1  0.6058736E-006  0.3500720E+02  0.7818608E-02  0.1585986E+00
          2   -1    0    0  502    0  0.00000000000E+00  0.00000000000E+00  0.14319320300E+02  0.14319320300E+02  0.00000000000E+00 0. -1.
          1   -1    0    0  501    0 -0.00000000000E+00 -0.00000000000E+00 -0.22505659199E+04  0.22505659199E+04  0.00000000000E+00 0. -1.
         25    2    1    2    0    0  0.53089085768E+02  0.25990858575E+01 -0.12802207808E+04  0.12874067041E+04  0.12500227130E+03 0.  0.
          2    1    1    2  501    0 -0.30911258689E+02  0.13949891749E+02 -0.94808310246E+03  0.94868945106E+03  0.00000000000E+00 0. -1.
          1    1    1    2  502    0 -0.22177827079E+02 -0.16548977606E+02 -0.79427162935E+01  0.28789085013E+02  0.00000000000E+00 0. -1.
         22    1    3    3    0    0  0.23023912250E+02  0.52516213941E+02 -0.29848262781E+03  0.30394067245E+03  0.00000000000E+00 0.  1.
         22    1    3    3    0    0  0.30065173518E+02 -0.49917128083E+02 -0.98173815300E+03  0.98346603164E+03  0.00000000000E+00 0.  1.
</event>
<event>
 7    1  0.6058736E-006  0.9296238E+02  0.7818608E-02  0.1310550E+00
          2   -1    0    0  502    0  0.00000000000E+00  0.00000000000E+00  0.28194944725E+03  0.28194944725E+03  0.00000000000E+00 0. -1.
          1   -1    0    0  501    0 -0.00000000000E+00 -0.00000000000E+00 -0.13849114517E+04  0.13849114517E+04  0.00000000000E+00 0. -1.
         25    2    1    2    0    0 -0.14730043480E+02  0.92113059195E+02  0.11622317522E+03  0.19451188353E+03  0.12500102607E+03 0.  0.
          2    1    1    2  501    0 -0.73209518303E+02 -0.35180107288E+02 -0.13226306757E+04  0.13251223256E+04  0.00000000000E+00 0. -1.
          1    1    1    2  502    0  0.87939561783E+02 -0.56932951907E+02  0.10344549605E+03  0.14722668981E+03  0.00000000000E+00 0. -1.
         22    1    3    3    0    0 -0.68778352060E+02  0.45608898733E+02  0.78263464678E+02  0.11373567276E+03  0.00000000000E+00 0.  1.
         22    1    3    3    0    0  0.54048308580E+02  0.46504160462E+02  0.37959710541E+02  0.80776210762E+02  0.00000000000E+00 0.  1.
</event>
<event>
 7    1  0.6058736E-006  0.1139071E+03  0.7818608E-02  0.1308012E+00
          2   -1    0    0  502    0  0.00000000000E+00  0.00000000000E+00  0.10405285972E+04  0.10405285972E+04  0.00000000000E+00 0. -1.
          1   -1    0    0  501    0 -0.00000000000E+00 -0.00000000000E+00 -0.31882835275E+03  0.31882835275E+03  0.00000000000E+00 0. -1.
         25    2    1    2    0    0 -0.86459784574E+02 -0.16660618549E+02  0.57365803636E+02  0.16330626169E+03  0.12500091648E+03 0.  0.
          2    1    1    2  501    0  0.83502076687E+02  0.84430617863E+02 -0.25128055527E+03  0.27792632747E+03  0.00000000000E+00 0. -1.
          1    1    1    2  502    0  0.29577078874E+01 -0.67769999314E+02  0.91561499611E+03  0.91812436083E+03  0.00000000000E+00 0. -1.
         22    1    3    3    0    0  0.15644243680E+02 -0.21471556921E+02  0.54978967376E+02  0.61061092118E+02  0.00000000000E+00 0.  1.
         22    1    3    3    0    0 -0.10210402825E+03  0.48109383723E+01  0.23868362604E+01  0.10224516957E+03  0.00000000000E+00 0.  1.
</event>
<event>
 7    1  0.8795305E-006  0.1007039E+03  0.7818608E-02  0.1313170E+00
          2   -1    0    0  502    0  0.00000000000E+00  0.00000000000E+00  0.10625647491E+04  0.10625647491E+04  0.00000000000E+00 0. -1.
          1   -1    0    0  501    0 -0.00000000000E+00 -0.00000000000E+00 -0.22478085891E+04  0.22478085891E+04  0.00000000000E+00 0. -1.
         25    2    1    2    0    0 -0.66525861823E+02  0.42147906931E+02 -0.60806045777E+03  0.62575033121E+03  0.12499528131E+03 0.  0.
          2    1    1    2  501    0  0.46338062841E+02  0.56695834977E+02 -0.16276635149E+04  0.16293097162E+04  0.00000000000E+00 0. -1.
          1    1    1    2  502    0  0.20187798982E+02 -0.98843741908E+02  0.10504801327E+04  0.10553132908E+04  0.00000000000E+00 0. -1.
         22    1    3    3    0    0 -0.93507884608E+02  0.48794926700E+02 -0.33335678769E+03  0.34964470145E+03  0.00000000000E+00 0.  1.
         22    1    3    3    0    0  0.26982022785E+02 -0.66470197692E+01 -0.27470367009E+03  0.27610562976E+03  0.00000000000E+00 0.  1.
</event>
<event>
 7    1  0.6058736E-006  0.7729021E+02  0.7818608E-02  0.1466615E+00
          2   -1    0    0  502    0  0.00000000000E+00  0.00000000000E+00  0.10317185569E+04  0.10317185569E+04  0.00000000000E+00 0. -1.
          1   -1    0    0  501    0 -0.00000000000E+00 -0.00000000000E+00 -0.11038231343E+04  0.11038231343E+04  0.00000000000E+00 0. -1.
         25    2    1    2    0    0 -0.75262640997E+02  0.88305639144E+01  0.30911227286E+03  0.34193221392E+03  0.12499919080E+03 0.  0.
          2    1    1    2  501    0  0.74982413922E+02  0.18857785276E+02 -0.10857665059E+04  0.10885159088E+04  0.00000000000E+00 0. -1.
          1    1    1    2  502    0  0.28022707562E+00 -0.27688349190E+02  0.70454965560E+03  0.70509356856E+03  0.00000000000E+00 0. -1.
         22    1    3    3    0    0 -0.10404523942E+03  0.26958121222E+02  0.26684460280E+03  0.28767723961E+03  0.00000000000E+00 0.  1.
         22    1    3    3    0    0  0.28782598422E+02 -0.18127557308E+02  0.42267670054E+02  0.54254974313E+02  0.00000000000E+00 0.  1.
</event>
<event>
 7    1  0.6058736E-006  0.1349297E+03  0.7818608E-02  0.1297826E+00
          2   -1    0    0  502    0  0.00000000000E+00  0.00000000000E+00  0.26685195081E+04  0.26685195081E+04  0.00000000000E+00 0. -1.
          1   -1    0    0  501    0 -0.00000000000E+00 -0.00000000000E+00 -0.23317403190E+02  0.23317403190E+02  0.00000000000E+00 0. -1.
         25    2    1    2    0    0  0.14241949495E+02  0.94480987008E+02  0.40834915219E+03  0.43761024816E+03  0.12499683665E+03 0.  0.
          2    1    1    2  501    0  0.55415127547E+02  0.29707987352E+02  0.15165335183E+03  0.16417106930E+03  0.00000000000E+00 0. -1.
          1    1    1    2  502    0 -0.69657077042E+02 -0.12418897436E+03  0.20851996009E+04  0.20900555938E+04  0.00000000000E+00 0. -1.
         22    1    3    3    0    0  0.53365085965E+02  0.74139482004E-01  0.17268697813E+03  0.18074465500E+03  0.00000000000E+00 0. -1.
         22    1    3    3    0    0 -0.39123136470E+02  0.94406847526E+02  0.23566217406E+03  0.25686559316E+03  0.00000000000E+00 0. -1.
</event>
<event>
 7    1  0.6058736E-006  0.1365315E+03  0.7818608E-02  0.1220061E+00
          2   -1    0    0  502    0  0.00000000000E+00  0.00000000000E+00  0.31575094932E+03  0.31575094932E+03  0.00000000000E+00 0. -1.
          1   -1    0    0  501    0 -0.00000000000E+00 -0.00000000000E+00 -0.60514959008E+03  0.60514959008E+03  0.00000000000E+00 0. -1.
         25    2    1    2    0    0  0.34890922718E+02 -0.37835231775E+02 -0.31582085842E+02  0.13881180644E+03  0.12498963241E+03 0.  0.
          2    1    1    2  501    0 -0.16103213156E+03 -0.65082854215E+01 -0.48908273756E+03  0.51495206510E+03  0.00000000000E+00 0. -1.
          1    1    1    2  502    0  0.12614120884E+03  0.44343517197E+02  0.23126618264E+03  0.26713666787E+03  0.00000000000E+00 0. -1.
         22    1    3    3    0    0  0.73299562564E+02 -0.32640557983E+01  0.78762456142E+01  0.73793733998E+02  0.00000000000E+00 0.  1.
         22    1    3    3    0    0 -0.38408639846E+02 -0.34571175977E+02 -0.39458331456E+02  0.65018072446E+02  0.00000000000E+00 0.  1.
</event>
<event>
 7    1  0.6058736E-006  0.4197047E+02  0.7818608E-02  0.1599804E+00
          2   -1    0    0  502    0  0.00000000000E+00  0.00000000000E+00  0.97512971205E+03  0.97512971205E+03  0.00000000000E+00 0. -1.
          1   -1    0    0  501    0 -0.00000000000E+00 -0.00000000000E+00 -0.49667849600E+02  0.49667849600E+02  0.00000000000E+00 0. -1.
         25    2    1    2    0    0 -0.17274754009E+02 -0.15574418996E+02  0.19219459418E+03  0.23044482118E+03  0.12500029569E+03 0.  0.
          2    1    1    2  501    0  0.37631908112E+02  0.21575411346E+02 -0.14914150058E+02  0.45870369029E+02  0.00000000000E+00 0. -1.
          1    1    1    2  502    0 -0.20357154103E+02 -0.60009923507E+01  0.74818141833E+03  0.74848237144E+03  0.00000000000E+00 0. -1.
         22    1    3    3    0    0 -0.25909915221E+01 -0.47659518781E+02  0.15384278689E+02  0.50147971029E+02  0.00000000000E+00 0. -1.
         22    1    3    3    0    0 -0.14683762487E+02  0.32085099786E+02  0.17681031549E+03  0.18029685015E+03  0.00000000000E+00 0. -1.
</event>
<event>
 7    1  0.6058736E-006  0.9925712E+02  0.7818608E-02  0.1460496E+00
          2   -1    0    0  502    0  0.00000000000E+00  0.00000000000E+00  0.38001117420E+04  0.38001117420E+04  0.00000000000E+00 0. -1.
          1   -1    0    0  501    0 -0.00000000000E+00 -0.00000000000E+00 -0.13006661424E+03  0.13006661424E+03  0.00000000000E+00 0. -1.
         25    2    1    2    0    0  0.63398123343E+02 -0.44160199747E+02 -0.17132018291E+02  0.14794646103E+03  0.12500081598E+03 0.  0.
          2    1    1    2  501    0  0.20724067217E+02 -0.88551905455E+01 -0.44155667193E+02  0.49574431987E+02  0.00000000000E+00 0. -1.
          1    1    1    2  502    0 -0.84122190560E+02  0.53015390293E+02  0.37313328132E+04  0.37326574632E+04  0.00000000000E+00 0. -1.
         22    1    3    3    0    0  0.68715090645E+02 -0.68508044610E+02 -0.48015500428E+02  0.10826173904E+03  0.00000000000E+00 0.  1.
         22    1    3    3    0    0 -0.53169673021E+01  0.24347844863E+02  0.30883482137E+02  0.39684721993E+02  0.00000000000E+00 0.  1.
</event>
<event>
 7    1  0.6058736E-006  0.3654037E+03  0.7818608E-02  0.1211233E+00
          2   -1    0    0  502    0  0.00000000000E+00  0.00000000000E+00  0.16068419407E+04  0.16068419407E+04  0.00000000000E+00 0. -1.
          1   -1    0    0  501    0 -0.00000000000E+00 -0.00000000000E+00 -0.13715021624E+04  0.13715021624E+04  0.00000000000E+00 0. -1.
         25    2    1    2    0    0  0.29525634084E+03 -0.18134034004E+03 -0.35055388071E+02  0.37001924576E+03  0.12499894507E+03 0.  0.
          2    1    1    2  501    0 -0.33844452000E+03  0.14753021600E+03 -0.11392663889E+04  0.11975966611E+04  0.00000000000E+00 0. -1.
          1    1    1    2  502    0  0.43188179165E+02  0.33810124048E+02  0.14096615553E+04  0.14107281963E+04  0.00000000000E+00 0. -1.
         22    1    3    3    0    0  0.19529013893E+03 -0.85443242901E+02 -0.74796020475E+02  0.22590535806E+03  0.00000000000E+00 0.  1.
         22    1    3    3    0    0  0.99966201906E+02 -0.95897097144E+02  0.39740632404E+02  0.14411388770E+03  0.00000000000E+00 0.  1.
</event>
<event>
 7    1  0.6058736E-006  0.2939235E+03  0.7818608E-02  0.1103179E+00
          2   -1    0    0  502    0  0.00000000000E+00  0.00000000000E+00  0.19924962346E+04  0.19924962346E+04  0.00000000000E+00 0. -1.
          1   -1    0    0  501    0 -0.00000000000E+00 -0.00000000000E+00 -0.19613924321E+04  0.19613924321E+04  0.00000000000E+00 0. -1.
         25    2    1    2    0    0 -0.90722429691E+02  0.51879902224E+03 -0.10132995487E+03  0.55070494826E+03  0.12500078227E+03 0.  0.
          2    1    1    2  501    0  0.25579521551E+02 -0.24065500501E+03 -0.16147575772E+04  0.16327924474E+04  0.00000000000E+00 0. -1.
          1    1    1    2  502    0  0.65142908140E+02 -0.27814401722E+03  0.17471913345E+04  0.17703912709E+04  0.00000000000E+00 0. -1.
         22    1    3    3    0    0  0.24885085195E+02  0.57440878229E+02 -0.31187706169E+02  0.69938508512E+02  0.00000000000E+00 0.  1.
         22    1    3    3    0    0 -0.11560751489E+03  0.46135814401E+03 -0.70142248701E+02  0.48076643975E+03  0.00000000000E+00 0.  1.
</event>
<event>
 7    1  0.6058736E-006  0.8949895E+02  0.7818608E-02  0.1334093E+00
          2   -1    0    0  502    0  0.00000000000E+00  0.00000000000E+00  0.33828050841E+03  0.33828050841E+03  0.00000000000E+00 0. -1.
          1   -1    0    0  501    0 -0.00000000000E+00 -0.00000000000E+00 -0.11571857375E+04  0.11571857375E+04  0.00000000000E+00 0. -1.
         25    2    1    2    0    0  0.13420377454E+02  0.19003766125E+02  0.96467941475E+02  0.15959974602E+03  0.12499906215E+03 0.  0.
          2    1    1    2  501    0 -0.70659409966E+02 -0.56477294482E+02 -0.11181790627E+04  0.11218319184E+04  0.00000000000E+00 0. -1.
          1    1    1    2  502    0  0.57239032512E+02  0.37473528357E+02  0.20280589213E+03  0.21403458144E+03  0.00000000000E+00 0. -1.
         22    1    3    3    0    0 -0.33135264286E+02 -0.25721179108E+02  0.83939943965E+02  0.93837300615E+02  0.00000000000E+00 0.  1.
         22    1    3    3    0    0  0.46555641740E+02  0.44724945233E+02  0.12527997510E+02  0.65762445404E+02  0.00000000000E+00 0.  1.
</event>
<event>
 7    1  0.6058736E-006  0.7287333E+02  0.7818608E-02  0.1497507E+00
          2   -1    0    0  502    0  0.00000000000E+00  0.00000000000E+00  0.14768682798E+03  0.14768682798E+03  0.00000000000E+00 0. -1.
          1   -1    0    0  501    0 -0.00000000000E+00 -0.00000000000E+00 -0.50119602437E+03  0.50119602437E+03  0.00000000000E+00 0. -1.
         25    2    1    2    0    0  0.19987813005E+02 -0.90749737097E+02 -0.11608632889E+03  0.19425465286E+03  0.12499522771E+03 0.  0.
          2    1    1    2  501    0  0.35746506390E+01  0.23352882736E+02 -0.33382844769E+03  0.33466336481E+03  0.00000000000E+00 0. -1.
          1    1    1    2  502    0 -0.23562463644E+02  0.67396854360E+02  0.96405580190E+02  0.11996483469E+03  0.00000000000E+00 0. -1.
         22    1    3    3    0    0  0.46547901154E+02 -0.11074229261E+03 -0.75883499489E+02  0.14208753629E+03  0.00000000000E+00 0. -1.
         22    1    3    3    0    0 -0.26560088148E+02  0.19992555518E+02 -0.40202829400E+02  0.52167116562E+02  0.00000000000E+00 0. -1.
</event>
<event>
 7    1  0.6058736E-006  0.1013837E+03  0.7818608E-02  0.1280197E+00
          2   -1    0    0  502    0  0.00000000000E+00  0.00000000000E+00  0.96939926437E+03  0.96939926437E+03  0.00000000000E+00 0. -1.
          1   -1    0    0  501    0 -0.00000000000E+00 -0.00000000000E+00 -0.36125419350E+03  0.36125419350E+03  0.00000000000E+00 0. -1.
         25    2    1    2    0    0  0.10665457563E+03  0.16307979208E+02 -0.17275504043E+03  0.23897830922E+03  0.12500071838E+03 0.  0.
          2    1    1    2  501    0 -0.49690691994E+02 -0.10017556884E+03 -0.13209368903E+03  0.17306950091E+03  0.00000000000E+00 0. -1.
          1    1    1    2  502    0 -0.56963883639E+02  0.83867589634E+02  0.91299380033E+03  0.91860564774E+03  0.00000000000E+00 0. -1.
         22    1    3    3    0    0  0.96035725507E+02 -0.78716883102E+01 -0.41195766808E+02  0.10479463370E+03  0.00000000000E+00 0.  1.
         22    1    3    3    0    0  0.10618850126E+02  0.24179667518E+02 -0.13155927362E+03  0.13418367552E+03  0.00000000000E+00 0.  1.
</event>
<event>
 7    1  0.6058736E-006  0.5716577E+02  0.7818608E-02  0.1519129E+00
          2   -1    0    0  502    0  0.00000000000E+00  0.00000000000E+00  0.18942415282E+04  0.18942415282E+04  0.00000000000E+00 0. -1.
          1   -1    0    0  501    0 -0.00000000000E+00 -0.00000000000E+00 -0.23681092294E+03  0.23681092294E+03  0.00000000000E+00 0. -1.
         25    2    1    2    0    0 -0.21330791541E+02  0.32714364993E+02  0.12112965063E+04  0.12183548144E+04  0.12499598120E+03 0.  0.
          2    1    1    2  501    0  0.10348654678E+02 -0.56283388044E+02 -0.22951831476E+03  0.23654507231E+03  0.00000000000E+00 0. -1.
          1    1    1    2  502    0  0.10982136863E+02  0.23569023051E+02  0.67565241378E+03  0.67615256446E+03  0.00000000000E+00 0. -1.
         22    1    3    3    0    0 -0.41050277271E+02  0.60651857061E+02  0.10862727223E+04  0.10887388117E+04  0.00000000000E+00 0.  1.
         22    1    3    3    0    0  0.19719485730E+02 -0.27937492067E+02  0.12502378400E+03  0.12961600266E+03  0.00000000000E+00 0.  1.
</event>
<event>
 7    1  0.6058736E-006  0.7174643E+02  0.7818608E-02  0.1419064E+00
          2   -1    0    0  502    0  0.00000000000E+00  0.00000000000E+00  0.43847314375E+03  0.43847314375E+03  0.00000000000E+00 0. -1.
          1   -1    0    0  501    0 -0.00000000000E+00 -0.00000000000E+00 -0.70358155988E+02  0.70358155988E+02  0.00000000000E+00 0. -1.
         25    2    1    2    0    0  0.39787775782E+02 -0.22032105174E+02  0.74025910490E+02  0.15222771354E+03  0.12499984234E+03 0.  0.
          2    1    1    2  501    0 -0.81614459313E+02  0.29565057944E+02  0.34258493323E+02  0.93320185302E+02  0.00000000000E+00 0. -1.
          1    1    1    2  502    0  0.41826683531E+02 -0.75329527702E+01  0.25983058395E+03  0.26328340090E+03  0.00000000000E+00 0. -1.
         22    1    3    3    0    0  0.61721546322E+02 -0.63067687951E+01  0.98092926158E+02  0.11606699262E+03  0.00000000000E+00 0. -1.
         22    1    3    3    0    0 -0.21933770540E+02 -0.15725336379E+02 -0.24067015669E+02  0.36160720921E+02  0.00000000000E+00 0. -1.
</event>
<event>
 7    1  0.6058736E-006  0.1198091E+03  0.7818608E-02  0.1326553E+00
          2   -1    0    0  502    0  0.00000000000E+00  0.00000000000E+00  0.13283896369E+04  0.13283896369E+04  0.00000000000E+00 0. -1.
          1   -1    0    0  501    0 -0.00000000000E+00 -0.00000000000E+00 -0.15802460138E+04  0.15802460138E+04  0.00000000000E+00 0. -1.
         25    2    1    2    0    0 -0.68212126036E+02  0.22997998786E+02  0.53955385179E+03  0.55850264188E+03  0.12500015965E+03 0.  0.
          2    1    1    2  501    0  0.11990019325E+03 -0.53757506112E+01 -0.15675181210E+04  0.15721062352E+04  0.00000000000E+00 0. -1.
          1    1    1    2  502    0 -0.51688067210E+02 -0.17622248175E+02  0.77610789229E+03  0.77802677358E+03  0.00000000000E+00 0. -1.
         22    1    3    3    0    0 -0.99276545583E+02  0.41130338482E+02  0.37694478453E+03  0.39196289089E+03  0.00000000000E+00 0.  1.
         22    1    3    3    0    0  0.31064419547E+02 -0.18132339696E+02  0.16260906726E+03  0.16653975099E+03  0.00000000000E+00 0.  1.
</event>
<event>
 7    1  0.6058736E-006  0.1508115E+03  0.7818608E-02  0.1312533E+00
          2   -1    0    0  502    0  0.00000000000E+00  0.00000000000E+00  0.63612309757E+03  0.63612309757E+03  0.00000000000E+00 0. -1.
          1   -1    0    0  501    0 -0.00000000000E+00 -0.00000000000E+00 -0.39973711272E+03  0.39973711272E+03  0.00000000000E+00 0. -1.
         25    2    1    2    0    0  0.67396177875E+02  0.11729353950E+03  0.24327447700E+03  0.30513576297E+03  0.12500137394E+03 0.  0.
          2    1    1    2  501    0 -0.29906156446E+02 -0.14911897195E+03 -0.35130579234E+03  0.38281406155E+03  0.00000000000E+00 0. -1.
          1    1    1    2  502    0 -0.37490021429E+02  0.31825432453E+02  0.34441730019E+03  0.34791038577E+03  0.00000000000E+00 0. -1.
         22    1    3    3    0    0  0.70608473811E+02  0.52746436901E+02  0.21905364391E+03  0.23611912690E+03  0.00000000000E+00 0. -1.
         22    1    3    3    0    0 -0.32122959356E+01  0.64547102599E+02  0.24220833090E+02  0.69016636072E+02  0.00000000000E+00 0. -1.
</event>
<event>
 7    1  0.6058736E-006  0.5300981E+02  0.7818608E-02  0.1474335E+00
          2   -1    0    0  502    0  0.00000000000E+00  0.00000000000E+00  0.12430952842E+03  0.12430952842E+03  0.00000000000E+00 0. -1.
          1   -1    0    0  501    0 -0.00000000000E+00 -0.00000000000E+00 -0.75515749937E+03  0.75515749937E+03  0.00000000000E+00 0. -1.
         25    2    1    2    0    0  0.26868479517E+02 -0.15862635689E+02 -0.26322391513E+02  0.13149725198E+03  0.12500048232E+03 0.  0.
          2    1    1    2  501    0 -0.52073169778E+02 -0.12845046326E+02 -0.67001186697E+03  0.67215512503E+03  0.00000000000E+00 0. -1.
          1    1    1    2  502    0  0.25204690261E+02  0.28707682016E+02  0.65486287532E+02  0.75814650778E+02  0.00000000000E+00 0. -1.
         22    1    3    3    0    0  0.99583980618E+01 -0.19283382260E+02  0.49334996971E+02  0.53897685011E+02  0.00000000000E+00 0. -1.
         22    1    3    3    0    0  0.16910081455E+02  0.34207465705E+01 -0.75657388484E+02  0.77599566971E+02  0.00000000000E+00 0. -1.
</event>
<event>
 7    1  0.6058736E-006  0.1419359E+03  0.7818608E-02  0.1274735E+00
          2   -1    0    0  502    0  0.00000000000E+00  0.00000000000E+00  0.18655863367E+03  0.18655863367E+03  0.00000000000E+00 0. -1.
          1   -1    0    0  501    0 -0.00000000000E+00 -0.00000000000E+00 -0.23012285964E+04  0.23012285964E+04  0.00000000000E+00 0. -1.
         25    2    1    2    0    0 -0.13568474269E+03  0.25724327533E+02 -0.72092231363E+03  0.74459803626E+03  0.12500065153E+03 0.  0.
          2    1    1    2  501    0  0.13601520889E+01 -0.74285949449E+02 -0.15382298578E+04  0.15400231647E+04  0.00000000000E+00 0. -1.
          1    1    1    2  502    0  0.13432459061E+03  0.48561621916E+02  0.14448220870E+03  0.20316602913E+03  0.00000000000E+00 0. -1.
         22    1    3    3    0    0 -0.45339235863E+02 -0.22030290483E+02 -0.73282104472E+02  0.88945190108E+02  0.00000000000E+00 0. -1.
         22    1    3    3    0    0 -0.90345506831E+02  0.47754618017E+02 -0.64764020916E+03  0.65565284615E+03  0.00000000000E+00 0. -1.
</event>
<event>
 7    1  0.6058736E-006  0.6167733E+02  0.7818608E-02  0.1542021E+00
          2   -1    0    0  502    0  0.00000000000E+00  0.00000000000E+00  0.18108428942E+04  0.18108428942E+04  0.00000000000E+00 0. -1.
          1   -1    0    0  501    0 -0.00000000000E+00 -0.00000000000E+00 -0.17697763477E+02  0.17697763477E+02  0.00000000000E+00 0. -1.
         25    2    1    2    0    0 -0.21696040449E+02  0.39544677957E+02  0.52046054713E+03  0.53715789984E+03  0.12499971408E+03 0.  0.
          2    1    1    2  501    0  0.36128775322E+02 -0.54417131438E+02  0.10596609288E+03  0.12448022108E+03  0.00000000000E+00 0. -1.
          1    1    1    2  502    0 -0.14432734873E+02  0.14872453481E+02  0.11667184907E+04  0.11669025367E+04  0.00000000000E+00 0. -1.
         22    1    3    3    0    0  0.48217900144E+02  0.16818027321E+02  0.31114493678E+03  0.31530776017E+03  0.00000000000E+00 0.  1.
         22    1    3    3    0    0 -0.69913940593E+02  0.22726650636E+02  0.20931561035E+03  0.22185013967E+03  0.00000000000E+00 0.  1.
</event>
<event>
 7    1  0.6058736E-006  0.5950638E+02  0.7818608E-02  0.1427528E+00
          2   -1    0    0  502    0  0.00000000000E+00  0.00000000000E+00  0.11325931042E+04  0.11325931042E+04  0.00000000000E+00 0. -1.
          1   -1    0    0  501    0 -0.00000000000E+00 -0.00000000000E+00 -0.95752978288E+02  0.95752978288E+02  0.00000000000E+00 0. -1.
         25    2    1    2    0    0 -0.49635034207E+02  0.89350145462E+02  0.52339665832E+03  0.54773724150E+03  0.12499975469E+03 0.  0.
          2    1    1    2  501    0  0.17228516896E+02 -0.44830289432E+02 -0.75291107529E+02  0.89304689227E+02  0.00000000000E+00 0. -1.
          1    1    1    2  502    0  0.32406517310E+02 -0.44519856030E+02  0.58873457512E+03  0.59130415176E+03  0.00000000000E+00 0. -1.
         22    1    3    3    0    0 -0.44685816229E+02  0.68246458702E+02  0.51931148144E+03  0.52567938523E+03  0.00000000000E+00 0. -1.
         22    1    3    3    0    0 -0.49492179780E+01  0.21103686760E+02  0.40851768834E+01  0.22057856279E+02  0.00000000000E+00 0. -1.
</event>
<event>
 7    1  0.6058736E-006  0.9650654E+02  0.7818608E-02  0.1375766E+00
          2   -1    0    0  502    0  0.00000000000E+00  0.00000000000E+00  0.14901381665E+04  0.14901381665E+04  0.00000000000E+00 0. -1.
          1   -1    0    0  501    0 -0.00000000000E+00 -0.00000000000E+00 -0.30263356241E+03  0.30263356241E+03  0.00000000000E+00 0. -1.
         25    2    1    2    0    0 -0.53179835147E+02  0.12708620024E+03  0.45397980473E+02  0.19145009663E+03  0.12495265388E+03 0.  0.
          2    1    1    2  501    0  0.36985138084E+02 -0.85554423314E+02 -0.21976873823E+03  0.23871689946E+03  0.00000000000E+00 0. -1.
          1    1    1    2  502    0  0.16194697064E+02 -0.41531776925E+02  0.13618753618E+04  0.13626047328E+04  0.00000000000E+00 0. -1.
         22    1    3    3    0    0 -0.40937117221E+02  0.33715438329E+02  0.75785422019E+02  0.92498694794E+02  0.00000000000E+00 0.  1.
         22    1    3    3    0    0 -0.12242717927E+02  0.93370761910E+02 -0.30387441546E+02  0.98951401837E+02  0.00000000000E+00 0.  1.
</event>
<event>
 7    1  0.6058736E-006  0.1661645E+03  0.7818608E-02  0.1363123E+00
          2   -1    0    0  502    0  0.00000000000E+00  0.00000000000E+00  0.16995082429E+04  0.16995082429E+04  0.00000000000E+00 0. -1.
          1   -1    0    0  501    0 -0.00000000000E+00 -0.00000000000E+00 -0.21494479242E+03  0.21494479242E+03  0.00000000000E+00 0. -1.
         25    2    1    2    0    0 -0.29880086798E+02  0.18653154341E+03  0.22393440864E+03  0.31852401994E+03  0.12499638249E+03 0.  0.
          2    1    1    2  501    0 -0.90890802782E+01 -0.27274810656E+02 -0.16167247337E+03  0.16420875532E+03  0.00000000000E+00 0. -1.
          1    1    1    2  502    0  0.38969167076E+02 -0.15925673275E+03  0.14223015152E+04  0.14317202600E+04  0.00000000000E+00 0. -1.
         22    1    3    3    0    0  0.22675115962E+02  0.16968034089E+03  0.17407347753E+03  0.24414576496E+03  0.00000000000E+00 0.  1.
         22    1    3    3    0    0 -0.52555202760E+02  0.16851202519E+02  0.49860931105E+02  0.74378254981E+02  0.00000000000E+00 0.  1.
</event>
<event>
 7    1  0.6058736E-006  0.1127437E+03  0.7818608E-02  0.1379824E+00
          2   -1    0    0  502    0  0.00000000000E+00  0.00000000000E+00  0.50789365666E+03  0.50789365666E+03  0.00000000000E+00 0. -1.
          1   -1    0    0  501    0 -0.00000000000E+00 -0.00000000000E+00 -0.48921410809E+03  0.48921410809E+03  0.00000000000E+00 0. -1.
         25    2    1    2    0    0  0.41790080049E+02  0.95436688688E+02  0.38909337800E+03  0.42174990876E+03  0.12499902560E+03 0.  0.
          2    1    1    2  501    0 -0.91180712543E+01 -0.11261266405E+03 -0.46252606862E+03  0.47612510486E+03  0.00000000000E+00 0. -1.
          1    1    1    2  502    0 -0.32672008795E+02  0.17175975360E+02  0.92112239195E+02  0.99232751135E+02  0.00000000000E+00 0. -1.
         22    1    3    3    0    0 -0.96167839345E+01  0.79346750278E+02  0.33864303316E+03  0.34794754378E+03  0.00000000000E+00 0.  1.
         22    1    3    3    0    0  0.51406863984E+02  0.16089938410E+02  0.50450344832E+02  0.73802364978E+02  0.00000000000E+00 0.  1.
</event>
<event>
 7    1  0.6058736E-006  0.5128199E+02  0.7818608E-02  0.1525083E+00
          2   -1    0    0  502    0  0.00000000000E+00  0.00000000000E+00  0.48056663963E+02  0.48056663963E+02  0.00000000000E+00 0. -1.
          1   -1    0    0  501    0 -0.00000000000E+00 -0.00000000000E+00 -0.31869847920E+03  0.31869847920E+03  0.00000000000E+00 0. -1.
         25    2    1    2    0    0  0.57814351980E+02  0.45588774209E+02 -0.13872160034E+03  0.20072205355E+03  0.12499929900E+03 0.  0.
          2    1    1    2  501    0 -0.31418934055E+02 -0.36683520476E+02 -0.12933134921E+03  0.13805588716E+03  0.00000000000E+00 0. -1.
          1    1    1    2  502    0 -0.26395417925E+02 -0.89052537323E+01 -0.25888656865E+01  0.27977202452E+02  0.00000000000E+00 0. -1.
         22    1    3    3    0    0  0.70458544755E+02  0.32933082055E+02 -0.15696113963E+03  0.17517361039E+03  0.00000000000E+00 0. -1.
         22    1    3    3    0    0 -0.12644192775E+02  0.12655692153E+02  0.18239539284E+02  0.25548443164E+02  0.00000000000E+00 0. -1.
</event>
<event>
 7    1  0.6058736E-006  0.1186239E+03  0.7818608E-02  0.1328836E+00
          2   -1    0    0  502    0  0.00000000000E+00  0.00000000000E+00  0.26067257728E+03  0.26067257728E+03  0.00000000000E+00 0. -1.
          1   -1    0    0  501    0 -0.00000000000E+00 -0.00000000000E+00 -0.92200954181E+03  0.92200954181E+03  0.00000000000E+00 0. -1.
         25    2    1    2    0    0 -0.12395803996E+03 -0.65836861145E+02 -0.27788131901E+03  0.33547396588E+03  0.12499866550E+03 0.  0.
          2    1    1    2  501    0  0.74931625677E+02  0.88603033913E+02 -0.60660553619E+03  0.61760466536E+03  0.00000000000E+00 0. -1.
          1    1    1    2  502    0  0.49026414278E+02 -0.22766172769E+02  0.22314989067E+03  0.22960348784E+03  0.00000000000E+00 0. -1.
         22    1    3    3    0    0 -0.73392445114E+02 -0.95994355328E+02 -0.22910471071E+03  0.25901802200E+03  0.00000000000E+00 0.  1.
         22    1    3    3    0    0 -0.50565594841E+02  0.30157494183E+02 -0.48776608305E+02  0.76455943881E+02  0.00000000000E+00 0.  1.
</event>
<event>
 7    1  0.6731219E-006  0.9835693E+02  0.7818608E-02  0.1334385E+00
          2   -1    0    0  502    0  0.00000000000E+00  0.00000000000E+00  0.19064245453E+04  0.19064245453E+04  0.00000000000E+00 0. -1.
          1   -1    0    0  501    0 -0.00000000000E+00 -0.00000000000E+00 -0.13298352029E+04  0.13298352029E+04  0.00000000000E+00 0. -1.
         25    2    1    2    0    0  0.12595299820E+03 -0.77697903285E+02 -0.92199082448E+02  0.21454012788E+03  0.12500269492E+03 0.  0.
          2    1    1    2  501    0 -0.64055626911E+02  0.72757066757E+02 -0.11739449532E+04  0.11779403496E+04  0.00000000000E+00 0. -1.
          1    1    1    2  502    0 -0.61897371284E+02  0.49408365276E+01  0.18427333781E+04  0.18437792707E+04  0.00000000000E+00 0. -1.
         22    1    3    3    0    0  0.12106475533E+03 -0.29792303477E+02 -0.10685821573E+03  0.16420394209E+03  0.00000000000E+00 0. -1.
         22    1    3    3    0    0  0.48882428629E+01 -0.47905599808E+02  0.14659133278E+02  0.50336185788E+02  0.00000000000E+00 0. -1.
</event>
<event>
 7    1  0.6058736E-006  0.8399096E+02  0.7818608E-02  0.1369984E+00
          2   -1    0    0  502    0  0.00000000000E+00  0.00000000000E+00  0.22366971288E+04  0.22366971288E+04  0.00000000000E+00 0. -1.
          1   -1    0    0  501    0 -0.00000000000E+00 -0.00000000000E+00 -0.24449187402E+02  0.24449187402E+02  0.00000000000E+00 0. -1.
         25    2    1    2    0    0 -0.26327116336E+02  0.10688214767E+03  0.14549648049E+04  0.14644674716E+04  0.12500192595E+03 0.  0.
          2    1    1    2  501    0 -0.20488216376E+02 -0.80533988778E+02  0.73954741027E+02  0.11124205176E+03  0.00000000000E+00 0. -1.
          1    1    1    2  502    0  0.46815332712E+02 -0.26348158888E+02  0.68332839551E+03  0.68543679283E+03  0.00000000000E+00 0. -1.
         22    1    3    3    0    0  0.19866725619E+02  0.99289763720E+02  0.62199723744E+03  0.63018545473E+03  0.00000000000E+00 0. -1.
         22    1    3    3    0    0 -0.46193841955E+02  0.75923839462E+01  0.83296756743E+03  0.83428201689E+03  0.00000000000E+00 0. -1.
</event>
<event>
 7    1  0.6058736E-006  0.3561441E+03  0.7818608E-02  0.1255753E+00
          2   -1    0    0  502    0  0.00000000000E+00  0.00000000000E+00  0.14621599375E+04  0.14621599375E+04  0.00000000000E+00 0. -1.
          1   -1    0    0  501    0 -0.00000000000E+00 -0.00000000000E+00 -0.18340837233E+04  0.18340837233E+04  0.00000000000E+00 0. -1.
         25    2    1    2    0    0  0.18026874975E+03 -0.27607470855E+03  0.16814772367E+03  0.39065657750E+03  0.12499935093E+03 0.  0.
          2    1    1    2  501    0  0.63366915153E+01 -0.35058979494E+02 -0.16948158905E+04  0.16951903104E+04  0.00000000000E+00 0. -1.
          1    1    1    2  502    0 -0.18660544126E+03  0.31113368804E+03  0.11547443810E+04  0.12103967730E+04  0.00000000000E+00 0. -1.
         22    1    3    3    0    0  0.36840622854E+02 -0.40572598793E+01  0.47671966857E+02  0.60384677477E+02  0.00000000000E+00 0. -1.
         22    1    3    3    0    0  0.14342812689E+03 -0.27201744867E+03  0.12047575681E+03  0.33027190002E+03  0.00000000000E+00 0. -1.
</event>
<event>
 7    1  0.6058736E-006  0.1189342E+03  0.7818608E-02  0.1352600E+00
          2   -1    0    0  502    0  0.00000000000E+00  0.00000000000E+00  0.22482504376E+04  0.22482504376E+04  0.00000000000E+00 0. -1.
          1   -1    0    0  501    0 -0.00000000000E+00 -0.00000000000E+00 -0.69661027424E+03  0.69661027424E+03  0.00000000000E+00 0. -1.
         25    2    1    2    0    0 -0.65639343335E+02 -0.11212441859E+03  0.68705829190E+03  0.71031986775E+03  0.12499923766E+03 0.  0.
          2    1    1    2  501    0  0.22002749891E+02  0.11685519183E+03 -0.67950481046E+03  0.68983044605E+03  0.00000000000E+00 0. -1.
          1    1    1    2  502    0  0.43636593444E+02 -0.47307732389E+01  0.15440866819E+04  0.15447103981E+04  0.00000000000E+00 0. -1.
         22    1    3    3    0    0  0.31528456173E+01 -0.74515910678E+02  0.52524260640E+03  0.53051141077E+03  0.00000000000E+00 0.  1.
         22    1    3    3    0    0 -0.68792188952E+02 -0.37608507908E+02  0.16181568550E+03  0.17980845698E+03  0.00000000000E+00 0.  1.
</event>
<event>
 7    1  0.6058736E-006  0.8514877E+02  0.7818608E-02  0.1397066E+00
          2   -1    0    0  502    0  0.00000000000E+00  0.00000000000E+00  0.17043286479E+04  0.17043286479E+04  0.00000000000E+00 0. -1.
          1   -1    0    0  501    0 -0.00000000000E+00 -0.00000000000E+00 -0.25974691618E+04  0.25974691618E+04  0.00000000000E+00 0. -1.
         25    2    1    2    0    0 -0.46218267173E+02  0.10949280088E+02 -0.97117876602E+02  0.16526631669E+03  0.12500023409E+03 0.  0.
          2    1    1    2  501    0 -0.39058494929E+02 -0.16847292505E+02 -0.24649997671E+04  0.24653667576E+04  0.00000000000E+00 0. -1.
          1    1    1    2  502    0  0.85276762102E+02  0.58980124172E+01  0.16689771299E+04  0.16711647354E+04  0.00000000000E+00 0. -1.
         22    1    3    3    0    0  0.30126344077E+02  0.33714529334E+02 -0.83263280647E+01  0.45973838591E+02  0.00000000000E+00 0.  1.
         22    1    3    3    0    0 -0.76344611250E+02 -0.22765249247E+02 -0.88791548537E+02  0.11929247810E+03  0.00000000000E+00 0.  1.
</event>
<event>
 7    1  0.6058736E-006  0.2142634E+03  0.7818608E-02  0.1283759E+00
          2   -1    0    0  502    0  0.00000000000E+00  0.00000000000E+00  0.65213667627E+03  0.65213667627E+03  0.00000000000E+00 0. -1.
          1   -1    0    0  501    0 -0.00000000000E+00 -0.00000000000E+00 -0.12291359011E+04  0.12291359011E+04  0.00000000000E+00 0. -1.
         25    2    1    2    0    0  0.19513530704E+03 -0.57928876439E+02 -0.10541622118E+03  0.26109734306E+03  0.12500280033E+03 0.  0.
          2    1    1    2  501    0 -0.52827285882E+01 -0.44853346625E+02 -0.10250750539E+04  0.10260694889E+04  0.00000000000E+00 0. -1.
          1    1    1    2  502    0 -0.18985257845E+03  0.10278222306E+03  0.55349205029E+03  0.59410574535E+03  0.00000000000E+00 0. -1.
         22    1    3    3    0    0  0.86392217447E+02 -0.29857525276E+02  0.19136592974E+02  0.93387880593E+02  0.00000000000E+00 0.  1.
         22    1    3    3    0    0  0.10874308959E+03 -0.28071351162E+02 -0.12455281415E+03  0.16770946247E+03  0.00000000000E+00 0.  1.
</event>
<event>
 7    1  0.6058736E-006  0.1346956E+03  0.7818608E-02  0.1351638E+00
          2   -1    0    0  502    0  0.00000000000E+00  0.00000000000E+00  0.73771567916E+03  0.73771567916E+03  0.00000000000E+00 0. -1.
          1   -1    0    0  501    0 -0.00000000000E+00 -0.00000000000E+00 -0.14662514566E+03  0.14662514566E+03  0.00000000000E+00 0. -1.
         25    2    1    2    0    0  0.10385477242E+03 -0.47400101682E+01  0.15918500653E+03  0.22753872379E+03  0.12500289223E+03 0.  0.
          2    1    1    2  501    0 -0.14185494957E+03 -0.43597909980E+01 -0.66596997256E+02  0.15677051552E+03  0.00000000000E+00 0. -1.
          1    1    1    2  502    0  0.38000177146E+02  0.90998011662E+01  0.49850252423E+03  0.50003158551E+03  0.00000000000E+00 0. -1.
         22    1    3    3    0    0  0.77466613125E+02 -0.43522846382E+01  0.17863319710E+03  0.19475584108E+03  0.00000000000E+00 0.  1.
         22    1    3    3    0    0  0.26388159296E+02 -0.38772553002E+00 -0.19448190565E+02  0.32782882704E+02  0.00000000000E+00 0.  1.
</event>
<event>
 7    1  0.6058736E-006  0.1842396E+03  0.7818608E-02  0.1247856E+00
          2   -1    0    0  502    0  0.00000000000E+00  0.00000000000E+00  0.13074473816E+04  0.13074473816E+04  0.00000000000E+00 0. -1.
          1   -1    0    0  501    0 -0.00000000000E+00 -0.00000000000E+00 -0.54084543582E+03  0.54084543582E+03  0.00000000000E+00 0. -1.
         25    2    1    2    0    0 -0.36104296271E+02 -0.23953963863E+03  0.17858606727E+03  0.32588418103E+03  0.12499902934E+03 0.  0.
          2    1    1    2  501    0 -0.22871931023E+02  0.70906649877E+02 -0.45659402037E+03  0.46263265953E+03  0.00000000000E+00 0. -1.
          1    1    1    2  502    0  0.58976227294E+02  0.16863298875E+03  0.10446098989E+04  0.10597759769E+04  0.00000000000E+00 0. -1.
         22    1    3    3    0    0 -0.56622191493E+02 -0.23530256827E+03  0.18425910747E+03  0.30417887811E+03  0.00000000000E+00 0.  1.
         22    1    3    3    0    0  0.20517895222E+02 -0.42370703579E+01 -0.56730401970E+01  0.21705302915E+02  0.00000000000E+00 0.  1.
</event>
<event>
 7    1  0.6058736E-006  0.4222214E+02  0.7818608E-02  0.1498474E+00
          2   -1    0    0  502    0  0.00000000000E+00  0.00000000000E+00  0.24234174462E+03  0.24234174462E+03  0.00000000000E+00 0. -1.
          1   -1    0    0  501    0 -0.00000000000E+00 -0.00000000000E+00 -0.54781275817E+03  0.54781275817E+03  0.00000000000E+00 0. -1.
         25    2    1    2    0    0 -0.80108008606E+02 -0.31380390888E+01 -0.11601671408E+02  0.14895384187E+03  0.12500203157E+03 0.  0.
          2    1    1    2  501    0  0.41040908208E+02 -0.75574312560E+01 -0.46422448514E+03  0.46609638866E+03  0.00000000000E+00 0. -1.
          1    1    1    2  502    0  0.39067100398E+02  0.10695470345E+02  0.17035514300E+03  0.17510427226E+03  0.00000000000E+00 0. -1.
         22    1    3    3    0    0  0.59455268328E+00  0.43802330214E+02  0.22888594405E+02  0.49425553906E+02  0.00000000000E+00 0. -1.
         22    1    3    3    0    0 -0.80702561289E+02 -0.46940369303E+02 -0.34490265813E+02  0.99528287963E+02  0.00000000000E+00 0. -1.
</event>
<event>
 7    1  0.6058736E-006  0.6664858E+02  0.7818608E-02  0.1430855E+00
          2   -1    0    0  502    0  0.00000000000E+00  0.00000000000E+00  0.16465440580E+04  0.16465440580E+04  0.00000000000E+00 0. -1.
          1   -1    0    0  501    0 -0.00000000000E+00 -0.00000000000E+00 -0.14392685897E+04  0.14392685897E+04  0.00000000000E+00 0. -1.
         25    2    1    2    0    0  0.64718860535E+02  0.14101164309E+02 -0.13088404543E+02  0.14207044114E+03  0.12500132067E+03 0.  0.
          2    1    1    2  501    0 -0.38876758909E+01 -0.41629909431E+02 -0.13606633965E+04  0.13613056387E+04  0.00000000000E+00 0. -1.
          1    1    1    2  502    0 -0.60831184644E+02  0.27528745121E+02  0.15810272694E+04  0.15824365679E+04  0.00000000000E+00 0. -1.
         22    1    3    3    0    0  0.75164187050E+02 -0.37068393931E+02  0.11057409472E+02  0.84533940803E+02  0.00000000000E+00 0.  1.
         22    1    3    3    0    0 -0.10445326515E+02  0.51169558240E+02 -0.24145814016E+02  0.57536500336E+02  0.00000000000E+00 0.  1.
</event>
<event>
 7    1  0.6058736E-006  0.9263920E+02  0.7818608E-02  0.1361257E+00
          2   -1    0    0  502    0  0.00000000000E+00  0.00000000000E+00  0.17441743093E+04  0.17441743093E+04  0.00000000000E+00 0. -1.
          1   -1    0    0  501    0 -0.00000000000E+00 -0.00000000000E+00 -0.10937510327E+04  0.10937510327E+04  0.00000000000E+00 0. -1.
         25    2    1    2    0    0  0.29251032538E+01  0.13604695509E+03  0.46806797450E+03  0.50321783630E+03  0.12499292702E+03 0.  0.
          2    1    1    2  501    0 -0.19486938389E+02 -0.48619276469E+02 -0.10739641832E+04  0.10752407366E+04  0.00000000000E+00 0. -1.
          1    1    1    2  502    0  0.16561835135E+02 -0.87427678618E+02  0.12563194853E+04  0.12594667691E+04  0.00000000000E+00 0. -1.
         22    1    3    3    0    0 -0.39333340595E+02  0.25628062621E+02  0.49283960079E+02  0.68064807332E+02  0.00000000000E+00 0.  1.
         22    1    3    3    0    0  0.42258443849E+02  0.11041889247E+03  0.41878401442E+03  0.43515302897E+03  0.00000000000E+00 0.  1.
</event>
<event>
 7    1  0.6058736E-006  0.6667941E+02  0.7818608E-02  0.1387609E+00
          2   -1    0    0  502    0  0.00000000000E+00  0.00000000000E+00  0.21099528268E+04  0.21099528268E+04  0.00000000000E+00 0. -1.
          1   -1    0    0  501    0 -0.00000000000E+00 -0.00000000000E+00 -0.25988352161E+03  0.25988352161E+03  0.00000000000E+00 0. -1.
         25    2    1    2    0    0 -0.25682251586E+02 -0.75026596092E+02 -0.36184581153E+02  0.15239223365E+03  0.12500200317E+03 0.  0.
          2    1    1    2  501    0 -0.34919141850E+02  0.47050134943E+02 -0.15985090191E+03  0.17025091045E+03  0.00000000000E+00 0. -1.
          1    1    1    2  502    0  0.60601393435E+02  0.27976461149E+02  0.20461047883E+04  0.20471932043E+04  0.00000000000E+00 0. -1.
         22    1    3    3    0    0 -0.59768573661E+02 -0.90454104719E+02 -0.38130116835E+02  0.11492664299E+03  0.00000000000E+00 0.  1.
         22    1    3    3    0    0  0.34086322075E+02  0.15427508627E+02  0.19455356824E+01  0.37465590669E+02  0.00000000000E+00 0.  1.
</event>
<event>
 7    1  0.6058736E-006  0.1895222E+03  0.7818608E-02  0.1237911E+00
          2   -1    0    0  502    0  0.00000000000E+00  0.00000000000E+00  0.19769941277E+04  0.19769941277E+04  0.00000000000E+00 0. -1.
          1   -1    0    0  501    0 -0.00000000000E+00 -0.00000000000E+00 -0.17697153458E+04  0.17697153458E+04  0.00000000000E+00 0. -1.
         25    2    1    2    0    0  0.16356104254E+02 -0.25605817960E+03 -0.15562497219E+03  0.32508099921E+03  0.12500084236E+03 0.  0.
          2    1    1    2  501    0 -0.42493917899E+02  0.18035770734E+03 -0.15228967803E+04  0.15341281691E+04  0.00000000000E+00 0. -1.
          1    1    1    2  502    0  0.26137813645E+02  0.75700472265E+02  0.18858005344E+04  0.18875003052E+04  0.00000000000E+00 0. -1.
         22    1    3    3    0    0  0.23671147699E+02 -0.26852374787E+03 -0.15421219359E+03  0.31055873367E+03  0.00000000000E+00 0. -1.
         22    1    3    3    0    0 -0.73150434450E+01  0.12465568274E+02 -0.14127785963E+01  0.14522265538E+02  0.00000000000E+00 0. -1.
</event>
<event>
 7    1  0.6058736E-006  0.2758397E+03  0.7818608E-02  0.1234956E+00
          2   -1    0    0  502    0  0.00000000000E+00  0.00000000000E+00  0.12581050878E+04  0.12581050878E+04  0.00000000000E+00 0. -1.
          1   -1    0    0  501    0 -0.00000000000E+00 -0.00000000000E+00 -0.94246692528E+03  0.94246692528E+03  0.00000000000E+00 0. -1.
         25    2    1    2    0    0 -0.18032295656E+03  0.17445581769E+03 -0.37602733604E+03  0.46901195222E+03  0.12499781153E+03 0.  0.
          2    1    1    2  501    0  0.23609785587E+03 -0.18471579734E+03 -0.47599452030E+03  0.56252369434E+03  0.00000000000E+00 0. -1.
          1    1    1    2  502    0 -0.55774899308E+02  0.10259979655E+02  0.11676600189E+04  0.11690363665E+04  0.00000000000E+00 0. -1.
         22    1    3    3    0    0  0.18903725827E+02  0.11708305295E+02 -0.40657106202E+02  0.46340431027E+02  0.00000000000E+00 0. -1.
         22    1    3    3    0    0 -0.19922668239E+03  0.16274751239E+03 -0.33537022984E+03  0.42267152120E+03  0.00000000000E+00 0. -1.
</event>
<event>
 7    1  0.6058736E-006  0.2639229E+03  0.7818608E-02  0.1290976E+00
          2   -1    0    0  502    0  0.00000000000E+00  0.00000000000E+00  0.43377106620E+03  0.43377106620E+03  0.00000000000E+00 0. -1.
          1   -1    0    0  501    0 -0.00000000000E+00 -0.00000000000E+00 -0.36872605213E+03  0.36872605213E+03  0.00000000000E+00 0. -1.
         25    2    1    2    0    0  0.56283924983E+02  0.23453309651E+03  0.38141232332E+02  0.27432484070E+03  0.12500284418E+03 0.  0.
          2    1    1    2  501    0 -0.70034151657E+02 -0.26591238126E+03 -0.17331604228E+03  0.32504250094E+03  0.00000000000E+00 0. -1.
          1    1    1    2  502    0  0.13750226674E+02  0.31379284748E+02  0.20021982402E+03  0.20312977668E+03  0.00000000000E+00 0. -1.
         22    1    3    3    0    0  0.87630272334E+02  0.11518230363E+03 -0.14369913829E+01  0.14473455926E+03  0.00000000000E+00 0.  1.
         22    1    3    3    0    0 -0.31346347350E+02  0.11935079288E+03  0.39578223715E+02  0.12959028145E+03  0.00000000000E+00 0.  1.
</event>
<event>
 7    1  0.6058736E-006  0.4039825E+02  0.7818608E-02  0.1558857E+00
          2   -1    0    0  502    0  0.00000000000E+00  0.00000000000E+00  0.35952284917E+03  0.35952284917E+03  0.00000000000E+00 0. -1.
          1   -1    0    0  501    0 -0.00000000000E+00 -0.00000000000E+00 -0.84236890906E+02  0.84236890906E+02  0.00000000000E+00 0. -1.
         25    2    1    2    0    0 -0.14698496582E+02  0.65806577128E+02  0.17923785815E+03  0.22868970832E+03  0.12500488590E+03 0.  0.
          2    1    1    2  501    0  0.46489788302E+01 -0.39245018677E+02 -0.51442625519E+02  0.64870087216E+02  0.00000000000E+00 0. -1.
          1    1    1    2  502    0  0.10049517751E+02 -0.26561558451E+02  0.14749072563E+03  0.15019994454E+03  0.00000000000E+00 0. -1.
         22    1    3    3    0    0 -0.54577654194E+02  0.50047392619E+02  0.42486347411E+02  0.85373014247E+02  0.00000000000E+00 0. -1.
         22    1    3    3    0    0  0.39879157613E+02  0.15759184508E+02  0.13675151074E+03  0.14331669407E+03  0.00000000000E+00 0. -1.
</event>
<event>
 7    1  0.6058736E-006  0.1207204E+03  0.7818608E-02  0.1344174E+00
          2   -1    0    0  502    0  0.00000000000E+00  0.00000000000E+00  0.25601935436E+04  0.25601935436E+04  0.00000000000E+00 0. -1.
          1   -1    0    0  501    0 -0.00000000000E+00 -0.00000000000E+00 -0.23912301985E+04  0.23912301985E+04  0.00000000000E+00 0. -1.
         25    2    1    2    0    0 -0.88063441025E+01  0.12460193995E+03 -0.15973265438E+04  0.16070699294E+04  0.12497389875E+03 0.  0.
          2    1    1    2  501    0  0.52583312551E+02 -0.10900022052E+03 -0.78417851116E+03  0.79346202820E+03  0.00000000000E+00 0. -1.
          1    1    1    2  502    0 -0.43776968448E+02 -0.15601719430E+02  0.25504684000E+04  0.25508917845E+04  0.00000000000E+00 0. -1.
         22    1    3    3    0    0  0.55172555384E+02  0.85259148129E+02 -0.93406115018E+03  0.93956551953E+03  0.00000000000E+00 0.  1.
         22    1    3    3    0    0 -0.63978899486E+02  0.39342791817E+02 -0.66326539365E+03  0.66750440992E+03  0.00000000000E+00 0.  1.
</event>
<event>
 7    1  0.6058736E-006  0.6351421E+02  0.7818608E-02  0.1479085E+00
          2   -1    0    0  502    0  0.00000000000E+00  0.00000000000E+00  0.77195660304E+03  0.77195660304E+03  0.00000000000E+00 0. -1.
          1   -1    0    0  501    0 -0.00000000000E+00 -0.00000000000E+00 -0.74705358414E+03  0.74705358414E+03  0.00000000000E+00 0. -1.
         25    2    1    2    0    0  0.31055042131E+02 -0.72876424523E+02 -0.19995645487E+03  0.24876246974E+03  0.12499917445E+03 0.  0.
          2    1    1    2  501    0 -0.43825150654E+02  0.44818363167E+02 -0.52049499682E+03  0.52425601687E+03  0.00000000000E+00 0. -1.
          1    1    1    2  502    0  0.12770108523E+02  0.28058061356E+02  0.74535447060E+03  0.74599170057E+03  0.00000000000E+00 0. -1.
         22    1    3    3    0    0  0.41585779636E+02  0.14377684409E+02 -0.19675560438E+02  0.48199819040E+02  0.00000000000E+00 0.  1.
         22    1    3    3    0    0 -0.10530737506E+02 -0.87254108932E+02 -0.18028089444E+03  0.20056265070E+03  0.00000000000E+00 0.  1.
</event>
<event>
 7    1  0.6058736E-006  0.9064844E+02  0.7818608E-02  0.1479493E+00
          2   -1    0    0  502    0  0.00000000000E+00  0.00000000000E+00  0.70804050004E+03  0.70804050004E+03  0.00000000000E+00 0. -1.
          1   -1    0    0  501    0 -0.00000000000E+00 -0.00000000000E+00 -0.19394640767E+03  0.19394640767E+03  0.00000000000E+00 0. -1.
         25    2    1    2    0    0  0.69181804891E+02  0.46424942564E+02  0.53801880056E+02  0.15956753187E+03  0.12500303000E+03 0.  0.
          2    1    1    2  501    0 -0.85884214435E+02 -0.32827448216E+02 -0.12586262835E+03  0.15586898621E+03  0.00000000000E+00 0. -1.
          1    1    1    2  502    0  0.16702409544E+02 -0.13597494348E+02  0.58615484068E+03  0.58655038964E+03  0.00000000000E+00 0. -1.
         22    1    3    3    0    0  0.70648044395E+02  0.16594466649E+02  0.88065506647E+02  0.11411422331E+03  0.00000000000E+00 0. -1.
         22    1    3    3    0    0 -0.14662395040E+01  0.29830475915E+02 -0.34263626591E+02  0.45453308557E+02  0.00000000000E+00 0. -1.
</event>
<event>
 7    1  0.6058736E-006  0.7028159E+02  0.7818608E-02  0.1369353E+00
          2   -1    0    0  502    0  0.00000000000E+00  0.00000000000E+00  0.59797333238E+03  0.59797333238E+03  0.00000000000E+00 0. -1.
          1   -1    0    0  501    0 -0.00000000000E+00 -0.00000000000E+00 -0.76665104473E+03  0.76665104473E+03  0.00000000000E+00 0. -1.
         25    2    1    2    0    0  0.23535373129E+01  0.13047344149E+03 -0.64085607636E+02  0.19173140237E+03  0.12500042991E+03 0.  0.
          2    1    1    2  501    0  0.11984128699E+02 -0.67550401719E+02 -0.63493864952E+03  0.63863429658E+03  0.00000000000E+00 0. -1.
          1    1    1    2  502    0 -0.14337666012E+02 -0.62923039773E+02  0.53034654480E+03  0.53425867816E+03  0.00000000000E+00 0. -1.
         22    1    3    3    0    0 -0.10440230269E+02  0.40195441648E+02  0.36984348276E+02  0.55610376323E+02  0.00000000000E+00 0. -1.
         22    1    3    3    0    0  0.12793767581E+02  0.90277999844E+02 -0.10106995591E+03  0.13612102605E+03  0.00000000000E+00 0. -1.
</event>
<event>
 7    1  0.6058736E-006  0.1730860E+03  0.7818608E-02  0.1335491E+00
          2   -1    0    0  502    0  0.00000000000E+00  0.00000000000E+00  0.12392569702E+04  0.12392569702E+04  0.00000000000E+00 0. -1.
          1   -1    0    0  501    0 -0.00000000000E+00 -0.00000000000E+00 -0.40874822453E+03  0.40874822453E+03  0.00000000000E+00 0. -1.
         25    2    1    2    0    0  0.13181866703E+03 -0.53113273112E+02  0.13025908535E+03  0.22975795780E+03  0.12499643634E+03 0.  0.
          2    1    1    2  501    0 -0.16561696005E+03  0.61997088414E+02 -0.33690897016E+03  0.38050002708E+03  0.00000000000E+00 0. -1.
          1    1    1    2  502    0  0.33798293024E+02 -0.88838153021E+01  0.10371586305E+04  0.10377472098E+04  0.00000000000E+00 0. -1.
         22    1    3    3    0    0  0.12368527296E+03 -0.73508607859E+02  0.14423631548E+03  0.20372942075E+03  0.00000000000E+00 0.  1.
         22    1    3    3    0    0  0.81333940682E+01  0.20395334747E+02 -0.13977230131E+02  0.26028537044E+02  0.00000000000E+00 0.  1.
</event>
<event>
 7    1  0.6058736E-006  0.3569028E+02  0.7818608E-02  0.1579869E+00
          2   -1    0    0  502    0  0.00000000000E+00  0.00000000000E+00  0.71926947499E+02  0.71926947499E+02  0.00000000000E+00 0. -1.
          1   -1    0    0  501    0 -0.00000000000E+00 -0.00000000000E+00 -0.13798339880E+04  0.13798339880E+04  0.00000000000E+00 0. -1.
         25    2    1    2    0    0  0.28155089821E+02 -0.48765524003E+02 -0.10544027007E+04  0.10632787450E+04  0.12500339518E+03 0.  0.
          2    1    1    2  501    0 -0.24786608477E+02  0.20784823304E+02 -0.31719216034E+03  0.31883734320E+03  0.00000000000E+00 0. -1.
          1    1    1    2  502    0 -0.33684813447E+01  0.27980700698E+02  0.63687820534E+02  0.69644847351E+02  0.00000000000E+00 0. -1.
         22    1    3    3    0    0 -0.43663123716E+02  0.82667219491E+01 -0.40543445805E+03  0.40786260780E+03  0.00000000000E+00 0.  1.
         22    1    3    3    0    0  0.71818213537E+02 -0.57032245952E+02 -0.64896824269E+03  0.65541613719E+03  0.00000000000E+00 0.  1.
</event>
<event>
 7    1  0.6058736E-006  0.3011776E+02  0.7818608E-02  0.1649695E+00
          2   -1    0    0  502    0  0.00000000000E+00  0.00000000000E+00  0.75721708435E+02  0.75721708435E+02  0.00000000000E+00 0. -1.
          1   -1    0    0  501    0 -0.00000000000E+00 -0.00000000000E+00 -0.33686718929E+03  0.33686718929E+03  0.00000000000E+00 0. -1.
         25    2    1    2    0    0 -0.16879150499E+02  0.68383117379E+01 -0.23694475235E+03  0.26851280229E+03  0.12499856437E+03 0.  0.
          2    1    1    2  501    0 -0.10856512240E+02 -0.19261726973E+02 -0.78661312611E+02  0.81709730667E+02  0.00000000000E+00 0. -1.
          1    1    1    2  502    0  0.27735662738E+02  0.12423415236E+02  0.54460584108E+02  0.62366364773E+02  0.00000000000E+00 0. -1.
         22    1    3    3    0    0 -0.63808678524E+02 -0.25726913945E+02 -0.11880271953E+03  0.13728622554E+03  0.00000000000E+00 0. -1.
         22    1    3    3    0    0  0.46929528025E+02  0.32565225683E+02 -0.11814203282E+03  0.13122657674E+03  0.00000000000E+00 0. -1.
</event>
<event>
 7    1  0.6058736E-006  0.1167304E+03  0.7818608E-02  0.1330461E+00
          2   -1    0    0  502    0  0.00000000000E+00  0.00000000000E+00  0.34514914540E+04  0.34514914540E+04  0.00000000000E+00 0. -1.
          1   -1    0    0  501    0 -0.00000000000E+00 -0.00000000000E+00 -0.20247676548E+03  0.20247676548E+03  0.00000000000E+00 0. -1.
         25    2    1    2    0    0 -0.10058341066E+03 -0.63459852063E+02  0.33696452624E+03  0.37857010451E+03  0.12500422698E+03 0.  0.
          2    1    1    2  501    0  0.39751035632E+02 -0.36772516966E+02 -0.17650157194E+03  0.18462168815E+03  0.00000000000E+00 0. -1.
          1    1    1    2  502    0  0.60832375030E+02  0.10023236903E+03  0.30885517342E+04  0.30907764268E+04  0.00000000000E+00 0. -1.
         22    1    3    3    0    0 -0.64726580990E+02 -0.76057375109E+02  0.32298809924E+03  0.33807627371E+03  0.00000000000E+00 0.  1.
         22    1    3    3    0    0 -0.35856829672E+02  0.12597523046E+02  0.13976426993E+02  0.40493830796E+02  0.00000000000E+00 0.  1.
</event>
<event>
 7    1  0.6058736E-006  0.1724096E+03  0.7818608E-02  0.1176946E+00
          2   -1    0    0  502    0  0.00000000000E+00  0.00000000000E+00  0.29193420980E+03  0.29193420980E+03  0.00000000000E+00 0. -1.
          1   -1    0    0  501    0 -0.00000000000E+00 -0.00000000000E+00 -0.74398117493E+03  0.74398117493E+03  0.00000000000E+00 0. -1.
         25    2    1    2    0    0 -0.12705399356E+03 -0.14945569936E+03  0.78408642128E+02  0.24546363817E+03  0.12499903660E+03 0.  0.
          2    1    1    2  501    0 -0.44399270671E+02  0.16758992613E+03 -0.58457927089E+03  0.60974634277E+03  0.00000000000E+00 0. -1.
          1    1    1    2  502    0  0.17145326423E+03 -0.18134226771E+02  0.54123663628E+02  0.18070540380E+03  0.00000000000E+00 0. -1.
         22    1    3    3    0    0 -0.12392382368E+03 -0.69305075862E+02  0.84144181741E+02  0.16504711732E+03  0.00000000000E+00 0.  1.
         22    1    3    3    0    0 -0.31301698857E+01 -0.80150623498E+02 -0.57355396128E+01  0.80416520848E+02  0.00000000000E+00 0.  1.
</event>
<event>
 7    1  0.6058736E-006  0.8962508E+02  0.7818608E-02  0.1386951E+00
          2   -1    0    0  502    0  0.00000000000E+00  0.00000000000E+00  0.19369064219E+04  0.19369064219E+04  0.00000000000E+00 0. -1.
          1   -1    0    0  501    0 -0.00000000000E+00 -0.00000000000E+00 -0.35881988463E+03  0.35881988463E+03  0.00000000000E+00 0. -1.
         25    2    1    2    0    0 -0.45847532195E+02  0.13275218208E+02  0.11017916771E+04  0.11098865581E+04  0.12500017755E+03 0.  0.
          2    1    1    2  501    0  0.89427231729E+02 -0.86555040617E+01 -0.34849312600E+03  0.35988832490E+03  0.00000000000E+00 0. -1.
          1    1    1    2  502    0 -0.43579699534E+02 -0.46197141459E+01  0.82478798609E+03  0.82595142349E+03  0.00000000000E+00 0. -1.
         22    1    3    3    0    0 -0.18064780143E+02 -0.27682791376E+02  0.94258902770E+03  0.94316846234E+03  0.00000000000E+00 0. -1.
         22    1    3    3    0    0 -0.27782752052E+02  0.40958009584E+02  0.15920264945E+03  0.16671809575E+03  0.00000000000E+00 0. -1.
</event>
<event>
 7    1  0.6058736E-006  0.4545516E+02  0.7818608E-02  0.1480491E+00
          2   -1    0    0  502    0  0.00000000000E+00  0.00000000000E+00  0.17291268913E+04  0.17291268913E+04  0.00000000000E+00 0. -1.
          1   -1    0    0  501    0 -0.00000000000E+00 -0.00000000000E+00 -0.20059773360E+03  0.20059773360E+03  0.00000000000E+00 0. -1.
         25    2    1    2    0    0 -0.68279440354E+02 -0.53317361653E+02  0.27290647462E+03  0.31242337686E+03  0.12500239793E+03 0.  0.
          2    1    1    2  501    0  0.29773083616E+02  0.30537068944E+02 -0.17797084489E+03  0.18300975580E+03  0.00000000000E+00 0. -1.
          1    1    1    2  502    0  0.38506356738E+02  0.22780292709E+02  0.14335935280E+04  0.14342914923E+04  0.00000000000E+00 0. -1.
         22    1    3    3    0    0  0.36388906699E+02 -0.19646608501E+02  0.89346198953E+02  0.98452450573E+02  0.00000000000E+00 0.  1.
         22    1    3    3    0    0 -0.10466834705E+03 -0.33670753152E+02  0.18356027567E+03  0.21397092629E+03  0.00000000000E+00 0.  1.
</event>
<event>
 7    1  0.6058736E-006  0.8076251E+02  0.7818608E-02  0.1375729E+00
          2   -1    0    0  502    0  0.00000000000E+00  0.00000000000E+00  0.33793150895E+03  0.33793150895E+03  0.00000000000E+00 0. -1.
          1   -1    0    0  501    0 -0.00000000000E+00 -0.00000000000E+00 -0.22955119004E+03  0.22955119004E+03  0.00000000000E+00 0. -1.
         25    2    1    2    0    0  0.31037849203E+02 -0.85069865552E+02 -0.49407433417E+02  0.16207015922E+03  0.12500164769E+03 0.  0.
          2    1    1    2  501    0  0.21862889855E+02  0.78690429408E+02 -0.10739940784E+03  0.13492517348E+03  0.00000000000E+00 0. -1.
          1    1    1    2  502    0 -0.52900739057E+02  0.63794361435E+01  0.26518716017E+03  0.27048736628E+03  0.00000000000E+00 0. -1.
         22    1    3    3    0    0  0.54276029591E+02 -0.85694152132E+02 -0.75999984413E+02  0.12674925139E+03  0.00000000000E+00 0.  1.
         22    1    3    3    0    0 -0.23238180388E+02  0.62428658070E+00  0.26592550996E+02  0.35320907831E+02  0.00000000000E+00 0.  1.
</event>
<event>
 7    1  0.6058736E-006  0.1112559E+03  0.7818608E-02  0.1300475E+00
          2   -1    0    0  502    0  0.00000000000E+00  0.00000000000E+00  0.79448090842E+03  0.79448090842E+03  0.00000000000E+00 0. -1.
          1   -1    0    0  501    0 -0.00000000000E+00 -0.00000000000E+00 -0.30685956540E+03  0.30685956540E+03  0.00000000000E+00 0. -1.
         25    2    1    2    0    0  0.70862601727E+02 -0.13553609831E+03  0.55332110690E+02  0.20513402839E+03  0.12500713924E+03 0.  0.
          2    1    1    2  501    0 -0.69766400753E+02  0.25885228354E+02 -0.22130316802E+03  0.23347909520E+03  0.00000000000E+00 0. -1.
          1    1    1    2  502    0 -0.10962009744E+01  0.10965086996E+03  0.65359240036E+03  0.66272735023E+03  0.00000000000E+00 0. -1.
         22    1    3    3    0    0  0.48750798207E+01 -0.10405174207E+03  0.76244705579E+02  0.12908828978E+03  0.00000000000E+00 0. -1.
         22    1    3    3    0    0  0.65987521906E+02 -0.31484356245E+02 -0.20912594889E+02  0.76045738609E+02  0.00000000000E+00 0. -1.
</event>
<event>
 7    1  0.6058736E-006  0.3991567E+02  0.7818608E-02  0.1511824E+00
          2   -1    0    0  502    0  0.00000000000E+00  0.00000000000E+00  0.36441573347E+02  0.36441573347E+02  0.00000000000E+00 0. -1.
          1   -1    0    0  501    0 -0.00000000000E+00 -0.00000000000E+00 -0.51505081116E+03  0.51505081116E+03  0.00000000000E+00 0. -1.
         25    2    1    2    0    0 -0.66153626660E+01  0.34865053387E+02 -0.27614430369E+03  0.30519209094E+03  0.12500880344E+03 0.  0.
          2    1    1    2  501    0 -0.32016981502E+02 -0.28739633768E+02 -0.20266843955E+03  0.20718482098E+03  0.00000000000E+00 0. -1.
          1    1    1    2  502    0  0.38632344167E+02 -0.61254196192E+01  0.20350543441E+00  0.39115472589E+02  0.00000000000E+00 0. -1.
         22    1    3    3    0    0 -0.92397672244E+01 -0.41191460775E+01  0.11264050573E+02  0.15139996634E+02  0.00000000000E+00 0. -1.
         22    1    3    3    0    0  0.26244045585E+01  0.38984199465E+02 -0.28740835426E+03  0.29005209430E+03  0.00000000000E+00 0. -1.
</event>
<event>
 7    1  0.6058736E-006  0.6188991E+02  0.7818608E-02  0.1473953E+00
          2   -1    0    0  502    0  0.00000000000E+00  0.00000000000E+00  0.48453606379E+03  0.48453606379E+03  0.00000000000E+00 0. -1.
          1   -1    0    0  501    0 -0.00000000000E+00 -0.00000000000E+00 -0.25735991606E+03  0.25735991606E+03  0.00000000000E+00 0. -1.
         25    2    1    2    0    0  0.65071922159E+02  0.58286515811E+02 -0.69480827138E+02  0.16758561717E+03  0.12500272302E+03 0.  0.
          2    1    1    2  501    0 -0.32192390966E+02 -0.63362340777E+01 -0.13467740637E+03  0.13861638318E+03  0.00000000000E+00 0. -1.
          1    1    1    2  502    0 -0.32879531193E+02 -0.51950281733E+02  0.43133438124E+03  0.43569397951E+03  0.00000000000E+00 0. -1.
         22    1    3    3    0    0 -0.17567452270E+02  0.63879352418E+02 -0.13496606257E+02  0.67611725500E+02  0.00000000000E+00 0. -1.
         22    1    3    3    0    0  0.82639374429E+02 -0.55928366078E+01 -0.55984220881E+02  0.99973891667E+02  0.00000000000E+00 0. -1.
</event>
<event>
 7    1  0.6058736E-006  0.9299171E+02  0.7818608E-02  0.1299298E+00
          2   -1    0    0  502    0  0.00000000000E+00  0.00000000000E+00  0.24962422268E+04  0.24962422268E+04  0.00000000000E+00 0. -1.
          1   -1    0    0  501    0 -0.00000000000E+00 -0.00000000000E+00 -0.16483441239E+03  0.16483441239E+03  0.00000000000E+00 0. -1.
         25    2    1    2    0    0  0.16947368296E+02  0.59955796489E+02  0.54135207854E+03  0.55907861973E+03  0.12499967710E+03 0.  0.
          2    1    1    2  501    0  0.73052079663E+02 -0.60367643161E+02 -0.14043026397E+03  0.16941522282E+03  0.00000000000E+00 0. -1.
          1    1    1    2  502    0 -0.89999447959E+02  0.41184667129E+00  0.19304859998E+04  0.19325827966E+04  0.00000000000E+00 0. -1.
         22    1    3    3    0    0 -0.53087433682E+02  0.13479803039E+02  0.24423667854E+03  0.25030288821E+03  0.00000000000E+00 0. -1.
         22    1    3    3    0    0  0.70034801978E+02  0.46475993450E+02  0.29711540000E+03  0.30877573152E+03  0.00000000000E+00 0. -1.
</event>
<event>
 7    1  0.6058736E-006  0.5414057E+02  0.7818608E-02  0.1506209E+00
          2   -1    0    0  502    0  0.00000000000E+00  0.00000000000E+00  0.29974626952E+02  0.29974626952E+02  0.00000000000E+00 0. -1.
          1   -1    0    0  501    0 -0.00000000000E+00 -0.00000000000E+00 -0.11235083360E+04  0.11235083360E+04  0.00000000000E+00 0. -1.
         25    2    1    2    0    0 -0.97576178424E+01  0.79184962347E+01 -0.13547826404E+03  0.18476350999E+03  0.12500112362E+03 0.  0.
          2    1    1    2  501    0  0.23600405693E+02  0.48725989303E+02 -0.76833317774E+03  0.77023832234E+03  0.00000000000E+00 0. -1.
          1    1    1    2  502    0 -0.13842787850E+02 -0.56644485537E+02 -0.18972226725E+03  0.19848113061E+03  0.00000000000E+00 0. -1.
         22    1    3    3    0    0  0.47819591150E+02 -0.30219295453E+02 -0.61345693380E+02  0.83445869950E+02  0.00000000000E+00 0.  1.
         22    1    3    3    0    0 -0.57577208992E+02  0.38137791687E+02 -0.74132570662E+02  0.10131764004E+03  0.00000000000E+00 0.  1.
</event>
<event>
 7    1  0.6058736E-006  0.9147921E+02  0.7818608E-02  0.1309466E+00
          2   -1    0    0  502    0  0.00000000000E+00  0.00000000000E+00  0.44658802161E+03  0.44658802161E+03  0.00000000000E+00 0. -1.
          1   -1    0    0  501    0 -0.00000000000E+00 -0.00000000000E+00 -0.50556450553E+03  0.50556450553E+03  0.00000000000E+00 0. -1.
         25    2    1    2    0    0  0.10638213067E+03  0.11400845777E+03 -0.57016985056E+02  0.20782201975E+03  0.12499587648E+03 0.  0.
          2    1    1    2  501    0 -0.78057711752E+02 -0.29246309588E+02 -0.36297209412E+03  0.37242058764E+03  0.00000000000E+00 0. -1.
          1    1    1    2  502    0 -0.28324418915E+02 -0.84762148182E+02  0.36101259526E+03  0.37190991975E+03  0.00000000000E+00 0. -1.
         22    1    3    3    0    0  0.69879585180E+02  0.46848157839E+02 -0.91208581370E+02  0.12408429245E+03  0.00000000000E+00 0. -1.
         22    1    3    3    0    0  0.36502545487E+02  0.67160299931E+02  0.34191596314E+02  0.83737727294E+02  0.00000000000E+00 0. -1.
</event>
<event>
 7    1  0.6058736E-006  0.1005822E+03  0.7818608E-02  0.1452892E+00
          2   -1    0    0  502    0  0.00000000000E+00  0.00000000000E+00  0.12532267532E+04  0.12532267532E+04  0.00000000000E+00 0. -1.
          1   -1    0    0  501    0 -0.00000000000E+00 -0.00000000000E+00 -0.92035067190E+02  0.92035067190E+02  0.00000000000E+00 0. -1.
         25    2    1    2    0    0 -0.90642771004E+02 -0.63652606600E+02  0.17430548479E+03  0.24140459472E+03  0.12500404018E+03 0.  0.
          2    1    1    2  501    0  0.21777068555E+02 -0.88557656180E+01 -0.53625013871E+02  0.58551749864E+02  0.00000000000E+00 0. -1.
          1    1    1    2  502    0  0.68865702450E+02  0.72508372218E+02  0.10405112151E+04  0.10453054758E+04  0.00000000000E+00 0. -1.
         22    1    3    3    0    0 -0.29630183140E+02 -0.63113933329E+02  0.15701615584E+02  0.71469273574E+02  0.00000000000E+00 0. -1.
         22    1    3    3    0    0 -0.61012587864E+02 -0.53867327050E+00  0.15860386920E+03  0.16993532114E+03  0.00000000000E+00 0. -1.
</event>
<event>
 7    1  0.6058736E-006  0.2566140E+02  0.7818608E-02  0.1657798E+00
          2   -1    0    0  502    0  0.00000000000E+00  0.00000000000E+00  0.82949864076E+03  0.82949864076E+03  0.00000000000E+00 0. -1.
          1   -1    0    0  501    0 -0.00000000000E+00 -0.00000000000E+00 -0.72394594838E+02  0.72394594838E+02  0.00000000000E+00 0. -1.
         25    2    1    2    0    0  0.32590822107E+02  0.57904115614E+01  0.27843057827E+03  0.30699096251E+03  0.12499669435E+03 0.  0.
          2    1    1    2  501    0 -0.20303723358E+02  0.15746119469E+02 -0.54972396105E+02  0.60680687159E+02  0.00000000000E+00 0. -1.
          1    1    1    2  502    0 -0.12287098749E+02 -0.21536531031E+02  0.53364586376E+03  0.53422158593E+03  0.00000000000E+00 0. -1.
         22    1    3    3    0    0  0.63226454092E+02 -0.28729776248E+02  0.22928125505E+03  0.23956810818E+03  0.00000000000E+00 0.  1.
         22    1    3    3    0    0 -0.30635631985E+02  0.34520187810E+02  0.49149323224E+02  0.67422854337E+02  0.00000000000E+00 0.  1.
</event>
<event>
 7    1  0.6058736E-006  0.5306491E+02  0.7818608E-02  0.1477616E+00
          2   -1    0    0  502    0  0.00000000000E+00  0.00000000000E+00  0.32366953467E+03  0.32366953467E+03  0.00000000000E+00 0. -1.
          1   -1    0    0  501    0 -0.00000000000E+00 -0.00000000000E+00 -0.10359346388E+03  0.10359346388E+03  0.00000000000E+00 0. -1.
         25    2    1    2    0    0 -0.45521195026E+00 -0.74795816851E+02  0.46029470250E+02  0.15277117933E+03  0.12500279864E+03 0.  0.
          2    1    1    2  501    0 -0.22817404086E+02  0.45667878820E+02 -0.35161143534E+02  0.61987862520E+02  0.00000000000E+00 0. -1.
          1    1    1    2  502    0  0.23272616036E+02  0.29127938030E+02  0.20920774407E+03  0.21250395670E+03  0.00000000000E+00 0. -1.
         22    1    3    3    0    0  0.36329539125E+02 -0.66638331391E+02  0.73878732196E+02  0.10591774967E+03  0.00000000000E+00 0.  1.
         22    1    3    3    0    0 -0.36784751075E+02 -0.81574854592E+01 -0.27849261946E+02  0.46853429667E+02  0.00000000000E+00 0.  1.
</event>
<event>
 7    1  0.6058736E-006  0.4736044E+02  0.7818608E-02  0.1536243E+00
          2   -1    0    0  502    0  0.00000000000E+00  0.00000000000E+00  0.20322931877E+04  0.20322931877E+04  0.00000000000E+00 0. -1.
          1   -1    0    0  501    0 -0.00000000000E+00 -0.00000000000E+00 -0.42380027219E+02  0.42380027219E+02  0.00000000000E+00 0. -1.
         25    2    1    2    0    0  0.12800310122E+02 -0.30574071645E+02  0.79508988610E+03  0.80553832181E+03  0.12500175650E+03 0.  0.
          2    1    1    2  501    0  0.10150435034E+02  0.46656669949E+02 -0.21587522022E+02  0.52401309995E+02  0.00000000000E+00 0. -1.
          1    1    1    2  502    0 -0.22950745157E+02 -0.16082598304E+02  0.12164107964E+04  0.12167335831E+04  0.00000000000E+00 0. -1.
         22    1    3    3    0    0  0.37256014729E+02 -0.69992270980E+02  0.40403539181E+03  0.41174206302E+03  0.00000000000E+00 0. -1.
         22    1    3    3    0    0 -0.24455704607E+02  0.39418199335E+02  0.39105449430E+03  0.39379625879E+03  0.00000000000E+00 0. -1.
</event>
<event>
 7    1  0.6058736E-006  0.7251449E+02  0.7818608E-02  0.1466771E+00
          2   -1    0    0  502    0  0.00000000000E+00  0.00000000000E+00  0.14905838944E+02  0.14905838944E+02  0.00000000000E+00 0. -1.
          1   -1    0    0  501    0 -0.00000000000E+00 -0.00000000000E+00 -0.25802256026E+04  0.25802256026E+04  0.00000000000E+00 0. -1.
         25    2    1    2    0    0 -0.55578313194E+02  0.14998564792E+02 -0.76880146123E+03  0.78102177417E+03  0.12500167635E+03 0.  0.
          2    1    1    2  501    0  0.74503640762E+02  0.76048790567E+01 -0.17773908273E+04  0.17789678973E+04  0.00000000000E+00 0. -1.
          1    1    1    2  502    0 -0.18925327568E+02 -0.22603443848E+02 -0.19127475069E+02  0.35141770016E+02  0.00000000000E+00 0. -1.
         22    1    3    3    0    0 -0.49069572937E+02 -0.24520577528E+02 -0.69406961975E+03  0.69623395405E+03  0.00000000000E+00 0. -1.
         22    1    3    3    0    0 -0.65087402569E+01  0.39519142320E+02 -0.74731841485E+02  0.84787820122E+02  0.00000000000E+00 0. -1.
</event>
<event>
 7    1  0.6058736E-006  0.7108589E+02  0.7818608E-02  0.1508160E+00
          2   -1    0    0  502    0  0.00000000000E+00  0.00000000000E+00  0.20713879329E+04  0.20713879329E+04  0.00000000000E+00 0. -1.
          1   -1    0    0  501    0 -0.00000000000E+00 -0.00000000000E+00 -0.16605595774E+02  0.16605595774E+02  0.00000000000E+00 0. -1.
         25    2    1    2    0    0 -0.58378889429E+02  0.34147084703E+02  0.52426689349E+03  0.54318051068E+03  0.12496068759E+03 0.  0.
          2    1    1    2  501    0  0.48815566392E+02 -0.54531057435E+02  0.18276742693E+03  0.19687693642E+03  0.00000000000E+00 0. -1.
          1    1    1    2  502    0  0.95633230369E+01  0.20383972732E+02  0.13477480167E+04  0.13479360816E+04  0.00000000000E+00 0. -1.
         22    1    3    3    0    0  0.37852535241E+02  0.15631714801E+02  0.21122102568E+03  0.21515456449E+03  0.00000000000E+00 0. -1.
         22    1    3    3    0    0 -0.96231424670E+02  0.18515369902E+02  0.31304586781E+03  0.32802594619E+03  0.00000000000E+00 0. -1.
</event>
<event>
 7    1  0.6058736E-006  0.2453979E+03  0.7818608E-02  0.1227815E+00
          2   -1    0    0  502    0  0.00000000000E+00  0.00000000000E+00  0.34269621336E+03  0.34269621336E+03  0.00000000000E+00 0. -1.
          1   -1    0    0  501    0 -0.00000000000E+00 -0.00000000000E+00 -0.17616773666E+04  0.17616773666E+04  0.00000000000E+00 0. -1.
         25    2    1    2    0    0  0.21265080356E+03  0.99684593346E+02 -0.18588515774E+03  0.32455334334E+03  0.12499679355E+03 0.  0.
          2    1    1    2  501    0 -0.24502794286E+03 -0.39192514124E+02 -0.14917362707E+04  0.15122340584E+04  0.00000000000E+00 0. -1.
          1    1    1    2  502    0  0.32377139300E+02 -0.60492079222E+02  0.25864027523E+03  0.26758617821E+03  0.00000000000E+00 0. -1.
         22    1    3    3    0    0  0.21500034275E+03  0.10140456789E+03 -0.13458127719E+03  0.27316689759E+03  0.00000000000E+00 0. -1.
         22    1    3    3    0    0 -0.23495391866E+01 -0.17199745426E+01 -0.51303880552E+02  0.51386445747E+02  0.00000000000E+00 0. -1.
</event>
<event>
 7    1  0.6058736E-006  0.3755489E+02  0.7818608E-02  0.1549633E+00
          2   -1    0    0  502    0  0.00000000000E+00  0.00000000000E+00  0.73265987079E+03  0.73265987079E+03  0.00000000000E+00 0. -1.
          1   -1    0    0  501    0 -0.00000000000E+00 -0.00000000000E+00 -0.48959434836E+02  0.48959434836E+02  0.00000000000E+00 0. -1.
         25    2    1    2    0    0 -0.11575590145E+00  0.48812012858E+02  0.28226606515E+03  0.31254002626E+03  0.12499804191E+03 0.  0.
          2    1    1    2  501    0  0.24996692817E+02 -0.28053826170E+02 -0.22574243956E+02  0.43834327926E+02  0.00000000000E+00 0. -1.
          1    1    1    2  502    0 -0.24880936915E+02 -0.20758186688E+02  0.42400861475E+03  0.42524495143E+03  0.00000000000E+00 0. -1.
         22    1    3    3    0    0 -0.54395584647E+02  0.47738423003E+02  0.10795212921E+03  0.12996729920E+03  0.00000000000E+00 0. -1.
         22    1    3    3    0    0  0.54279828745E+02  0.10735898545E+01  0.17431393594E+03  0.18257272706E+03  0.00000000000E+00 0. -1.
</event>
<event>
 7    1  0.6058736E-006  0.9078240E+02  0.7818608E-02  0.1337063E+00
          2   -1    0    0  502    0  0.00000000000E+00  0.00000000000E+00  0.81237285521E+03  0.81237285521E+03  0.00000000000E+00 0. -1.
          1   -1    0    0  501    0 -0.00000000000E+00 -0.00000000000E+00 -0.19487081624E+03  0.19487081624E+03  0.00000000000E+00 0. -1.
         25    2    1    2    0    0  0.22400888337E+02 -0.56084985161E+02  0.20880771426E+03  0.25074528647E+03  0.12500084718E+03 0.  0.
          2    1    1    2  501    0 -0.85474520931E+02  0.37613616540E+02 -0.15933239405E+03  0.18468213144E+03  0.00000000000E+00 0. -1.
          1    1    1    2  502    0  0.63073632594E+02  0.18471368621E+02  0.56802671876E+03  0.57181625354E+03  0.00000000000E+00 0. -1.
         22    1    3    3    0    0  0.31223817002E+02  0.26966388472E+02  0.12818888023E+03  0.13466440462E+03  0.00000000000E+00 0.  1.
         22    1    3    3    0    0 -0.88229286644E+01 -0.83051373632E+02  0.80618834026E+02  0.11608088185E+03  0.00000000000E+00 0.  1.
</event>
<event>
 7    1  0.6058736E-006  0.2497188E+03  0.7818608E-02  0.1186056E+00
          2   -1    0    0  502    0  0.00000000000E+00  0.00000000000E+00  0.19523332461E+04  0.19523332461E+04  0.00000000000E+00 0. -1.
          1   -1    0    0  501    0 -0.00000000000E+00 -0.00000000000E+00 -0.10653435875E+03  0.10653435875E+03  0.00000000000E+00 0. -1.
         25    2    1    2    0    0 -0.11397629598E+03 -0.17765664036E+03  0.94746849486E+03  0.97871113386E+03  0.12500582741E+03 0.  0.
          2    1    1    2  501    0 -0.74681190421E+02 -0.74608615601E+02 -0.21631836694E+02  0.10775742241E+03  0.00000000000E+00 0. -1.
          1    1    1    2  502    0  0.18865748640E+03  0.25226525596E+03  0.91996222920E+03  0.97239904859E+03  0.00000000000E+00 0. -1.
         22    1    3    3    0    0 -0.13405794077E+03 -0.11434729188E+03  0.61872367701E+03  0.64332404210E+03  0.00000000000E+00 0. -1.
         22    1    3    3    0    0  0.20081644784E+02 -0.63309348485E+02  0.32874481785E+03  0.33538709177E+03  0.00000000000E+00 0. -1.
</event>
<event>
 7    1  0.6058736E-006  0.7254527E+02  0.7818608E-02  0.1484421E+00
          2   -1    0    0  502    0  0.00000000000E+00  0.00000000000E+00  0.99603421864E+02  0.99603421864E+02  0.00000000000E+00 0. -1.
          1   -1    0    0  501    0 -0.00000000000E+00 -0.00000000000E+00 -0.17061467380E+04  0.17061467380E+04  0.00000000000E+00 0. -1.
         25    2    1    2    0    0  0.26005027292E+02 -0.80268909723E+02 -0.61666614618E+02  0.16293204214E+03  0.12499887873E+03 0.  0.
          2    1    1    2  501    0 -0.24069064367E+02  0.98160567430E+01 -0.15683250230E+04  0.15685404211E+04  0.00000000000E+00 0. -1.
          1    1    1    2  502    0 -0.19359629247E+01  0.70452852980E+02  0.23448321440E+02  0.74277696678E+02  0.00000000000E+00 0. -1.
         22    1    3    3    0    0  0.48247464162E+02  0.10126833254E+02 -0.48064145541E+02  0.68851526028E+02  0.00000000000E+00 0.  1.
         22    1    3    3    0    0 -0.22242436870E+02 -0.90395742977E+02 -0.13602469077E+02  0.94080516108E+02  0.00000000000E+00 0.  1.
</event>
<event>
 7    1  0.6058736E-006  0.8818757E+02  0.7818608E-02  0.1335302E+00
          2   -1    0    0  502    0  0.00000000000E+00  0.00000000000E+00  0.17512263908E+04  0.17512263908E+04  0.00000000000E+00 0. -1.
          1   -1    0    0  501    0 -0.00000000000E+00 -0.00000000000E+00 -0.18578990411E+04  0.18578990411E+04  0.00000000000E+00 0. -1.
         25    2    1    2    0    0 -0.27001651725E+02 -0.49665581163E+02 -0.78055164257E+01  0.13740814218E+03  0.12499724918E+03 0.  0.
          2    1    1    2  501    0  0.87442563876E+02  0.17001182040E+02 -0.17834804029E+04  0.17857036679E+04  0.00000000000E+00 0. -1.
          1    1    1    2  502    0 -0.60440912150E+02  0.32664399123E+02  0.16846132690E+04  0.16860136218E+04  0.00000000000E+00 0. -1.
         22    1    3    3    0    0  0.48774226544E+02 -0.29886448687E+02  0.72476744954E+01  0.57659810749E+02  0.00000000000E+00 0.  1.
         22    1    3    3    0    0 -0.75775878269E+02 -0.19779132476E+02 -0.15053190921E+02  0.79748331430E+02  0.00000000000E+00 0.  1.
</event>
<event>
 7    1  0.6058736E-006  0.5269315E+02  0.7818608E-02  0.1561462E+00
          2   -1    0    0  502    0  0.00000000000E+00  0.00000000000E+00  0.18804444828E+03  0.18804444828E+03  0.00000000000E+00 0. -1.
          1   -1    0    0  501    0 -0.00000000000E+00 -0.00000000000E+00 -0.85584850096E+02  0.85584850096E+02  0.00000000000E+00 0. -1.
         25    2    1    2    0    0  0.24428843895E+02  0.50233776595E+02 -0.99832109828E+00  0.13691568504E+03  0.12499882976E+03 0.  0.
          2    1    1    2  501    0 -0.39120635348E+02 -0.34651394436E+02  0.30133392738E+02  0.60325488844E+02  0.00000000000E+00 0. -1.
          1    1    1    2  502    0  0.14691791453E+02 -0.15582382159E+02  0.73324526543E+02  0.76388124487E+02  0.00000000000E+00 0. -1.
         22    1    3    3    0    0  0.32309914274E+02  0.45518500040E+01  0.55164883492E+02  0.64092232521E+02  0.00000000000E+00 0.  1.
         22    1    3    3    0    0 -0.78810703794E+01  0.45681926591E+02 -0.56163204590E+02  0.72823452522E+02  0.00000000000E+00 0.  1.
</event>
<event>
 7    1  0.6058736E-006  0.6199668E+02  0.7818608E-02  0.1521635E+00
          2   -1    0    0  502    0  0.00000000000E+00  0.00000000000E+00  0.16911352148E+04  0.16911352148E+04  0.00000000000E+00 0. -1.
          1   -1    0    0  501    0 -0.00000000000E+00 -0.00000000000E+00 -0.72108447463E+03  0.72108447463E+03  0.00000000000E+00 0. -1.
         25    2    1    2    0    0  0.20808738656E+02  0.40190083489E+02  0.10028065591E+04  0.10115803341E+04  0.12500212380E+03 0.  0.
          2    1    1    2  501    0  0.69311610011E+01  0.22535893945E+02 -0.71478325597E+03  0.71517201463E+03  0.00000000000E+00 0. -1.
          1    1    1    2  502    0 -0.27739899657E+02 -0.62725977434E+02  0.68202743707E+03  0.68546734072E+03  0.00000000000E+00 0. -1.
         22    1    3    3    0    0 -0.27200162883E+01  0.26186383602E+02  0.37135095352E+02  0.45520769782E+02  0.00000000000E+00 0.  1.
         22    1    3    3    0    0  0.23528754944E+02  0.14003699888E+02  0.96567146371E+03  0.96605956428E+03  0.00000000000E+00 0.  1.
</event>
<event>
 7    1  0.6058736E-006  0.9515265E+02  0.7818608E-02  0.1429375E+00
          2   -1    0    0  502    0  0.00000000000E+00  0.00000000000E+00  0.26879612453E+02  0.26879612453E+02  0.00000000000E+00 0. -1.
          1   -1    0    0  501    0 -0.00000000000E+00 -0.00000000000E+00 -0.12011426907E+04  0.12011426907E+04  0.00000000000E+00 0. -1.
         25    2    1    2    0    0  0.81913739179E+02  0.35319058732E+02 -0.52038772370E+03  0.54257398649E+03  0.12500340500E+03 0.  0.
          2    1    1    2  501    0 -0.97644552436E+02 -0.10225686857E+02 -0.64782227050E+03  0.65521959483E+03  0.00000000000E+00 0. -1.
          1    1    1    2  502    0  0.15730813256E+02 -0.25093371876E+02 -0.60530840568E+01  0.30228721845E+02  0.00000000000E+00 0. -1.
         22    1    3    3    0    0 -0.16361200651E+02 -0.95139891873E+01 -0.11066330376E+02  0.21924154373E+02  0.00000000000E+00 0. -1.
         22    1    3    3    0    0  0.98274939830E+02  0.44833047920E+02 -0.50932139333E+03  0.52064983212E+03  0.00000000000E+00 0. -1.
</event>
<event>
 7    1  0.6058736E-006  0.1102418E+03  0.7818608E-02  0.1299784E+00
          2   -1    0    0  502    0  0.00000000000E+00  0.00000000000E+00  0.11807373268E+04  0.11807373268E+04  0.00000000000E+00 0. -1.
          1   -1    0    0  501    0 -0.00000000000E+00 -0.00000000000E+00 -0.53117904068E+02  0.53117904068E+02  0.00000000000E+00 0. -1.
         25    2    1    2    0    0  0.19745689059E+02 -0.14149370605E+03  0.33649616905E+03  0.38634982911E+03  0.12500463022E+03 0.  0.
          2    1    1    2  501    0  0.48539486190E+02  0.57930118603E+02  0.34247616720E+02  0.82975174672E+02  0.00000000000E+00 0. -1.
          1    1    1    2  502    0 -0.68285175249E+02  0.83563587450E+02  0.75687563700E+03  0.76453022713E+03  0.00000000000E+00 0. -1.
         22    1    3    3    0    0  0.24305785295E+02  0.17784485791E+02  0.62794418786E+02  0.69643364108E+02  0.00000000000E+00 0.  1.
         22    1    3    3    0    0 -0.45600962364E+01 -0.15927819184E+03  0.27370175027E+03  0.31670646500E+03  0.00000000000E+00 0.  1.
</event>
<event>
 7    1  0.6058736E-006  0.6261002E+02  0.7818608E-02  0.1408557E+00
          2   -1    0    0  502    0  0.00000000000E+00  0.00000000000E+00  0.16497405861E+04  0.16497405861E+04  0.00000000000E+00 0. -1.
          1   -1    0    0  501    0 -0.00000000000E+00 -0.00000000000E+00 -0.10481842657E+04  0.10481842657E+04  0.00000000000E+00 0. -1.
         25    2    1    2    0    0 -0.75051952411E+02  0.23904459101E+02  0.51908886231E+03  0.53970991808E+03  0.12501731870E+03 0.  0.
          2    1    1    2  501    0  0.17808766626E+02 -0.49746919188E+02 -0.10363199045E+04  0.10376660602E+04  0.00000000000E+00 0. -1.
          1    1    1    2  502    0  0.57243185785E+02  0.25842460086E+02  0.11187873626E+04  0.11205488734E+04  0.00000000000E+00 0. -1.
         22    1    3    3    0    0 -0.14260964945E+02 -0.55616734029E+01  0.41707266095E+03  0.41735346152E+03  0.00000000000E+00 0.  1.
         22    1    3    3    0    0 -0.60790987466E+02  0.29466132504E+02  0.10201620136E+03  0.12235645656E+03  0.00000000000E+00 0.  1.
</event>
<event>
 7    1  0.6058736E-006  0.1338882E+03  0.7818608E-02  0.1377937E+00
          2   -1    0    0  502    0  0.00000000000E+00  0.00000000000E+00  0.13875063061E+04  0.13875063061E+04  0.00000000000E+00 0. -1.
          1   -1    0    0  501    0 -0.00000000000E+00 -0.00000000000E+00 -0.12140688448E+04  0.12140688448E+04  0.00000000000E+00 0. -1.
         25    2    1    2    0    0  0.15675351775E+03 -0.44623165381E+02 -0.42767683851E+03  0.47444146230E+03  0.12499732290E+03 0.  0.
          2    1    1    2  501    0 -0.25678947994E+02  0.18356094609E+02 -0.75940595653E+03  0.76006168263E+03  0.00000000000E+00 0. -1.
          1    1    1    2  502    0 -0.13107456975E+03  0.26267070772E+02  0.13605202563E+04  0.13670720060E+04  0.00000000000E+00 0. -1.
         22    1    3    3    0    0  0.54633117878E+02 -0.13905750981E+02 -0.31223066318E+03  0.31727926896E+03  0.00000000000E+00 0. -1.
         22    1    3    3    0    0  0.10212039987E+03 -0.30717414400E+02 -0.11544617533E+03  0.15716219334E+03  0.00000000000E+00 0. -1.
</event>
<event>
 7    1  0.6058736E-006  0.9289333E+02  0.7818608E-02  0.1372654E+00
          2   -1    0    0  502    0  0.00000000000E+00  0.00000000000E+00  0.19583449442E+03  0.19583449442E+03  0.00000000000E+00 0. -1.
          1   -1    0    0  501    0 -0.00000000000E+00 -0.00000000000E+00 -0.14020840154E+03  0.14020840154E+03  0.00000000000E+00 0. -1.
         25    2    1    2    0    0 -0.14409550335E+02  0.10066556826E+03  0.59156930286E+02  0.17165493759E+03  0.12499873369E+03 0.  0.
          2    1    1    2  501    0  0.45442222248E+02 -0.13872577251E+02 -0.43035170148E+02  0.64105146690E+02  0.00000000000E+00 0. -1.
          1    1    1    2  502    0 -0.31032671913E+02 -0.86792991005E+02  0.39504332739E+02  0.10028281168E+03  0.00000000000E+00 0. -1.
         22    1    3    3    0    0 -0.52185950868E+02 -0.73082441987E+00  0.27065365456E+02  0.58791509418E+02  0.00000000000E+00 0. -1.
         22    1    3    3    0    0  0.37776400533E+02  0.10139639268E+03  0.32091564830E+02  0.11286342817E+03  0.00000000000E+00 0. -1.
</event>
<event>
 7    1  0.6058736E-006  0.7584975E+02  0.7818608E-02  0.1473911E+00
          2   -1    0    0  502    0  0.00000000000E+00  0.00000000000E+00  0.18597640996E+03  0.18597640996E+03  0.00000000000E+00 0. -1.
          1   -1    0    0  501    0 -0.00000000000E+00 -0.00000000000E+00 -0.24577881871E+03  0.24577881871E+03  0.00000000000E+00 0. -1.
         25    2    1    2    0    0  0.54803202273E+02 -0.18177405732E+02  0.38690649452E+02  0.14302291953E+03  0.12499912038E+03 0.  0.
          2    1    1    2  501    0  0.18351838331E+02 -0.19502540772E+02 -0.17460158932E+03  0.17664329611E+03  0.00000000000E+00 0. -1.
          1    1    1    2  502    0 -0.73155040604E+02  0.37679946504E+02  0.76108531116E+02  0.11208901303E+03  0.00000000000E+00 0. -1.
         22    1    3    3    0    0  0.62501950894E+02  0.14631328847E+02  0.71431994800E+02  0.96036969602E+02  0.00000000000E+00 0.  1.
         22    1    3    3    0    0 -0.76987486210E+01 -0.32808734579E+02 -0.32741345348E+02  0.46985949923E+02  0.00000000000E+00 0.  1.
</event>
<event>
 7    1  0.6058736E-006  0.5769057E+02  0.7818608E-02  0.1454865E+00
          2   -1    0    0  502    0  0.00000000000E+00  0.00000000000E+00  0.12627416457E+04  0.12627416457E+04  0.00000000000E+00 0. -1.
          1   -1    0    0  501    0 -0.00000000000E+00 -0.00000000000E+00 -0.41541153501E+03  0.41541153501E+03  0.00000000000E+00 0. -1.
         25    2    1    2    0    0  0.86858128512E+02 -0.43817498018E+02  0.18379912331E+03  0.24263332275E+03  0.12499801581E+03 0.  0.
          2    1    1    2  501    0 -0.52993750638E+02  0.21788529869E+02 -0.38347635664E+03  0.38773340550E+03  0.00000000000E+00 0. -1.
          1    1    1    2  502    0 -0.33864377874E+02  0.22028968148E+02  0.10470073440E+04  0.10477864524E+04  0.00000000000E+00 0. -1.
         22    1    3    3    0    0  0.52822644412E+02 -0.81335335743E+02  0.15897439733E+03  0.18622171627E+03  0.00000000000E+00 0.  1.
         22    1    3    3    0    0  0.34035484100E+02  0.37517837726E+02  0.24824725982E+02  0.56411606480E+02  0.00000000000E+00 0.  1.
</event>
<event>
 7    1  0.6058736E-006  0.9502977E+02  0.7818608E-02  0.1347453E+00
          2   -1    0    0  502    0  0.00000000000E+00  0.00000000000E+00  0.74067212916E+03  0.74067212916E+03  0.00000000000E+00 0. -1.
          1   -1    0    0  501    0 -0.00000000000E+00 -0.00000000000E+00 -0.10944084024E+04  0.10944084024E+04  0.00000000000E+00 0. -1.
         25    2    1    2    0    0 -0.70958264038E+02 -0.99137662013E+01  0.16237837962E+03  0.21708346111E+03  0.12500053170E+03 0.  0.
          2    1    1    2  501    0 -0.19766858122E+02  0.53887754447E+02 -0.10616616597E+04  0.10632121606E+04  0.00000000000E+00 0. -1.
          1    1    1    2  502    0  0.90725122160E+02 -0.43973988246E+02  0.54554700688E+03  0.55478490981E+03  0.00000000000E+00 0. -1.
         22    1    3    3    0    0 -0.14182475146E+02  0.55471660812E+02  0.70642525589E+02  0.90931920556E+02  0.00000000000E+00 0.  1.
         22    1    3    3    0    0 -0.56775788892E+02 -0.65385427013E+02  0.91735854031E+02  0.12615154056E+03  0.00000000000E+00 0.  1.
</event>
<event>
 7    1  0.6058736E-006  0.2179531E+03  0.7818608E-02  0.1225803E+00
          2   -1    0    0  502    0  0.00000000000E+00  0.00000000000E+00  0.32358026100E+03  0.32358026100E+03  0.00000000000E+00 0. -1.
          1   -1    0    0  501    0 -0.00000000000E+00 -0.00000000000E+00 -0.11019566742E+04  0.11019566742E+04  0.00000000000E+00 0. -1.
         25    2    1    2    0    0 -0.27772527703E+03  0.20177390619E+02 -0.39911880194E+03  0.50245420262E+03  0.12500380422E+03 0.  0.
          2    1    1    2  501    0  0.19965154574E+03 -0.89173809273E+01 -0.62962577878E+03  0.66058222857E+03  0.00000000000E+00 0. -1.
          1    1    1    2  502    0  0.78073731292E+02 -0.11260009691E+02  0.25036816749E+03  0.26250050405E+03  0.00000000000E+00 0. -1.
         22    1    3    3    0    0 -0.17020202183E+03  0.48297374579E+02 -0.32126306565E+03  0.36675785196E+03  0.00000000000E+00 0. -1.
         22    1    3    3    0    0 -0.10752325521E+03 -0.28119983960E+02 -0.77855736297E+02  0.13569635066E+03  0.00000000000E+00 0. -1.
</event>
<event>
 7    1  0.6058736E-006  0.4870133E+02  0.7818608E-02  0.1489965E+00
          2   -1    0    0  502    0  0.00000000000E+00  0.00000000000E+00  0.64022522354E+03  0.64022522354E+03  0.00000000000E+00 0. -1.
          1   -1    0    0  501    0 -0.00000000000E+00 -0.00000000000E+00 -0.79301820608E+03  0.79301820608E+03  0.00000000000E+00 0. -1.
         25    2    1    2    0    0 -0.16006482645E+02  0.62968545953E+00 -0.32006010015E+03  0.34397681939E+03  0.12499992231E+03 0.  0.
          2    1    1    2  501    0  0.51581031441E+02 -0.11667586711E+02 -0.45892784941E+03  0.46196483237E+03  0.00000000000E+00 0. -1.
          1    1    1    2  502    0 -0.35574548796E+02  0.11037901251E+02  0.62619496702E+03  0.62730177786E+03  0.00000000000E+00 0. -1.
         22    1    3    3    0    0  0.40809222238E+02 -0.15602355106E+02 -0.24286063946E+03  0.24675922740E+03  0.00000000000E+00 0. -1.
         22    1    3    3    0    0 -0.56815704883E+02  0.16232040566E+02 -0.77199460689E+02  0.97217591993E+02  0.00000000000E+00 0. -1.
</event>
<event>
 7    1  0.6058736E-006  0.1980783E+03  0.7818608E-02  0.1303750E+00
          2   -1    0    0  502    0  0.00000000000E+00  0.00000000000E+00  0.16629165423E+04  0.16629165423E+04  0.00000000000E+00 0. -1.
          1   -1    0    0  501    0 -0.00000000000E+00 -0.00000000000E+00 -0.36426606429E+03  0.36426606429E+03  0.00000000000E+00 0. -1.
         25    2    1    2    0    0 -0.96846002619E+02  0.13849231399E+03  0.19991562012E+02  0.21115060336E+03  0.12500258194E+03 0.  0.
          2    1    1    2  501    0  0.12825627594E+03 -0.16414967963E+03 -0.22799582295E+03  0.30883148305E+03  0.00000000000E+00 0. -1.
          1    1    1    2  502    0 -0.31410273319E+02  0.25657365638E+02  0.15066547389E+04  0.15072005202E+04  0.00000000000E+00 0. -1.
         22    1    3    3    0    0 -0.51628478129E+01 -0.22699929010E+02 -0.56197865884E+01  0.23948356434E+02  0.00000000000E+00 0. -1.
         22    1    3    3    0    0 -0.91683154807E+02  0.16119224300E+03  0.25611348601E+02  0.18720224693E+03  0.00000000000E+00 0. -1.
</event>
<event>
 7    1  0.6058736E-006  0.1309637E+03  0.7818608E-02  0.1264531E+00
          2   -1    0    0  502    0  0.00000000000E+00  0.00000000000E+00  0.22760417955E+03  0.22760417955E+03  0.00000000000E+00 0. -1.
          1   -1    0    0  501    0 -0.00000000000E+00 -0.00000000000E+00 -0.82898072727E+03  0.82898072727E+03  0.00000000000E+00 0. -1.
         25    2    1    2    0    0 -0.68902106171E+02 -0.44927853078E+02 -0.15217116250E+03  0.21341632934E+03  0.12499781885E+03 0.  0.
          2    1    1    2  501    0  0.20941644805E+02 -0.86376268159E+02 -0.61779927729E+03  0.62415972252E+03  0.00000000000E+00 0. -1.
          1    1    1    2  502    0  0.47960461366E+02  0.13130412124E+03  0.16859389207E+03  0.21900885496E+03  0.00000000000E+00 0. -1.
         22    1    3    3    0    0  0.58093093743E+01 -0.27053832209E+02 -0.13077810444E+03  0.13367337249E+03  0.00000000000E+00 0.  1.
         22    1    3    3    0    0 -0.74711415545E+02 -0.17874020868E+02 -0.21393058060E+02  0.79742956854E+02  0.00000000000E+00 0.  1.
</event>
<event>
 7    1  0.6058736E-006  0.8549331E+02  0.7818608E-02  0.1399680E+00
          2   -1    0    0  502    0  0.00000000000E+00  0.00000000000E+00  0.68309672847E+02  0.68309672847E+02  0.00000000000E+00 0. -1.
          1   -1    0    0  501    0 -0.00000000000E+00 -0.00000000000E+00 -0.15970108239E+04  0.15970108239E+04  0.00000000000E+00 0. -1.
         25    2    1    2    0    0  0.50456948684E+02  0.35175753188E+02 -0.16960785363E+03  0.21948853316E+03  0.12500061956E+03 0.  0.
          2    1    1    2  501    0  0.39385147072E+02 -0.13065303471E+02 -0.13524333017E+04  0.13530697423E+04  0.00000000000E+00 0. -1.
          1    1    1    2  502    0 -0.89842095756E+02 -0.22110449717E+02 -0.66599957235E+01  0.92762221295E+02  0.00000000000E+00 0. -1.
         22    1    3    3    0    0  0.40385138012E+02  0.52437656425E+02 -0.20848298737E+02  0.69392497748E+02  0.00000000000E+00 0. -1.
         22    1    3    3    0    0  0.10071810673E+02 -0.17261903236E+02 -0.14875955489E+03  0.15009603541E+03  0.00000000000E+00 0. -1.
</event>
<event>
 7    1  0.6058736E-006  0.1726037E+03  0.7818608E-02  0.1242418E+00
          2   -1    0    0  502    0  0.00000000000E+00  0.00000000000E+00  0.17745793643E+03  0.17745793643E+03  0.00000000000E+00 0. -1.
          1   -1    0    0  501    0 -0.00000000000E+00 -0.00000000000E+00 -0.19943899618E+04  0.19943899618E+04  0.00000000000E+00 0. -1.
         25    2    1    2    0    0 -0.11652606298E+03 -0.57227397026E+02 -0.61831120123E+02  0.19052939456E+03  0.12500025780E+03 0.  0.
          2    1    1    2  501    0  0.17624861993E+03 -0.18461199077E+01 -0.18478188616E+04  0.18562062195E+04  0.00000000000E+00 0. -1.
          1    1    1    2  502    0 -0.59722556947E+02  0.59073516933E+02  0.92717956346E+02  0.12511228413E+03  0.00000000000E+00 0. -1.
         22    1    3    3    0    0 -0.32206849457E+02 -0.61728543291E+02 -0.78001357323E+02  0.10455575524E+03  0.00000000000E+00 0. -1.
         22    1    3    3    0    0 -0.84319213523E+02  0.45011462656E+01  0.16170237200E+02  0.85973639320E+02  0.00000000000E+00 0. -1.
</event>
<event>
 7    1  0.6058736E-006  0.1615214E+03  0.7818608E-02  0.1262418E+00
          2   -1    0    0  502    0  0.00000000000E+00  0.00000000000E+00  0.28073930339E+04  0.28073930339E+04  0.00000000000E+00 0. -1.
          1   -1    0    0  501    0 -0.00000000000E+00 -0.00000000000E+00 -0.21804419157E+03  0.21804419157E+03  0.00000000000E+00 0. -1.
         25    2    1    2    0    0 -0.10128235845E+03  0.13810701514E+03  0.15990946831E+04  0.16130904148E+04  0.12500086826E+03 0.  0.
          2    1    1    2  501    0  0.14215940531E+03 -0.76941014840E+02 -0.17876754062E+03  0.24101255125E+03  0.00000000000E+00 0. -1.
          1    1    1    2  502    0 -0.40877046856E+02 -0.61166000304E+02  0.11690216998E+04  0.11713342594E+04  0.00000000000E+00 0. -1.
         22    1    3    3    0    0 -0.40323915534E+02  0.63248021763E+02  0.26229640962E+03  0.27281080793E+03  0.00000000000E+00 0. -1.
         22    1    3    3    0    0 -0.60958442916E+02  0.74858993381E+02  0.13367982735E+04  0.13402796069E+04  0.00000000000E+00 0. -1.
</event>
<event>
 7    1  0.6058736E-006  0.8785158E+02  0.7818608E-02  0.1368349E+00
          2   -1    0    0  502    0  0.00000000000E+00  0.00000000000E+00  0.31290641830E+03  0.31290641830E+03  0.00000000000E+00 0. -1.
          1   -1    0    0  501    0 -0.00000000000E+00 -0.00000000000E+00 -0.34995161115E+03  0.34995161115E+03  0.00000000000E+00 0. -1.
         25    2    1    2    0    0  0.48677196557E+02  0.15713739251E+02  0.93389086159E+02  0.16422537434E+03  0.12502824120E+03 0.  0.
          2    1    1    2  501    0  0.47112118764E+02  0.22152300411E+02 -0.29768830905E+03  0.30220623007E+03  0.00000000000E+00 0. -1.
          1    1    1    2  502    0 -0.95789315321E+02 -0.37866039663E+02  0.16725403004E+03  0.19642642504E+03  0.00000000000E+00 0. -1.
         22    1    3    3    0    0  0.30947685114E+02  0.54589007581E+02  0.10283266628E+03  0.12046690922E+03  0.00000000000E+00 0.  1.
         22    1    3    3    0    0  0.17729511443E+02 -0.38875268329E+02 -0.94435801259E+01  0.43758465116E+02  0.00000000000E+00 0.  1.
</event>
<event>
 7    1  0.6058736E-006  0.6544398E+02  0.7818608E-02  0.1442702E+00
          2   -1    0    0  502    0  0.00000000000E+00  0.00000000000E+00  0.27041271831E+04  0.27041271831E+04  0.00000000000E+00 0. -1.
          1   -1    0    0  501    0 -0.00000000000E+00 -0.00000000000E+00 -0.17518409033E+03  0.17518409033E+03  0.00000000000E+00 0. -1.
         25    2    1    2    0    0  0.20196726593E+02  0.23325088256E+02  0.26008142158E+03  0.29020657755E+03  0.12500217716E+03 0.  0.
          2    1    1    2  501    0 -0.23209366882E+02 -0.62165758096E+02 -0.15308326492E+03  0.16684646292E+03  0.00000000000E+00 0. -1.
          1    1    1    2  502    0  0.30126402896E+01  0.38840669839E+02  0.24219449361E+04  0.24222582330E+04  0.00000000000E+00 0. -1.
         22    1    3    3    0    0  0.24234689458E+02  0.69224198184E+02  0.10257472175E+03  0.12609870471E+03  0.00000000000E+00 0. -1.
         22    1    3    3    0    0 -0.40379628655E+01 -0.45899109928E+02  0.15750669983E+03  0.16410787284E+03  0.00000000000E+00 0. -1.
</event>
<event>
 7    1  0.6058736E-006  0.1210385E+03  0.7818608E-02  0.1290209E+00
          2   -1    0    0  502    0  0.00000000000E+00  0.00000000000E+00  0.49371171936E+04  0.49371171936E+04  0.00000000000E+00 0. -1.
          1   -1    0    0  501    0 -0.00000000000E+00 -0.00000000000E+00 -0.65086984528E+03  0.65086984528E+03  0.00000000000E+00 0. -1.
         25    2    1    2    0    0  0.80764713618E+02  0.13146117406E+02  0.16327156126E+04  0.16395406713E+04  0.12505031690E+03 0.  0.
          2    1    1    2  501    0 -0.10674831024E+03  0.57465743151E+02 -0.64134897140E+03  0.65270668488E+03  0.00000000000E+00 0. -1.
          1    1    1    2  502    0  0.25983596620E+02 -0.70611860558E+02  0.32948807071E+04  0.32957396827E+04  0.00000000000E+00 0. -1.
         22    1    3    3    0    0 -0.29823386521E+02  0.14098495640E+01  0.16986390295E+03  0.17246787407E+03  0.00000000000E+00 0. -1.
         22    1    3    3    0    0  0.11058810014E+03  0.11736267842E+02  0.14628517097E+04  0.14670727972E+04  0.00000000000E+00 0. -1.
</event>
<event>
 7    1  0.6058736E-006  0.3805190E+02  0.7818608E-02  0.1531208E+00
          2   -1    0    0  502    0  0.00000000000E+00  0.00000000000E+00  0.46687068839E+03  0.46687068839E+03  0.00000000000E+00 0. -1.
          1   -1    0    0  501    0 -0.00000000000E+00 -0.00000000000E+00 -0.28502830688E+04  0.28502830688E+04  0.00000000000E+00 0. -1.
         25    2    1    2    0    0 -0.52554856476E+02  0.40243377114E+02 -0.78382842877E+03  0.79648819551E+03  0.12499958996E+03 0.  0.
          2    1    1    2  501    0  0.36613499769E+02 -0.79069505605E+01 -0.20592486043E+04  0.20595892509E+04  0.00000000000E+00 0. -1.
          1    1    1    2  502    0  0.15941356707E+02 -0.32336426553E+02  0.45966465272E+03  0.46107631070E+03  0.00000000000E+00 0. -1.
         22    1    3    3    0    0 -0.24467004691E+02  0.27932858767E+01 -0.21403267621E+02  0.32627237539E+02  0.00000000000E+00 0. -1.
         22    1    3    3    0    0 -0.28087851785E+02  0.37450091237E+02 -0.76242516115E+03  0.76386095797E+03  0.00000000000E+00 0. -1.
</event>
<event>
 7    1  0.6058736E-006  0.9221028E+02  0.7818608E-02  0.1409897E+00
          2   -1    0    0  502    0  0.00000000000E+00  0.00000000000E+00  0.53858802819E+03  0.53858802819E+03  0.00000000000E+00 0. -1.
          1   -1    0    0  501    0 -0.00000000000E+00 -0.00000000000E+00 -0.51405918070E+03  0.51405918070E+03  0.00000000000E+00 0. -1.
         25    2    1    2    0    0  0.65349974541E+02  0.22726481511E+02 -0.44969008574E+03  0.47183937168E+03  0.12499642926E+03 0.  0.
          2    1    1    2  501    0  0.70195158164E+01  0.34802430758E+02 -0.42788429583E+02  0.55599752654E+02  0.00000000000E+00 0. -1.
          1    1    1    2  502    0 -0.72369490357E+02 -0.57528912270E+02  0.51700736280E+03  0.52520808455E+03  0.00000000000E+00 0. -1.
         22    1    3    3    0    0  0.61997506911E+02 -0.19746374704E+02 -0.98347660051E+02  0.11792316318E+03  0.00000000000E+00 0.  1.
         22    1    3    3    0    0  0.33524676298E+01  0.42472856216E+02 -0.35134242568E+03  0.35391620850E+03  0.00000000000E+00 0.  1.
</event>
<event>
 7    1  0.6058736E-006  0.8808188E+02  0.7818608E-02  0.1454036E+00
          2   -1    0    0  502    0  0.00000000000E+00  0.00000000000E+00  0.73504593144E+02  0.73504593144E+02  0.00000000000E+00 0. -1.
          1   -1    0    0  501    0 -0.00000000000E+00 -0.00000000000E+00 -0.96766282725E+03  0.96766282725E+03  0.00000000000E+00 0. -1.
         25    2    1    2    0    0 -0.63525833859E+02 -0.16376719379E+02 -0.33214017800E+03  0.36089556066E+03  0.12499911744E+03 0.  0.
          2    1    1    2  501    0 -0.26141817159E+02  0.50279991370E+01 -0.58612498927E+03  0.58672922070E+03  0.00000000000E+00 0. -1.
          1    1    1    2  502    0  0.89667651018E+02  0.11348720242E+02  0.24106933159E+02  0.93542639029E+02  0.00000000000E+00 0. -1.
         22    1    3    3    0    0  0.30012978153E+02  0.22478827103E+02 -0.12174443881E+03  0.12738832327E+03  0.00000000000E+00 0.  1.
         22    1    3    3    0    0 -0.93538812011E+02 -0.38855546482E+02 -0.21039573919E+03  0.23350723739E+03  0.00000000000E+00 0.  1.
</event>
<event>
 7    1  0.6058736E-006  0.8937806E+02  0.7818608E-02  0.1414287E+00
          2   -1    0    0  502    0  0.00000000000E+00  0.00000000000E+00  0.51585459627E+03  0.51585459627E+03  0.00000000000E+00 0. -1.
          1   -1    0    0  501    0 -0.00000000000E+00 -0.00000000000E+00 -0.64902009406E+03  0.64902009406E+03  0.00000000000E+00 0. -1.
         25    2    1    2    0    0 -0.23501307811E+01  0.11848077190E+03 -0.92854306164E+01  0.17249643280E+03  0.12500233471E+03 0.  0.
          2    1    1    2  501    0 -0.14010052382E+02 -0.87089699464E+02 -0.55391212059E+03  0.56089173167E+03  0.00000000000E+00 0. -1.
          1    1    1    2  502    0  0.16360183163E+02 -0.31391072438E+02  0.43003205342E+03  0.43148652585E+03  0.00000000000E+00 0. -1.
         22    1    3    3    0    0  0.19844928968E+02  0.55957469416E+02 -0.63414865208E+02  0.86870620572E+02  0.00000000000E+00 0.  1.
         22    1    3    3    0    0 -0.22195059749E+02  0.62523302486E+02  0.54129434591E+02  0.85625812231E+02  0.00000000000E+00 0.  1.
</event>
<event>
 7    1  0.6058736E-006  0.9581470E+02  0.7818608E-02  0.1457555E+00
          2   -1    0    0  502    0  0.00000000000E+00  0.00000000000E+00  0.53412706408E+03  0.53412706408E+03  0.00000000000E+00 0. -1.
          1   -1    0    0  501    0 -0.00000000000E+00 -0.00000000000E+00 -0.69592694924E+03  0.69592694924E+03  0.00000000000E+00 0. -1.
         25    2    1    2    0    0  0.45579449568E+01  0.74848265742E+02 -0.25027905767E+03  0.28963409155E+03  0.12500105012E+03 0.  0.
          2    1    1    2  501    0 -0.11121796772E+02  0.21099447728E+02 -0.42113535508E+03  0.42181022789E+03  0.00000000000E+00 0. -1.
          1    1    1    2  502    0  0.65638518155E+01 -0.95947713470E+02  0.50961452758E+03  0.51860969389E+03  0.00000000000E+00 0. -1.
         22    1    3    3    0    0  0.22910147187E+00  0.82301086744E+02 -0.66925314680E+02  0.10607789172E+03  0.00000000000E+00 0. -1.
         22    1    3    3    0    0  0.43288434849E+01 -0.74528210027E+01 -0.18335374299E+03  0.18355619983E+03  0.00000000000E+00 0. -1.
</event>
<event>
 7    1  0.6058736E-006  0.3544024E+02  0.7818608E-02  0.1594396E+00
          2   -1    0    0  502    0  0.00000000000E+00  0.00000000000E+00  0.46691544082E+03  0.46691544082E+03  0.00000000000E+00 0. -1.
          1   -1    0    0  501    0 -0.00000000000E+00 -0.00000000000E+00 -0.23633979450E+03  0.23633979450E+03  0.00000000000E+00 0. -1.
         25    2    1    2    0    0 -0.38386103768E+02 -0.40541472846E+02 -0.47283904769E+02  0.14483700147E+03  0.12499954145E+03 0.  0.
          2    1    1    2  501    0  0.24708690570E+02  0.79890111971E+01 -0.13832354837E+03  0.14074000044E+03  0.00000000000E+00 0. -1.
          1    1    1    2  502    0  0.13677413198E+02  0.32552461649E+02  0.41618309946E+03  0.41767823341E+03  0.00000000000E+00 0. -1.
         22    1    3    3    0    0 -0.42370498061E+01  0.14623726823E+02 -0.73352651713E+02  0.74916069642E+02  0.00000000000E+00 0.  1.
         22    1    3    3    0    0 -0.34149053962E+02 -0.55165199669E+02  0.26068746944E+02  0.69920931832E+02  0.00000000000E+00 0.  1.
</event>
<event>
 7    1  0.6058736E-006  0.7809526E+02  0.7818608E-02  0.1353652E+00
          2   -1    0    0  502    0  0.00000000000E+00  0.00000000000E+00  0.13728639971E+04  0.13728639971E+04  0.00000000000E+00 0. -1.
          1   -1    0    0  501    0 -0.00000000000E+00 -0.00000000000E+00 -0.95021735871E+02  0.95021735871E+02  0.00000000000E+00 0. -1.
         25    2    1    2    0    0 -0.76953527147E+01 -0.13944079595E+02  0.30689841008E+03  0.33176104517E+03  0.12500040468E+03 0.  0.
          2    1    1    2  501    0  0.34315475731E+02  0.74611331488E+02 -0.60846796451E+02  0.10220927208E+03  0.00000000000E+00 0. -1.
          1    1    1    2  502    0 -0.26620123017E+02 -0.60667251893E+02  0.10317906476E+04  0.10339154157E+04  0.00000000000E+00 0. -1.
         22    1    3    3    0    0  0.13999493976E+02  0.21013256827E+02  0.28311584303E+03  0.28423955278E+03  0.00000000000E+00 0.  1.
         22    1    3    3    0    0 -0.21694846690E+02 -0.34957336422E+02  0.23782567057E+02  0.47521492385E+02  0.00000000000E+00 0.  1.
</event>
<event>
 7    1  0.6058736E-006  0.8249204E+02  0.7818608E-02  0.1362799E+00
          2   -1    0    0  502    0  0.00000000000E+00  0.00000000000E+00  0.43892475455E+03  0.43892475455E+03  0.00000000000E+00 0. -1.
          1   -1    0    0  501    0 -0.00000000000E+00 -0.00000000000E+00 -0.72496305394E+03  0.72496305394E+03  0.00000000000E+00 0. -1.
         25    2    1    2    0    0  0.12552992722E+03 -0.48659793948E+02  0.20366073945E+01  0.18372832116E+03  0.12500564008E+03 0.  0.
          2    1    1    2  501    0 -0.57723043661E+02  0.63130547433E+01 -0.62814291674E+03  0.63082115396E+03  0.00000000000E+00 0. -1.
          1    1    1    2  502    0 -0.67806883558E+02  0.42346739205E+02  0.34006800995E+03  0.34933833338E+03  0.00000000000E+00 0. -1.
         22    1    3    3    0    0  0.54657599933E+02  0.37800794015E+02 -0.20778210133E+02  0.69628207466E+02  0.00000000000E+00 0.  1.
         22    1    3    3    0    0  0.70872327286E+02 -0.86460587963E+02  0.22814817528E+02  0.11410011369E+03  0.00000000000E+00 0.  1.
</event>
<event>
 7    1  0.6058736E-006  0.6192985E+02  0.7818608E-02  0.1529918E+00
          2   -1    0    0  502    0  0.00000000000E+00  0.00000000000E+00  0.14514029190E+04  0.14514029190E+04  0.00000000000E+00 0. -1.
          1   -1    0    0  501    0 -0.00000000000E+00 -0.00000000000E+00 -0.68419808522E+03  0.68419808522E+03  0.00000000000E+00 0. -1.
         25    2    1    2    0    0  0.83032224266E+02 -0.10484914024E+02  0.10303946032E+02  0.15078216223E+03  0.12499922181E+03 0.  0.
          2    1    1    2  501    0 -0.22331205367E+02 -0.66128185085E+00 -0.61306079552E+03  0.61346773267E+03  0.00000000000E+00 0. -1.
          1    1    1    2  502    0 -0.60701018899E+02  0.11146195875E+02  0.13699616833E+04  0.13713511093E+04  0.00000000000E+00 0. -1.
         22    1    3    3    0    0  0.18853513373E+01 -0.36883985805E+02 -0.37781157558E+02  0.52833690245E+02  0.00000000000E+00 0.  1.
         22    1    3    3    0    0  0.81146872929E+02  0.26399071781E+02  0.48085103589E+02  0.97948471985E+02  0.00000000000E+00 0.  1.
</event>
<event>
 7    1  0.6058736E-006  0.6249564E+02  0.7818608E-02  0.1433699E+00
          2   -1    0    0  502    0  0.00000000000E+00  0.00000000000E+00  0.89797918150E+03  0.89797918150E+03  0.00000000000E+00 0. -1.
          1   -1    0    0  501    0 -0.00000000000E+00 -0.00000000000E+00 -0.43301052305E+03  0.43301052305E+03  0.00000000000E+00 0. -1.
         25    2    1    2    0    0 -0.94146712980E+02 -0.36644257220E+02  0.14957515651E+03  0.21955280891E+03  0.12499721318E+03 0.  0.
          2    1    1    2  501    0  0.50509855763E+02  0.36006574242E+02 -0.39493115698E+03  0.39977285760E+03  0.00000000000E+00 0. -1.
          1    1    1    2  502    0  0.43636857216E+02  0.63768297768E+00  0.71032465893E+03  0.71166403804E+03  0.00000000000E+00 0. -1.
         22    1    3    3    0    0 -0.45530709274E+02 -0.79039041365E+02  0.60040285455E+02  0.10920188379E+03  0.00000000000E+00 0. -1.
         22    1    3    3    0    0 -0.48616003706E+02  0.42394784145E+02  0.89534871054E+02  0.11035092511E+03  0.00000000000E+00 0. -1.
</event>
<event>
 7    1  0.6058736E-006  0.4981798E+02  0.7818608E-02  0.1534922E+00
          2   -1    0    0  502    0  0.00000000000E+00  0.00000000000E+00  0.14722320974E+04  0.14722320974E+04  0.00000000000E+00 0. -1.
          1   -1    0    0  501    0 -0.00000000000E+00 -0.00000000000E+00 -0.51338874868E+03  0.51338874868E+03  0.00000000000E+00 0. -1.
         25    2    1    2    0    0 -0.67910402352E+02 -0.18505123961E+02  0.43567643529E+01  0.14352246867E+03  0.12500182102E+03 0.  0.
          2    1    1    2  501    0  0.49475456845E+02 -0.10485259970E+01 -0.44229674709E+03  0.44505655003E+03  0.00000000000E+00 0. -1.
          1    1    1    2  502    0  0.18434945507E+02  0.19553649958E+02  0.13967833314E+04  0.13970418274E+04  0.00000000000E+00 0. -1.
         22    1    3    3    0    0 -0.24424071978E+02  0.24921323567E+02 -0.50339549772E+02  0.61250942291E+02  0.00000000000E+00 0. -1.
         22    1    3    3    0    0 -0.43486330374E+02 -0.43426447527E+02  0.54696314125E+02  0.82271526381E+02  0.00000000000E+00 0. -1.
</event>
<event>
 7    1  0.6058736E-006  0.7574547E+02  0.7818608E-02  0.1396567E+00
          2   -1    0    0  502    0  0.00000000000E+00  0.00000000000E+00  0.27774411544E+04  0.27774411544E+04  0.00000000000E+00 0. -1.
          1   -1    0    0  501    0 -0.00000000000E+00 -0.00000000000E+00 -0.39346253403E+03  0.39346253403E+03  0.00000000000E+00 0. -1.
         25    2    1    2    0    0  0.55261214095E+02 -0.96397259000E+02  0.11086017371E+03  0.20065058714E+03  0.12499778669E+03 0.  0.
          2    1    1    2  501    0  0.25071181647E+01  0.47942562429E+02 -0.34636925731E+03  0.34968047892E+03  0.00000000000E+00 0. -1.
          1    1    1    2  502    0 -0.57768332260E+02  0.48454696572E+02  0.26194877040E+04  0.26205726224E+04  0.00000000000E+00 0. -1.
         22    1    3    3    0    0  0.58639207415E+02 -0.92525142782E+02  0.13620552258E+03  0.17478959658E+03  0.00000000000E+00 0.  1.
         22    1    3    3    0    0 -0.33779933202E+01 -0.38721162190E+01 -0.25345348873E+02  0.25860990553E+02  0.00000000000E+00 0.  1.
</event>
<event>
 7    1  0.6058736E-006  0.1003408E+03  0.7818608E-02  0.1336042E+00
          2   -1    0    0  502    0  0.00000000000E+00  0.00000000000E+00  0.26655993118E+03  0.26655993118E+03  0.00000000000E+00 0. -1.
          1   -1    0    0  501    0 -0.00000000000E+00 -0.00000000000E+00 -0.12287746218E+04  0.12287746218E+04  0.00000000000E+00 0. -1.
         25    2    1    2    0    0  0.13494765473E+03 -0.62202898448E+02  0.75892202043E+02  0.20848055094E+03  0.12499777476E+03 0.  0.
          2    1    1    2  501    0 -0.55810472126E+02  0.22008431608E+02 -0.11457591597E+04  0.11473287375E+04  0.00000000000E+00 0. -1.
          1    1    1    2  502    0 -0.79137182604E+02  0.40194466840E+02  0.10765226706E+03  0.13952526452E+03  0.00000000000E+00 0. -1.
         22    1    3    3    0    0  0.12934599674E+03 -0.89189819063E+00  0.33142553664E+02  0.13352756726E+03  0.00000000000E+00 0.  1.
         22    1    3    3    0    0  0.56016579864E+01 -0.61311000257E+02  0.42749648379E+02  0.74952983672E+02  0.00000000000E+00 0.  1.
</event>
<event>
 7    1  0.6058736E-006  0.6404976E+02  0.7818608E-02  0.1465814E+00
          2   -1    0    0  502    0  0.00000000000E+00  0.00000000000E+00  0.65363276764E+03  0.65363276764E+03  0.00000000000E+00 0. -1.
          1   -1    0    0  501    0 -0.00000000000E+00 -0.00000000000E+00 -0.16765289470E+03  0.16765289470E+03  0.00000000000E+00 0. -1.
         25    2    1    2    0    0 -0.37264273095E+02 -0.12871068462E+02  0.14905516955E+03  0.19848656511E+03  0.12500073003E+03 0.  0.
          2    1    1    2  501    0  0.47319929600E+02  0.44938676617E+02 -0.13485969555E+03  0.14981921731E+03  0.00000000000E+00 0. -1.
          1    1    1    2  502    0 -0.10055656505E+02 -0.32067608155E+02  0.47178439893E+03  0.47297987991E+03  0.00000000000E+00 0. -1.
         22    1    3    3    0    0 -0.47934197293E+02 -0.61551045439E+02  0.68802586151E+02  0.10401929785E+03  0.00000000000E+00 0. -1.
         22    1    3    3    0    0  0.10669924197E+02  0.48679976977E+02  0.80252583401E+02  0.94467267259E+02  0.00000000000E+00 0. -1.
</event>
<event>
 7    1  0.6058736E-006  0.6643865E+02  0.7818608E-02  0.1466913E+00
          2   -1    0    0  502    0  0.00000000000E+00  0.00000000000E+00  0.95715252188E+02  0.95715252188E+02  0.00000000000E+00 0. -1.
          1   -1    0    0  501    0 -0.00000000000E+00 -0.00000000000E+00 -0.10352924303E+04  0.10352924303E+04  0.00000000000E+00 0. -1.
         25    2    1    2    0    0  0.36728476693E+02 -0.23444078040E+02 -0.65217782341E+03  0.66547671971E+03  0.12499898131E+03 0.  0.
          2    1    1    2  501    0  0.29399169274E+02  0.12996034019E+02 -0.36307335247E+03  0.36449343935E+03  0.00000000000E+00 0. -1.
          1    1    1    2  502    0 -0.66127645967E+02  0.10448044020E+02  0.75673997820E+02  0.10103752338E+03  0.00000000000E+00 0. -1.
         22    1    3    3    0    0  0.36226427582E+02 -0.24079945635E+02 -0.64494979267E+02  0.77793317115E+02  0.00000000000E+00 0.  1.
         22    1    3    3    0    0  0.50204911097E+00  0.63586759513E+00 -0.58768284415E+03  0.58768340259E+03  0.00000000000E+00 0.  1.
</event>
<event>
 7    1  0.6058736E-006  0.4863244E+02  0.7818608E-02  0.1564067E+00
          2   -1    0    0  502    0  0.00000000000E+00  0.00000000000E+00  0.25255098610E+04  0.25255098610E+04  0.00000000000E+00 0. -1.
          1   -1    0    0  501    0 -0.00000000000E+00 -0.00000000000E+00 -0.12671108111E+03  0.12671108111E+03  0.00000000000E+00 0. -1.
         25    2    1    2    0    0 -0.54774787105E+02 -0.26016474485E+02  0.22214191422E+04  0.22257593544E+04  0.12499825688E+03 0.  0.
          2    1    1    2  501    0  0.48442961280E+02  0.40863365263E+01 -0.11934162294E+03  0.12886365511E+03  0.00000000000E+00 0. -1.
          1    1    1    2  502    0  0.63318258251E+01  0.21930137959E+02  0.29672126069E+03  0.29759793264E+03  0.00000000000E+00 0. -1.
         22    1    3    3    0    0  0.36641161488E+02 -0.15074946131E+02  0.10416189898E+04  0.10423722697E+04  0.00000000000E+00 0. -1.
         22    1    3    3    0    0 -0.91415948593E+02 -0.10941528354E+02  0.11798001524E+04  0.11833870847E+04  0.00000000000E+00 0. -1.
</event>
<event>
 7    1  0.6058736E-006  0.4939541E+02  0.7818608E-02  0.1527199E+00
          2   -1    0    0  502    0  0.00000000000E+00  0.00000000000E+00  0.40085225994E+03  0.40085225994E+03  0.00000000000E+00 0. -1.
          1   -1    0    0  501    0 -0.00000000000E+00 -0.00000000000E+00 -0.16655857547E+04  0.16655857547E+04  0.00000000000E+00 0. -1.
         25    2    1    2    0    0  0.30336595010E+02  0.19715297229E+02 -0.25029624549E+03  0.28210194782E+03  0.12499718602E+03 0.  0.
          2    1    1    2  501    0 -0.11526048152E+02  0.26085061021E+02 -0.13976484999E+04  0.13979394156E+04  0.00000000000E+00 0. -1.
          1    1    1    2  502    0 -0.18810546858E+02 -0.45800358250E+02  0.38321125065E+03  0.38639665127E+03  0.00000000000E+00 0. -1.
         22    1    3    3    0    0 -0.21978961064E+02 -0.45599273865E+01 -0.21128440344E+03  0.21247344964E+03  0.00000000000E+00 0.  1.
         22    1    3    3    0    0  0.52315556074E+02  0.24275224616E+02 -0.39011842052E+02  0.69628498172E+02  0.00000000000E+00 0.  1.
</event>
<event>
 7    1  0.6058736E-006  0.1196405E+03  0.7818608E-02  0.1379110E+00
          2   -1    0    0  502    0  0.00000000000E+00  0.00000000000E+00  0.71077465349E+03  0.71077465349E+03  0.00000000000E+00 0. -1.
          1   -1    0    0  501    0 -0.00000000000E+00 -0.00000000000E+00 -0.30949625042E+03  0.30949625042E+03  0.00000000000E+00 0. -1.
         25    2    1    2    0    0 -0.73378253960E+01  0.95092435711E+02  0.23668761813E+03  0.28415246968E+03  0.12500072976E+03 0.  0.
          2    1    1    2  501    0 -0.12791307434E+02  0.32565003745E+02 -0.27536271808E+03  0.27757651832E+03  0.00000000000E+00 0. -1.
          1    1    1    2  502    0  0.20129132830E+02 -0.12765743946E+03  0.43995350302E+03  0.45854191592E+03  0.00000000000E+00 0. -1.
         22    1    3    3    0    0 -0.46909336078E+01  0.10735971417E+03  0.24605125553E+03  0.26849456873E+03  0.00000000000E+00 0. -1.
         22    1    3    3    0    0 -0.26468917882E+01 -0.12267278461E+02 -0.93636374047E+01  0.15657900958E+02  0.00000000000E+00 0. -1.
</event>
<event>
 7    1  0.6058736E-006  0.1342221E+03  0.7818608E-02  0.1296937E+00
          2   -1    0    0  502    0  0.00000000000E+00  0.00000000000E+00  0.32482766048E+04  0.32482766048E+04  0.00000000000E+00 0. -1.
          1   -1    0    0  501    0 -0.00000000000E+00 -0.00000000000E+00 -0.36166005485E+03  0.36166005485E+03  0.00000000000E+00 0. -1.
         25    2    1    2    0    0 -0.60612878991E+02  0.18165829208E+03  0.26114317873E+02  0.23017523775E+03  0.12500010519E+03 0.  0.
          2    1    1    2  501    0 -0.18149021853E+01 -0.63704325384E+02 -0.25426820555E+03  0.26213327774E+03  0.00000000000E+00 0. -1.
          1    1    1    2  502    0  0.62427781176E+02 -0.11795396670E+03  0.31147704377E+04  0.31176281442E+04  0.00000000000E+00 0. -1.
         22    1    3    3    0    0 -0.94901141952E+02  0.10495843117E+03  0.34785165227E+02  0.14571378362E+03  0.00000000000E+00 0.  1.
         22    1    3    3    0    0  0.34288262961E+02  0.76699860911E+02 -0.86708473539E+01  0.84461454134E+02  0.00000000000E+00 0.  1.
</event>
<event>
 7    1  0.6058736E-006  0.9788341E+02  0.7818608E-02  0.1335713E+00
          2   -1    0    0  502    0  0.00000000000E+00  0.00000000000E+00  0.29701162849E+04  0.29701162849E+04  0.00000000000E+00 0. -1.
          1   -1    0    0  501    0 -0.00000000000E+00 -0.00000000000E+00 -0.87336045062E+02  0.87336045062E+02  0.00000000000E+00 0. -1.
         25    2    1    2    0    0  0.38198374296E+02  0.31742293563E+02  0.16442129396E+04  0.16497053274E+04  0.12499915003E+03 0.  0.
          2    1    1    2  501    0 -0.97658587135E+02 -0.15360795736E+02 -0.54717879222E+02  0.11299203509E+03  0.00000000000E+00 0. -1.
          1    1    1    2  502    0  0.59460212839E+02 -0.16381497827E+02  0.12932851795E+04  0.12947549675E+04  0.00000000000E+00 0. -1.
         22    1    3    3    0    0 -0.26725711304E+02 -0.20174104243E+00  0.11413932716E+04  0.11417061377E+04  0.00000000000E+00 0.  1.
         22    1    3    3    0    0  0.64924085600E+02  0.31944034605E+02  0.50281966797E+03  0.50799918970E+03  0.00000000000E+00 0.  1.
</event>
<event>
 7    1  0.6058736E-006  0.5564121E+02  0.7818608E-02  0.1469385E+00
          2   -1    0    0  502    0  0.00000000000E+00  0.00000000000E+00  0.11119243701E+04  0.11119243701E+04  0.00000000000E+00 0. -1.
          1   -1    0    0  501    0 -0.00000000000E+00 -0.00000000000E+00 -0.36789981676E+03  0.36789981676E+03  0.00000000000E+00 0. -1.
         25    2    1    2    0    0  0.35295534288E+02  0.78536747219E+02  0.24592304627E+03  0.28899203930E+03  0.12499783474E+03 0.  0.
          2    1    1    2  501    0 -0.57378035276E+01 -0.55126099561E+02 -0.34372343974E+03  0.34816319776E+03  0.00000000000E+00 0. -1.
          1    1    1    2  502    0 -0.29557730761E+02 -0.23410647658E+02  0.84182494685E+03  0.84266894983E+03  0.00000000000E+00 0. -1.
         22    1    3    3    0    0  0.25309511762E+02 -0.43383616460E+01  0.18213246199E+03  0.18393375568E+03  0.00000000000E+00 0. -1.
         22    1    3    3    0    0  0.99860225268E+01  0.82875108865E+02  0.63790584276E+02  0.10505828362E+03  0.00000000000E+00 0. -1.
</event>
<event>
 7    1  0.6058736E-006  0.3474719E+02  0.7818608E-02  0.1564157E+00
          2   -1    0    0  502    0  0.00000000000E+00  0.00000000000E+00  0.28376053308E+02  0.28376053308E+02  0.00000000000E+00 0. -1.
          1   -1    0    0  501    0 -0.00000000000E+00 -0.00000000000E+00 -0.18561936823E+04  0.18561936823E+04  0.00000000000E+00 0. -1.
         25    2    1    2    0    0 -0.58992123610E+01 -0.84951996584E+01 -0.32870583630E+03  0.35182628304E+03  0.12500894965E+03 0.  0.
          2    1    1    2  501    0 -0.16628446526E+02  0.31121976176E+02 -0.15003745414E+04  0.15007894080E+04  0.00000000000E+00 0. -1.
          1    1    1    2  502    0  0.22527658887E+02 -0.22626776518E+02  0.12627487188E+01  0.31954044577E+02  0.00000000000E+00 0. -1.
         22    1    3    3    0    0 -0.31189621407E+02 -0.43391534927E+02 -0.28672401943E+03  0.29166124375E+03  0.00000000000E+00 0. -1.
         22    1    3    3    0    0  0.25290409046E+02  0.34896335269E+02 -0.41981816874E+02  0.60165039292E+02  0.00000000000E+00 0. -1.
</event>
<event>
 7    1  0.6058736E-006  0.7056998E+02  0.7818608E-02  0.1445819E+00
          2   -1    0    0  502    0  0.00000000000E+00  0.00000000000E+00  0.19779456966E+04  0.19779456966E+04  0.00000000000E+00 0. -1.
          1   -1    0    0  501    0 -0.00000000000E+00 -0.00000000000E+00 -0.13884064654E+03  0.13884064654E+03  0.00000000000E+00 0. -1.
         25    2    1    2    0    0  0.17203432316E+02  0.94537547257E+02  0.13790995734E+04  0.13880820854E+04  0.12499174604E+03 0.  0.
          2    1    1    2  501    0 -0.12053589051E+02 -0.33178933470E+02 -0.13040152241E+03  0.13509510606E+03  0.00000000000E+00 0. -1.
          1    1    1    2  502    0 -0.51498432648E+01 -0.61358613788E+02  0.59040699907E+03  0.59360915165E+03  0.00000000000E+00 0. -1.
         22    1    3    3    0    0 -0.35292078884E+02 -0.42554760058E+01  0.59265609137E+03  0.59372121619E+03  0.00000000000E+00 0.  1.
         22    1    3    3    0    0  0.52495511200E+02  0.98793023263E+02  0.78644348203E+03  0.79436086923E+03  0.00000000000E+00 0.  1.
</event>
<event>
 7    1  0.6058736E-006  0.4141328E+02  0.7818608E-02  0.1581823E+00
          2   -1    0    0  502    0  0.00000000000E+00  0.00000000000E+00  0.90698761813E+03  0.90698761813E+03  0.00000000000E+00 0. -1.
          1   -1    0    0  501    0 -0.00000000000E+00 -0.00000000000E+00 -0.36969246547E+03  0.36969246547E+03  0.00000000000E+00 0. -1.
         25    2    1    2    0    0 -0.15796752123E+02  0.84645143513E+01  0.63999516384E+02  0.14156723126E+03  0.12499662990E+03 0.  0.
          2    1    1    2  501    0 -0.18703618286E+02  0.15034394194E+02 -0.32993086566E+03  0.33080241000E+03  0.00000000000E+00 0. -1.
          1    1    1    2  502    0  0.34500370409E+02 -0.23498908545E+02  0.80322650193E+03  0.80431044234E+03  0.00000000000E+00 0. -1.
         22    1    3    3    0    0  0.34415210501E+02  0.41001838730E+02 -0.57549356889E+00  0.53533995609E+02  0.00000000000E+00 0.  1.
         22    1    3    3    0    0 -0.50211962624E+02 -0.32537324378E+02  0.64575009953E+02  0.88033235648E+02  0.00000000000E+00 0.  1.
</event>
<event>
 7    1  0.6058736E-006  0.1144611E+03  0.7818608E-02  0.1267665E+00
          2   -1    0    0  502    0  0.00000000000E+00  0.00000000000E+00  0.81196291504E+03  0.81196291504E+03  0.00000000000E+00 0. -1.
          1   -1    0    0  501    0 -0.00000000000E+00 -0.00000000000E+00 -0.26756574644E+03  0.26756574644E+03  0.00000000000E+00 0. -1.
         25    2    1    2    0    0  0.57884511476E+02 -0.47187122005E+02  0.60648315910E+02  0.15774028270E+03  0.12500614949E+03 0.  0.
          2    1    1    2  501    0  0.20778219737E+01  0.12550730199E+03 -0.19718442103E+03  0.23374793281E+03  0.00000000000E+00 0. -1.
          1    1    1    2  502    0 -0.59962333450E+02 -0.78320179982E+02  0.68093327372E+03  0.68804044597E+03  0.00000000000E+00 0. -1.
         22    1    3    3    0    0 -0.62384437038E+01  0.36780845851E+02  0.29593856330E+02  0.47618747714E+02  0.00000000000E+00 0.  1.
         22    1    3    3    0    0  0.64122955180E+02 -0.83967967857E+02  0.31054459580E+02  0.11012153498E+03  0.00000000000E+00 0.  1.
</event>
<event>
 7    1  0.6058736E-006  0.2380745E+03  0.7818608E-02  0.1239803E+00
          2   -1    0    0  502    0  0.00000000000E+00  0.00000000000E+00  0.47758328265E+03  0.47758328265E+03  0.00000000000E+00 0. -1.
          1   -1    0    0  501    0 -0.00000000000E+00 -0.00000000000E+00 -0.74294062317E+03  0.74294062317E+03  0.00000000000E+00 0. -1.
         25    2    1    2    0    0 -0.62485447343E+02 -0.19048678926E+03 -0.32853935074E+03  0.40466310297E+03  0.12499789562E+03 0.  0.
          2    1    1    2  501    0  0.37419449965E+02 -0.50107211944E+02 -0.33998748051E+03  0.34569124205E+03  0.00000000000E+00 0. -1.
          1    1    1    2  502    0  0.25065997378E+02  0.24059400121E+03  0.40316949073E+03  0.47016956080E+03  0.00000000000E+00 0. -1.
         22    1    3    3    0    0 -0.81890119524E+02 -0.19748614679E+03 -0.31201205520E+03  0.37823047530E+03  0.00000000000E+00 0.  1.
         22    1    3    3    0    0  0.19404672181E+02  0.69993575255E+01 -0.16527295536E+02  0.26432627678E+02  0.00000000000E+00 0.  1.
</event>
<event>
 7    1  0.6058736E-006  0.1573457E+03  0.7818608E-02  0.1326007E+00
          2   -1    0    0  502    0  0.00000000000E+00  0.00000000000E+00  0.16682698820E+04  0.16682698820E+04  0.00000000000E+00 0. -1.
          1   -1    0    0  501    0 -0.00000000000E+00 -0.00000000000E+00 -0.76186829868E+03  0.76186829868E+03  0.00000000000E+00 0. -1.
         25    2    1    2    0    0  0.12324365774E+03 -0.10782635089E+02 -0.29087543978E+03  0.33990860109E+03  0.12499628489E+03 0.  0.
          2    1    1    2  501    0  0.29195235469E+02 -0.29890680707E+02 -0.44170225151E+03  0.44367408483E+03  0.00000000000E+00 0. -1.
          1    1    1    2  502    0 -0.15243889321E+03  0.40673315796E+02  0.16389792746E+04  0.16465554948E+04  0.00000000000E+00 0. -1.
         22    1    3    3    0    0  0.10713716709E+03  0.32725991554E+02 -0.26280147907E+03  0.28568160686E+03  0.00000000000E+00 0. -1.
         22    1    3    3    0    0  0.16106490648E+02 -0.43508626642E+02 -0.28073960705E+02  0.54226994227E+02  0.00000000000E+00 0. -1.
</event>
<event>
 7    1  0.6058736E-006  0.2933342E+02  0.7818608E-02  0.1610180E+00
          2   -1    0    0  502    0  0.00000000000E+00  0.00000000000E+00  0.12575957261E+04  0.12575957261E+04  0.00000000000E+00 0. -1.
          1   -1    0    0  501    0 -0.00000000000E+00 -0.00000000000E+00 -0.11229775867E+04  0.11229775867E+04  0.00000000000E+00 0. -1.
         25    2    1    2    0    0 -0.15808264389E+02  0.17389956993E+02  0.11796855539E+04  0.11865219171E+04  0.12499576774E+03 0.  0.
          2    1    1    2  501    0  0.14404171392E+02  0.25553262605E+02 -0.11131544771E+04  0.11135409015E+04  0.00000000000E+00 0. -1.
          1    1    1    2  502    0  0.14040929970E+01 -0.42943219598E+02  0.68087062597E+02  0.80510494221E+02  0.00000000000E+00 0. -1.
         22    1    3    3    0    0  0.14784348496E+02  0.19926106132E+02  0.44725671539E+02  0.51146968245E+02  0.00000000000E+00 0. -1.
         22    1    3    3    0    0 -0.30592612885E+02 -0.25361491390E+01  0.11349598823E+04  0.11353749489E+04  0.00000000000E+00 0. -1.
</event>
<event>
 7    1  0.6058736E-006  0.2889646E+03  0.7818608E-02  0.1257103E+00
          2   -1    0    0  502    0  0.00000000000E+00  0.00000000000E+00  0.19311085236E+04  0.19311085236E+04  0.00000000000E+00 0. -1.
          1   -1    0    0  501    0 -0.00000000000E+00 -0.00000000000E+00 -0.24435102528E+03  0.24435102528E+03  0.00000000000E+00 0. -1.
         25    2    1    2    0    0 -0.20494402262E+03 -0.20481310061E+03  0.11314078745E+04  0.11745889507E+04  0.12499986441E+03 0.  0.
          2    1    1    2  501    0  0.23273866279E+03  0.17157563047E+03 -0.12795554112E+03  0.31619314134E+03  0.00000000000E+00 0. -1.
          1    1    1    2  502    0 -0.27794640175E+02  0.33237470144E+02  0.68330516491E+03  0.68467745679E+03  0.00000000000E+00 0. -1.
         22    1    3    3    0    0 -0.92288781897E+02 -0.16012946671E+03  0.53593424155E+03  0.56690755564E+03  0.00000000000E+00 0.  1.
         22    1    3    3    0    0 -0.11265524072E+03 -0.44683633901E+02  0.59547363295E+03  0.60768139509E+03  0.00000000000E+00 0.  1.
</event>
<event>
 7    1  0.6058736E-006  0.9469516E+02  0.7818608E-02  0.1351559E+00
          2   -1    0    0  502    0  0.00000000000E+00  0.00000000000E+00  0.23804150833E+02  0.23804150833E+02  0.00000000000E+00 0. -1.
          1   -1    0    0  501    0 -0.00000000000E+00 -0.00000000000E+00 -0.12767742014E+04  0.12767742014E+04  0.00000000000E+00 0. -1.
         25    2    1    2    0    0  0.50028083534E+02 -0.40131556718E+02 -0.45941391905E+03  0.48041582111E+03  0.12499944466E+03 0.  0.
          2    1    1    2  501    0  0.55587381645E+02 -0.18234950778E+01 -0.53309691436E+03  0.53599030050E+03  0.00000000000E+00 0. -1.
          1    1    1    2  502    0 -0.10561546518E+03  0.41955051796E+02 -0.26045921714E+03  0.28417223061E+03  0.00000000000E+00 0. -1.
         22    1    3    3    0    0  0.84474373017E+02 -0.33375338540E+02 -0.40913412237E+03  0.41909493317E+03  0.00000000000E+00 0.  1.
         22    1    3    3    0    0 -0.34446289483E+02 -0.67562181780E+01 -0.50279796680E+02  0.61320887937E+02  0.00000000000E+00 0.  1.
</event>
<event>
 7    1  0.6058736E-006  0.1282510E+03  0.7818608E-02  0.1327933E+00
          2   -1    0    0  502    0  0.00000000000E+00  0.00000000000E+00  0.46894873934E+03  0.46894873934E+03  0.00000000000E+00 0. -1.
          1   -1    0    0  501    0 -0.00000000000E+00 -0.00000000000E+00 -0.25196392157E+04  0.25196392157E+04  0.00000000000E+00 0. -1.
         25    2    1    2    0    0 -0.23811814715E+02  0.83418346896E+02 -0.30688553987E+03  0.34253084773E+03  0.12499209553E+03 0.  0.
          2    1    1    2  501    0  0.12471699971E+02 -0.13252244083E+03 -0.21914978798E+04  0.21955365399E+04  0.00000000000E+00 0. -1.
          1    1    1    2  502    0  0.11340114745E+02  0.49104093930E+02  0.44769294330E+03  0.45052056748E+03  0.00000000000E+00 0. -1.
         22    1    3    3    0    0  0.90326018415E+01 -0.11551917451E+01 -0.20849821842E+03  0.20869697997E+03  0.00000000000E+00 0. -1.
         22    1    3    3    0    0 -0.32844416557E+02  0.84573538641E+02 -0.98387321454E+02  0.13383386776E+03  0.00000000000E+00 0. -1.
</event>
<event>
 7    1  0.1793678E-005  0.5575946E+02  0.7818608E-02  0.1443882E+00
          2   -1    0    0  502    0  0.00000000000E+00  0.00000000000E+00  0.18482930601E+04  0.18482930601E+04  0.00000000000E+00 0. -1.
          1   -1    0    0  501    0 -0.00000000000E+00 -0.00000000000E+00 -0.10762524228E+04  0.10762524228E+04  0.00000000000E+00 0. -1.
         25    2    1    2    0    0 -0.80482684655E+01  0.69586072363E+01 -0.26636024860E+03  0.29442438398E+03  0.12499895603E+03 0.  0.
          2    1    1    2  501    0 -0.28521116542E+02  0.35224875474E+02 -0.79478952247E+03  0.79608079424E+03  0.00000000000E+00 0. -1.
          1    1    1    2  502    0  0.36569385007E+02 -0.42183482710E+02  0.18331904083E+04  0.18340403047E+04  0.00000000000E+00 0. -1.
         22    1    3    3    0    0  0.36608192820E+02 -0.41575230913E+02 -0.15954803834E+03  0.16889119617E+03  0.00000000000E+00 0. -1.
         22    1    3    3    0    0 -0.44656461285E+02  0.48533838149E+02 -0.10681221026E+03  0.12553318780E+03  0.00000000000E+00 0. -1.
</event>
<event>
 7    1  0.6058736E-006  0.6386702E+02  0.7818608E-02  0.1401057E+00
          2   -1    0    0  502    0  0.00000000000E+00  0.00000000000E+00  0.10861838429E+04  0.10861838429E+04  0.00000000000E+00 0. -1.
          1   -1    0    0  501    0 -0.00000000000E+00 -0.00000000000E+00 -0.25641684471E+03  0.25641684471E+03  0.00000000000E+00 0. -1.
         25    2    1    2    0    0 -0.43486367186E+02  0.44363166211E+02  0.10394668418E+03  0.17403712525E+03  0.12499941266E+03 0.  0.
          2    1    1    2  501    0  0.64377699069E+02  0.64549777753E+01 -0.21582611793E+03  0.22531548561E+03  0.00000000000E+00 0. -1.
          1    1    1    2  502    0 -0.20891331883E+02 -0.50818143987E+02  0.94164643198E+03  0.94324807679E+03  0.00000000000E+00 0. -1.
         22    1    3    3    0    0 -0.75108310931E+02  0.23141594753E+02  0.18870483221E+02  0.80826276146E+02  0.00000000000E+00 0. -1.
         22    1    3    3    0    0  0.31621943746E+02  0.21221571458E+02  0.85076200955E+02  0.93210849102E+02  0.00000000000E+00 0. -1.
</event>
<event>
 7    1  0.6058736E-006  0.1904496E+03  0.7818608E-02  0.1294509E+00
          2   -1    0    0  502    0  0.00000000000E+00  0.00000000000E+00  0.35017439994E+03  0.35017439994E+03  0.00000000000E+00 0. -1.
          1   -1    0    0  501    0 -0.00000000000E+00 -0.00000000000E+00 -0.56923985498E+03  0.56923985498E+03  0.00000000000E+00 0. -1.
         25    2    1    2    0    0  0.10462873916E+03  0.10662632917E+03  0.11439477814E+03  0.22589372386E+03  0.12500184832E+03 0.  0.
          2    1    1    2  501    0 -0.14121874940E+03 -0.13440197500E+03 -0.49159916777E+03  0.52884437012E+03  0.00000000000E+00 0. -1.
          1    1    1    2  502    0  0.36590010241E+02  0.27775645830E+02  0.15813893458E+03  0.16467616094E+03  0.00000000000E+00 0. -1.
         22    1    3    3    0    0 -0.11172677740E+02 -0.17388453186E+02  0.29889326926E+02  0.36339494991E+02  0.00000000000E+00 0. -1.
         22    1    3    3    0    0  0.11580141689E+03  0.12401478235E+03  0.84505451214E+02  0.18955422887E+03  0.00000000000E+00 0. -1.
</event>
<event>
 7    1  0.6058736E-006  0.1745659E+03  0.7818608E-02  0.1263520E+00
          2   -1    0    0  502    0  0.00000000000E+00  0.00000000000E+00  0.20469545091E+04  0.20469545091E+04  0.00000000000E+00 0. -1.
          1   -1    0    0  501    0 -0.00000000000E+00 -0.00000000000E+00 -0.69268148195E+03  0.69268148195E+03  0.00000000000E+00 0. -1.
         25    2    1    2    0    0 -0.14670960500E+03 -0.15012803541E+03 -0.58623694844E+00  0.24430988527E+03  0.12499936459E+03 0.  0.
          2    1    1    2  501    0  0.15032097201E+03  0.82884576772E+02 -0.55670859308E+03  0.58257248931E+03  0.00000000000E+00 0. -1.
          1    1    1    2  502    0 -0.36113670049E+01  0.67243458640E+02  0.19115678572E+04  0.19127536165E+04  0.00000000000E+00 0. -1.
         22    1    3    3    0    0 -0.13711577276E+03 -0.63636958363E+02  0.25857852258E+02  0.15335914102E+03  0.00000000000E+00 0. -1.
         22    1    3    3    0    0 -0.95938322425E+01 -0.86491077049E+02 -0.26444089207E+02  0.90950744253E+02  0.00000000000E+00 0. -1.
</event>
<event>
 7    1  0.6058736E-006  0.4602074E+02  0.7818608E-02  0.1512257E+00
          2   -1    0    0  502    0  0.00000000000E+00  0.00000000000E+00  0.44545949164E+03  0.44545949164E+03  0.00000000000E+00 0. -1.
          1   -1    0    0  501    0 -0.00000000000E+00 -0.00000000000E+00 -0.24479814975E+04  0.24479814975E+04  0.00000000000E+00 0. -1.
         25    2    1    2    0    0 -0.23823120549E+02  0.16113823278E+02  0.17516585400E+03  0.21710724986E+03  0.12500114064E+03 0.  0.
          2    1    1    2  501    0  0.12612894949E+02  0.31387422466E+02 -0.24245031797E+04  0.24247391455E+04  0.00000000000E+00 0. -1.
          1    1    1    2  502    0  0.11210225600E+02 -0.47501245744E+02  0.24681531984E+03  0.25159459377E+03  0.00000000000E+00 0. -1.
         22    1    3    3    0    0 -0.38636006711E+02 -0.36152848458E+02  0.14633106091E+03  0.15560382017E+03  0.00000000000E+00 0.  1.
         22    1    3    3    0    0  0.14812886162E+02  0.52266671736E+02  0.28834793093E+02  0.61503429689E+02  0.00000000000E+00 0.  1.
</event>
<event>
 7    1  0.6058736E-006  0.6109243E+02  0.7818608E-02  0.1484044E+00
          2   -1    0    0  502    0  0.00000000000E+00  0.00000000000E+00  0.22812470435E+04  0.22812470435E+04  0.00000000000E+00 0. -1.
          1   -1    0    0  501    0 -0.00000000000E+00 -0.00000000000E+00 -0.36337476908E+03  0.36337476908E+03  0.00000000000E+00 0. -1.
         25    2    1    2    0    0 -0.18320109948E+02 -0.89341786818E+02 -0.26393343224E+03  0.30595423822E+03  0.12501823039E+03 0.  0.
          2    1    1    2  501    0  0.11697634704E+02  0.28652658839E+02 -0.74948945956E+02  0.81087323399E+02  0.00000000000E+00 0. -1.
          1    1    1    2  502    0  0.66224752443E+01  0.60689127979E+02  0.22567546526E+04  0.22575802509E+04  0.00000000000E+00 0. -1.
         22    1    3    3    0    0  0.44299615437E+02 -0.79467756253E+02 -0.16589511767E+03  0.18920562962E+03  0.00000000000E+00 0. -1.
         22    1    3    3    0    0 -0.62619725385E+02 -0.98740305646E+01 -0.98038314566E+02  0.11674860860E+03  0.00000000000E+00 0. -1.
</event>
<event>
 7    1  0.6058736E-006  0.1006942E+03  0.7818608E-02  0.1419767E+00
          2   -1    0    0  502    0  0.00000000000E+00  0.00000000000E+00  0.21434914596E+03  0.21434914596E+03  0.00000000000E+00 0. -1.
          1   -1    0    0  501    0 -0.00000000000E+00 -0.00000000000E+00 -0.72015632845E+03  0.72015632845E+03  0.00000000000E+00 0. -1.
         25    2    1    2    0    0 -0.12205803057E+03 -0.87489304591E+01 -0.28705603678E+03  0.33615859322E+03  0.12500689954E+03 0.  0.
          2    1    1    2  501    0  0.22799768768E+02  0.19679321932E+02 -0.39480102725E+03  0.39594817373E+03  0.00000000000E+00 0. -1.
          1    1    1    2  502    0  0.99258261807E+02 -0.10930391473E+02  0.17604988153E+03  0.20239870746E+03  0.00000000000E+00 0. -1.
         22    1    3    3    0    0  0.12351752265E+02 -0.23430218105E+02 -0.10828173307E+02  0.28614511032E+02  0.00000000000E+00 0. -1.
         22    1    3    3    0    0 -0.13440978284E+03  0.14681287646E+02 -0.27622786347E+03  0.30754408219E+03  0.00000000000E+00 0. -1.
</event>
<event>
 7    1  0.6058736E-006  0.9045023E+02  0.7818608E-02  0.1352570E+00
          2   -1    0    0  502    0  0.00000000000E+00  0.00000000000E+00  0.10011364453E+04  0.10011364453E+04  0.00000000000E+00 0. -1.
          1   -1    0    0  501    0 -0.00000000000E+00 -0.00000000000E+00 -0.93911375431E+02  0.93911375431E+02  0.00000000000E+00 0. -1.
         25    2    1    2    0    0  0.79726312476E+02 -0.12149050738E+02  0.55736420961E+03  0.57687388348E+03  0.12499892380E+03 0.  0.
          2    1    1    2  501    0 -0.62333456261E+02  0.67195506077E+02 -0.56541219618E+02  0.10769217856E+03  0.00000000000E+00 0. -1.
          1    1    1    2  502    0 -0.17392856215E+02 -0.55046455339E+02  0.40640207983E+03  0.41048175865E+03  0.00000000000E+00 0. -1.
         22    1    3    3    0    0 -0.14934269448E+02  0.28865444148E+02  0.53829782198E+02  0.62879978700E+02  0.00000000000E+00 0. -1.
         22    1    3    3    0    0  0.94660581924E+02 -0.41014494886E+02  0.50353442741E+03  0.51399390478E+03  0.00000000000E+00 0. -1.
</event>
<event>
 7    1  0.6058736E-006  0.2152885E+03  0.7818608E-02  0.1153971E+00
          2   -1    0    0  502    0  0.00000000000E+00  0.00000000000E+00  0.19394710551E+04  0.19394710551E+04  0.00000000000E+00 0. -1.
          1   -1    0    0  501    0 -0.00000000000E+00 -0.00000000000E+00 -0.18337731277E+04  0.18337731277E+04  0.00000000000E+00 0. -1.
         25    2    1    2    0    0 -0.73304304519E+02 -0.22674079214E+03 -0.16478376889E+03  0.31554048189E+03  0.12500878905E+03 0.  0.
          2    1    1    2  501    0  0.17329915611E+03  0.34711796491E+02 -0.15823880286E+04  0.15922278038E+04  0.00000000000E+00 0. -1.
          1    1    1    2  502    0 -0.99994851594E+02  0.19202899565E+03  0.18528697249E+04  0.18654758972E+04  0.00000000000E+00 0. -1.
         22    1    3    3    0    0 -0.69754336861E+02 -0.37756258704E+02 -0.38078575524E+02  0.87983978634E+02  0.00000000000E+00 0.  1.
         22    1    3    3    0    0 -0.35499676576E+01 -0.18898453344E+03 -0.12670519337E+03  0.22755650326E+03  0.00000000000E+00 0.  1.
</event>
<event>
 7    1  0.6058736E-006  0.8852048E+02  0.7818608E-02  0.1309975E+00
          2   -1    0    0  502    0  0.00000000000E+00  0.00000000000E+00  0.43082138234E+03  0.43082138234E+03  0.00000000000E+00 0. -1.
          1   -1    0    0  501    0 -0.00000000000E+00 -0.00000000000E+00 -0.69559595719E+02  0.69559595719E+02  0.00000000000E+00 0. -1.
         25    2    1    2    0    0  0.75030106140E+02 -0.22306797545E+02  0.15864048926E+03  0.21660722808E+03  0.12499910551E+03 0.  0.
          2    1    1    2  501    0  0.66110879042E+01  0.88273263972E+02  0.61024556234E+02  0.10751684556E+03  0.00000000000E+00 0. -1.
          1    1    1    2  502    0 -0.81641194044E+02 -0.65966466427E+02  0.14159674113E+03  0.17625690442E+03  0.00000000000E+00 0. -1.
         22    1    3    3    0    0  0.87646526426E+02  0.30403839357E+02  0.91259105154E+02  0.13013274498E+03  0.00000000000E+00 0.  1.
         22    1    3    3    0    0 -0.12616420286E+02 -0.52710636902E+02  0.67381384108E+02  0.86474483102E+02  0.00000000000E+00 0.  1.
</event>
<event>
 7    1  0.6058736E-006  0.1529605E+03  0.7818608E-02  0.1304515E+00
          2   -1    0    0  502    0  0.00000000000E+00  0.00000000000E+00  0.83010224379E+03  0.83010224379E+03  0.00000000000E+00 0. -1.
          1   -1    0    0  501    0 -0.00000000000E+00 -0.00000000000E+00 -0.53104850715E+03  0.53104850715E+03  0.00000000000E+00 0. -1.
         25    2    1    2    0    0 -0.29724263631E+02 -0.19952348005E+03  0.10012169562E+03  0.25757196590E+03  0.12500325093E+03 0.  0.
          2    1    1    2  501    0  0.22883583251E+02  0.14782015005E+03 -0.43886339056E+03  0.46365453812E+03  0.00000000000E+00 0. -1.
          1    1    1    2  502    0  0.68406803799E+01  0.51703330007E+02  0.63779543159E+03  0.63992424692E+03  0.00000000000E+00 0. -1.
         22    1    3    3    0    0 -0.85637534716E+01 -0.16259221333E+03  0.12764164503E+03  0.20688633414E+03  0.00000000000E+00 0. -1.
         22    1    3    3    0    0 -0.21160510159E+02 -0.36931266722E+02 -0.27519949404E+02  0.50685631762E+02  0.00000000000E+00 0. -1.
</event>
<event>
 7    1  0.6058736E-006  0.5393182E+02  0.7818608E-02  0.1459275E+00
          2   -1    0    0  502    0  0.00000000000E+00  0.00000000000E+00  0.70361677769E+03  0.70361677769E+03  0.00000000000E+00 0. -1.
          1   -1    0    0  501    0 -0.00000000000E+00 -0.00000000000E+00 -0.30248709874E+02  0.30248709874E+02  0.00000000000E+00 0. -1.
         25    2    1    2    0    0 -0.26741750790E+02 -0.20150735650E+02  0.33051371230E+03  0.35494405903E+03  0.12499919056E+03 0.  0.
          2    1    1    2  501    0  0.83457715842E+01  0.57736786406E+02  0.34571337492E+02  0.67811251160E+02  0.00000000000E+00 0. -1.
          1    1    1    2  502    0  0.18395979206E+02 -0.37586050756E+02  0.30828301803E+03  0.31111017738E+03  0.00000000000E+00 0. -1.
         22    1    3    3    0    0 -0.25709294085E+02 -0.13607243260E+01  0.19252418776E+01  0.25817163464E+02  0.00000000000E+00 0. -1.
         22    1    3    3    0    0 -0.10324567052E+01 -0.18790011324E+02  0.32858847042E+03  0.32912689556E+03  0.00000000000E+00 0. -1.
</event>
<event>
 7    1  0.6058736E-006  0.5546144E+02  0.7818608E-02  0.1439152E+00
          2   -1    0    0  502    0  0.00000000000E+00  0.00000000000E+00  0.23615874789E+03  0.23615874789E+03  0.00000000000E+00 0. -1.
          1   -1    0    0  501    0 -0.00000000000E+00 -0.00000000000E+00 -0.12717673441E+04  0.12717673441E+04  0.00000000000E+00 0. -1.
         25    2    1    2    0    0 -0.48704618442E+02 -0.33739929146E+01  0.12760640327E+03  0.18518230842E+03  0.12500227802E+03 0.  0.
          2    1    1    2  501    0  0.22765083076E+01  0.47148215512E+02 -0.12296918998E+04  0.12305975399E+04  0.00000000000E+00 0. -1.
          1    1    1    2  502    0  0.46428110134E+02 -0.43774222597E+02  0.66476900246E+02  0.92146243770E+02  0.00000000000E+00 0. -1.
         22    1    3    3    0    0 -0.45042510705E+02 -0.61259984376E+02  0.76837279177E+02  0.10809986553E+03  0.00000000000E+00 0.  1.
         22    1    3    3    0    0 -0.36621077370E+01  0.57885991462E+02  0.50769124090E+02  0.77082442888E+02  0.00000000000E+00 0.  1.
</event>
<event>
 7    1  0.6058736E-006  0.9035792E+02  0.7818608E-02  0.1306278E+00
          2   -1    0    0  502    0  0.00000000000E+00  0.00000000000E+00  0.20504246175E+03  0.20504246175E+03  0.00000000000E+00 0. -1.
          1   -1    0    0  501    0 -0.00000000000E+00 -0.00000000000E+00 -0.48863608315E+03  0.48863608315E+03  0.00000000000E+00 0. -1.
         25    2    1    2    0    0  0.77174675767E+01  0.11112040100E+02 -0.55074892701E+02  0.13726581558E+03  0.12500249430E+03 0.  0.
          2    1    1    2  501    0  0.20650449703E+02 -0.96901405275E+02 -0.37303797236E+03  0.38597105104E+03  0.00000000000E+00 0. -1.
          1    1    1    2  502    0 -0.28367917280E+02  0.85789365175E+02  0.14451924365E+03  0.17044167828E+03  0.00000000000E+00 0. -1.
         22    1    3    3    0    0 -0.14743834176E+02  0.65181048973E+02 -0.24196488177E+02  0.71073341215E+02  0.00000000000E+00 0.  1.
         22    1    3    3    0    0  0.22461301753E+02 -0.54069008873E+02 -0.30878404524E+02  0.66192474367E+02  0.00000000000E+00 0.  1.
</event>
<event>
 7    1  0.6058736E-006  0.7655533E+02  0.7818608E-02  0.1365166E+00
          2   -1    0    0  502    0  0.00000000000E+00  0.00000000000E+00  0.15851664816E+04  0.15851664816E+04  0.00000000000E+00 0. -1.
          1   -1    0    0  501    0 -0.00000000000E+00 -0.00000000000E+00 -0.50367185259E+03  0.50367185259E+03  0.00000000000E+00 0. -1.
         25    2    1    2    0    0 -0.96177744248E+02 -0.20953908871E+01  0.25889234640E+03  0.30315758403E+03  0.12499889830E+03 0.  0.
          2    1    1    2  501    0  0.60069256446E+02 -0.47497079044E+02 -0.47776700988E+03  0.48386527445E+03  0.00000000000E+00 0. -1.
          1    1    1    2  502    0  0.36108487802E+02  0.49592469931E+02  0.13003692925E+04  0.13018154757E+04  0.00000000000E+00 0. -1.
         22    1    3    3    0    0  0.28117341649E+02 -0.10605919176E+02  0.77302547415E+02  0.82938255708E+02  0.00000000000E+00 0. -1.
         22    1    3    3    0    0 -0.12429508590E+03  0.85105282887E+01  0.18158979898E+03  0.22021932832E+03  0.00000000000E+00 0. -1.
</event>
<event>
 7    1  0.6058736E-006  0.8331791E+02  0.7818608E-02  0.1404789E+00
          2   -1    0    0  502    0  0.00000000000E+00  0.00000000000E+00  0.10240209906E+04  0.10240209906E+04  0.00000000000E+00 0. -1.
          1   -1    0    0  501    0 -0.00000000000E+00 -0.00000000000E+00 -0.10061628632E+03  0.10061628632E+03  0.00000000000E+00 0. -1.
         25    2    1    2    0    0 -0.57042083954E+02 -0.86791316379E+01  0.68478159422E+02  0.15376253918E+03  0.12499813387E+03 0.  0.
          2    1    1    2  501    0 -0.13244445135E+02 -0.38692631615E+02 -0.48522487394E+02  0.63458386767E+02  0.00000000000E+00 0. -1.
          1    1    1    2  502    0  0.70286529090E+02  0.47371763253E+02  0.90344903227E+03  0.90741635098E+03  0.00000000000E+00 0. -1.
         22    1    3    3    0    0 -0.44521826770E+02  0.42990024735E+02  0.78188598020E+02  0.99718564700E+02  0.00000000000E+00 0.  1.
         22    1    3    3    0    0 -0.12520257185E+02 -0.51669156373E+02 -0.97104385980E+01  0.54043974484E+02  0.00000000000E+00 0.  1.
</event>
<event>
 7    1  0.6058736E-006  0.1762316E+03  0.7818608E-02  0.1285487E+00
          2   -1    0    0  502    0  0.00000000000E+00  0.00000000000E+00  0.10475563303E+04  0.10475563303E+04  0.00000000000E+00 0. -1.
          1   -1    0    0  501    0 -0.00000000000E+00 -0.00000000000E+00 -0.34527894792E+03  0.34527894792E+03  0.00000000000E+00 0. -1.
         25    2    1    2    0    0  0.17172407263E+03  0.12051451989E+03 -0.20191915794E+03  0.31687347279E+03  0.12499817915E+03 0.  0.
          2    1    1    2  501    0 -0.53296614186E+02  0.88167984734E+01 -0.68695490634E+02  0.87391850034E+02  0.00000000000E+00 0. -1.
          1    1    1    2  502    0 -0.11842745845E+03 -0.12933131836E+03  0.97289203094E+03  0.98856995539E+03  0.00000000000E+00 0. -1.
         22    1    3    3    0    0  0.18756958461E+00 -0.20794006210E+02 -0.93267895313E+01  0.22790675277E+02  0.00000000000E+00 0. -1.
         22    1    3    3    0    0  0.17153650305E+03  0.14130852610E+03 -0.19259236841E+03  0.29408279752E+03  0.00000000000E+00 0. -1.
</event>
<event>
 7    1  0.6058736E-006  0.5610666E+02  0.7818608E-02  0.1524087E+00
          2   -1    0    0  502    0  0.00000000000E+00  0.00000000000E+00  0.26109187435E+04  0.26109187435E+04  0.00000000000E+00 0. -1.
          1   -1    0    0  501    0 -0.00000000000E+00 -0.00000000000E+00 -0.26246101815E+03  0.26246101815E+03  0.00000000000E+00 0. -1.
         25    2    1    2    0    0  0.20191775084E+02 -0.60147819836E+02 -0.64684861378E+02  0.15438435456E+03  0.12499971852E+03 0.  0.
          2    1    1    2  501    0 -0.25271464860E+02  0.42771544841E+01 -0.15154354346E+03  0.15369575970E+03  0.00000000000E+00 0. -1.
          1    1    1    2  502    0  0.50796897760E+01  0.55870665352E+02  0.25646861302E+04  0.25652996474E+04  0.00000000000E+00 0. -1.
         22    1    3    3    0    0 -0.17871974428E+02 -0.86450952048E+02 -0.62312859786E+02  0.10805585164E+03  0.00000000000E+00 0.  1.
         22    1    3    3    0    0  0.38063749512E+02  0.26303132212E+02 -0.23720015916E+01  0.46328502918E+02  0.00000000000E+00 0.  1.
</event>
<event>
 7    1  0.6058736E-006  0.5311504E+02  0.7818608E-02  0.1462634E+00
          2   -1    0    0  502    0  0.00000000000E+00  0.00000000000E+00  0.28381344981E+04  0.28381344981E+04  0.00000000000E+00 0. -1.
          1   -1    0    0  501    0 -0.00000000000E+00 -0.00000000000E+00 -0.73861516123E+02  0.73861516123E+02  0.00000000000E+00 0. -1.
         25    2    1    2    0    0  0.56745776512E+02 -0.69429951778E+02  0.14779534894E+04  0.14859378550E+04  0.12499676223E+03 0.  0.
          2    1    1    2  501    0 -0.30833061513E+02  0.27727973288E+02 -0.63230755887E+02  0.75615122000E+02  0.00000000000E+00 0. -1.
          1    1    1    2  502    0 -0.25912714999E+02  0.41701978490E+02  0.13495502484E+04  0.13504430372E+04  0.00000000000E+00 0. -1.
         22    1    3    3    0    0  0.90492722762E+02 -0.28952276771E+02  0.11336510625E+04  0.11376255529E+04  0.00000000000E+00 0. -1.
         22    1    3    3    0    0 -0.33746946250E+02 -0.40477675007E+02  0.34430242696E+03  0.34831230206E+03  0.00000000000E+00 0. -1.
</event>
<event>
 7    1  0.6058736E-006  0.6170998E+02  0.7818608E-02  0.1503286E+00
          2   -1    0    0  502    0  0.00000000000E+00  0.00000000000E+00  0.24553438122E+03  0.24553438122E+03  0.00000000000E+00 0. -1.
          1   -1    0    0  501    0 -0.00000000000E+00 -0.00000000000E+00 -0.12234193557E+03  0.12234193557E+03  0.00000000000E+00 0. -1.
         25    2    1    2    0    0  0.68125994685E+01 -0.82753618446E+02  0.81428423710E+02  0.17073454976E+03  0.12500050167E+03 0.  0.
          2    1    1    2  501    0  0.66593990225E+01  0.25973000524E+02 -0.67853012939E+02  0.72958726116E+02  0.00000000000E+00 0. -1.
          1    1    1    2  502    0 -0.13471998491E+02  0.56780617922E+02  0.10961703487E+03  0.12418304091E+03  0.00000000000E+00 0. -1.
         22    1    3    3    0    0  0.36043076793E+02 -0.72283166349E+02  0.10448223577E+03  0.13206247428E+03  0.00000000000E+00 0.  1.
         22    1    3    3    0    0 -0.29230477324E+02 -0.10470452097E+02 -0.23053812058E+02  0.38672075482E+02  0.00000000000E+00 0.  1.
</event>
<event>
 7    1  0.6058736E-006  0.6815103E+02  0.7818608E-02  0.1466601E+00
          2   -1    0    0  502    0  0.00000000000E+00  0.00000000000E+00  0.36107966487E+03  0.36107966487E+03  0.00000000000E+00 0. -1.
          1   -1    0    0  501    0 -0.00000000000E+00 -0.00000000000E+00 -0.21102389536E+03  0.21102389536E+03  0.00000000000E+00 0. -1.
         25    2    1    2    0    0 -0.36454637571E+02 -0.75081263546E+02 -0.11568340673E+03  0.18966688824E+03  0.12499896466E+03 0.  0.
          2    1    1    2  501    0 -0.13036943192E+02  0.28572628485E+02 -0.50235866482E+02  0.59245246793E+02  0.00000000000E+00 0. -1.
          1    1    1    2  502    0  0.49491580763E+02  0.46508635061E+02  0.31597504272E+03  0.32319142520E+03  0.00000000000E+00 0. -1.
         22    1    3    3    0    0 -0.39983678230E+02 -0.50729157607E+01 -0.11249509584E+03  0.11949717815E+03  0.00000000000E+00 0. -1.
         22    1    3    3    0    0  0.35290406587E+01 -0.70008347785E+02 -0.31883108929E+01  0.70169710089E+02  0.00000000000E+00 0. -1.
</event>
<event>
 7    1  0.6058736E-006  0.1662012E+03  0.7818608E-02  0.1211552E+00
          2   -1    0    0  502    0  0.00000000000E+00  0.00000000000E+00  0.16326134945E+04  0.16326134945E+04  0.00000000000E+00 0. -1.
          1   -1    0    0  501    0 -0.00000000000E+00 -0.00000000000E+00 -0.76688980619E+02  0.76688980619E+02  0.00000000000E+00 0. -1.
         25    2    1    2    0    0 -0.82347864970E+02 -0.26961584592E+02  0.34845175683E+03  0.38020005795E+03  0.12500143726E+03 0.  0.
          2    1    1    2  501    0  0.19659913350E+03  0.64239920704E+02  0.12858267688E+03  0.24353950706E+03  0.00000000000E+00 0. -1.
          1    1    1    2  502    0 -0.11425126853E+03 -0.37278336112E+02  0.10788900801E+04  0.10855629101E+04  0.00000000000E+00 0. -1.
         22    1    3    3    0    0  0.14863776630E+02 -0.39490015302E+02  0.18381260220E+03  0.18859338772E+03  0.00000000000E+00 0. -1.
         22    1    3    3    0    0 -0.97211641600E+02  0.12528430710E+02  0.16463915463E+03  0.19160667022E+03  0.00000000000E+00 0. -1.
</event>
<event>
 7    1  0.6058736E-006  0.2343410E+02  0.7818608E-02  0.1691051E+00
          2   -1    0    0  502    0  0.00000000000E+00  0.00000000000E+00  0.88278393715E+02  0.88278393715E+02  0.00000000000E+00 0. -1.
          1   -1    0    0  501    0 -0.00000000000E+00 -0.00000000000E+00 -0.27647259531E+03  0.27647259531E+03  0.00000000000E+00 0. -1.
         25    2    1    2    0    0 -0.37650643054E+01  0.73591120614E+01 -0.18417434469E+03  0.22274068465E+03  0.12499956447E+03 0.  0.
          2    1    1    2  501    0 -0.19530439701E+02 -0.11430835781E+02 -0.69129355420E+02  0.72739053213E+02  0.00000000000E+00 0. -1.
          1    1    1    2  502    0  0.23295504007E+02  0.40717237196E+01  0.65109498511E+02  0.69271251160E+02  0.00000000000E+00 0. -1.
         22    1    3    3    0    0 -0.40077833969E+02 -0.93005181095E+01 -0.17753600612E+03  0.18224095555E+03  0.00000000000E+00 0.  1.
         22    1    3    3    0    0  0.36312769664E+02  0.16659630171E+02 -0.66383385686E+01  0.40499729098E+02  0.00000000000E+00 0.  1.
</event>
<event>
 7    1  0.6058736E-006  0.7310837E+02  0.7818608E-02  0.1457194E+00
          2   -1    0    0  502    0  0.00000000000E+00  0.00000000000E+00  0.99928648599E+02  0.99928648599E+02  0.00000000000E+00 0. -1.
          1   -1    0    0  501    0 -0.00000000000E+00 -0.00000000000E+00 -0.19006919021E+04  0.19006919021E+04  0.00000000000E+00 0. -1.
         25    2    1    2    0    0  0.61587154639E+02  0.76982114101E+02 -0.73928181608E+03  0.75622868480E+03  0.12499998647E+03 0.  0.
          2    1    1    2  501    0 -0.54439247294E+01 -0.30864919046E+02 -0.11382566636E+04  0.11386880660E+04  0.00000000000E+00 0. -1.
          1    1    1    2  502    0 -0.56143229909E+02 -0.46117195054E+02  0.76775226187E+02  0.10570379984E+03  0.00000000000E+00 0. -1.
         22    1    3    3    0    0  0.18286660927E+02  0.98817640277E+02 -0.35672339042E+03  0.37060883054E+03  0.00000000000E+00 0.  1.
         22    1    3    3    0    0  0.43300493712E+02 -0.21835526177E+02 -0.38255842566E+03  0.38561985427E+03  0.00000000000E+00 0.  1.
</event>
<event>
 7    1  0.6058736E-006  0.8487744E+02  0.7818608E-02  0.1326989E+00
          2   -1    0    0  502    0  0.00000000000E+00  0.00000000000E+00  0.10945241760E+04  0.10945241760E+04  0.00000000000E+00 0. -1.
          1   -1    0    0  501    0 -0.00000000000E+00 -0.00000000000E+00 -0.28773875805E+04  0.28773875805E+04  0.00000000000E+00 0. -1.
         25    2    1    2    0    0 -0.44642288441E+02  0.41180914666E+02  0.57412313990E+03  0.59070509549E+03  0.12500531359E+03 0.  0.
          2    1    1    2  501    0 -0.50705154943E+02 -0.68067371876E+02 -0.28636709518E+04  0.28649285332E+04  0.00000000000E+00 0. -1.
          1    1    1    2  502    0  0.95347443383E+02  0.26886457210E+02  0.50668440745E+03  0.51627812784E+03  0.00000000000E+00 0. -1.
         22    1    3    3    0    0 -0.79266206590E+02  0.45388417968E+02  0.28002176082E+03  0.29454274142E+03  0.00000000000E+00 0. -1.
         22    1    3    3    0    0  0.34623918149E+02 -0.42075033018E+01  0.29410137908E+03  0.29616235407E+03  0.00000000000E+00 0. -1.
</event>
<event>
 7    1  0.6058736E-006  0.2049960E+03  0.7818608E-02  0.1366513E+00
          2   -1    0    0  502    0  0.00000000000E+00  0.00000000000E+00  0.14534612542E+04  0.14534612542E+04  0.00000000000E+00 0. -1.
          1   -1    0    0  501    0 -0.00000000000E+00 -0.00000000000E+00 -0.36837446483E+03  0.36837446483E+03  0.00000000000E+00 0. -1.
         25    2    1    2    0    0 -0.19881530949E+02 -0.22518767555E+03 -0.19987861055E+03  0.32662136615E+03  0.12500117351E+03 0.  0.
          2    1    1    2  501    0  0.81784209030E+01  0.21125896648E+02 -0.96289318232E+02  0.98918263648E+02  0.00000000000E+00 0. -1.
          1    1    1    2  502    0  0.11703110046E+02  0.20406177890E+03  0.13812547181E+04  0.13962960892E+04  0.00000000000E+00 0. -1.
         22    1    3    3    0    0 -0.19678733341E+02 -0.22702139565E+03 -0.14153821838E+03  0.26825181060E+03  0.00000000000E+00 0.  1.
         22    1    3    3    0    0 -0.20279760858E+00  0.18337201012E+01 -0.58340392170E+02  0.58369555548E+02  0.00000000000E+00 0.  1.
</event>
<event>
 7    1  0.6058736E-006  0.1009188E+03  0.7818608E-02  0.1425631E+00
          2   -1    0    0  502    0  0.00000000000E+00  0.00000000000E+00  0.45456082978E+03  0.45456082978E+03  0.00000000000E+00 0. -1.
          1   -1    0    0  501    0 -0.00000000000E+00 -0.00000000000E+00 -0.21258397848E+04  0.21258397848E+04  0.00000000000E+00 0. -1.
         25    2    1    2    0    0 -0.74540578236E+02  0.17621716748E+02 -0.40604126836E+02  0.15212145068E+03  0.12500167173E+03 0.  0.
          2    1    1    2  501    0 -0.21175273097E+02  0.19418635433E+02 -0.20227700699E+04  0.20229741054E+04  0.00000000000E+00 0. -1.
          1    1    1    2  502    0  0.95715851333E+02 -0.37040352181E+02  0.39209524169E+03  0.40530505849E+03  0.00000000000E+00 0. -1.
         22    1    3    3    0    0 -0.40452666844E+02 -0.50419058198E+02 -0.40000942975E+02  0.76016939712E+02  0.00000000000E+00 0.  1.
         22    1    3    3    0    0 -0.34087911392E+02  0.68040774946E+02 -0.60318386038E+00  0.76104510964E+02  0.00000000000E+00 0.  1.
</event>
<event>
 7    1  0.6058736E-006  0.1182946E+03  0.7818608E-02  0.1440058E+00
          2   -1    0    0  502    0  0.00000000000E+00  0.00000000000E+00  0.10866533188E+03  0.10866533188E+03  0.00000000000E+00 0. -1.
          1   -1    0    0  501    0 -0.00000000000E+00 -0.00000000000E+00 -0.11029506278E+04  0.11029506278E+04  0.00000000000E+00 0. -1.
         25    2    1    2    0    0  0.72980856397E+02 -0.10485746427E+03 -0.12951897231E+03  0.22073121676E+03  0.12500325056E+03 0.  0.
          2    1    1    2  501    0  0.67315575612E+01  0.20925417017E+02 -0.87445146042E+03  0.87472769682E+03  0.00000000000E+00 0. -1.
          1    1    1    2  502    0 -0.79712413958E+02  0.83932047252E+02  0.96851367637E+01  0.11615704614E+03  0.00000000000E+00 0. -1.
         22    1    3    3    0    0  0.67810745720E+02  0.41263608998E+01 -0.64739732494E+02  0.93843257897E+02  0.00000000000E+00 0. -1.
         22    1    3    3    0    0  0.51701106769E+01 -0.10898382517E+03 -0.64779239813E+02  0.12688795886E+03  0.00000000000E+00 0. -1.
</event>
<event>
 7    1  0.6058736E-006  0.5328498E+02  0.7818608E-02  0.1471038E+00
          2   -1    0    0  502    0  0.00000000000E+00  0.00000000000E+00  0.99988932684E+02  0.99988932684E+02  0.00000000000E+00 0. -1.
          1   -1    0    0  501    0 -0.00000000000E+00 -0.00000000000E+00 -0.74058499643E+03  0.74058499643E+03  0.00000000000E+00 0. -1.
         25    2    1    2    0    0 -0.78017544468E+02 -0.20403958727E+02 -0.27886986970E+03  0.31606337975E+03  0.12499838805E+03 0.  0.
          2    1    1    2  501    0  0.26025535347E+02  0.28924587821E+02 -0.43362913193E+03  0.43537131776E+03  0.00000000000E+00 0. -1.
          1    1    1    2  502    0  0.51992009121E+02 -0.85206290941E+01  0.71902937890E+02  0.89139231597E+02  0.00000000000E+00 0. -1.
         22    1    3    3    0    0 -0.74393779692E+02  0.30939944651E+02 -0.92280064211E+02  0.12250438720E+03  0.00000000000E+00 0.  1.
         22    1    3    3    0    0 -0.36237647754E+01 -0.51343903378E+02 -0.18658980549E+03  0.19355899256E+03  0.00000000000E+00 0.  1.
</event>
<event>
 7    1  0.6058736E-006  0.1093758E+03  0.7818608E-02  0.1414424E+00
          2   -1    0    0  502    0  0.00000000000E+00  0.00000000000E+00  0.15419979085E+04  0.15419979085E+04  0.00000000000E+00 0. -1.
          1   -1    0    0  501    0 -0.00000000000E+00 -0.00000000000E+00 -0.12417731682E+03  0.12417731682E+03  0.00000000000E+00 0. -1.
         25    2    1    2    0    0 -0.80401166202E+02  0.25759743898E+02  0.31663751399E+03  0.35073166591E+03  0.12500189708E+03 0.  0.
          2    1    1    2  501    0 -0.26827794806E+02  0.10734636440E+02 -0.10247327305E+03  0.10646940727E+03  0.00000000000E+00 0. -1.
          1    1    1    2  502    0  0.10722896101E+03 -0.36494380338E+02  0.12036563507E+04  0.12089741522E+04  0.00000000000E+00 0. -1.
         22    1    3    3    0    0 -0.68351305561E+02 -0.17039096447E+02  0.29100465159E+03  0.29940931687E+03  0.00000000000E+00 0.  1.
         22    1    3    3    0    0 -0.12049860641E+02  0.42798840345E+02  0.25632862394E+02  0.51322349039E+02  0.00000000000E+00 0.  1.
</event>
<event>
 7    1  0.6058736E-006  0.6677811E+02  0.7818608E-02  0.1499797E+00
          2   -1    0    0  502    0  0.00000000000E+00  0.00000000000E+00  0.14532984430E+04  0.14532984430E+04  0.00000000000E+00 0. -1.
          1   -1    0    0  501    0 -0.00000000000E+00 -0.00000000000E+00 -0.87099289430E+02  0.87099289430E+02  0.00000000000E+00 0. -1.
         25    2    1    2    0    0 -0.42849218232E+02  0.47082475370E+02  0.10916663057E+04  0.11006419899E+04  0.12499860762E+03 0.  0.
          2    1    1    2  501    0  0.60385472735E+02 -0.28737740704E+02 -0.68531499038E+02  0.95754004713E+02  0.00000000000E+00 0. -1.
          1    1    1    2  502    0 -0.17536254502E+02 -0.18344734666E+02  0.34306434683E+03  0.34400173776E+03  0.00000000000E+00 0. -1.
         22    1    3    3    0    0  0.21632668800E+02 -0.11836176478E+02  0.64746718898E+03  0.64793659276E+03  0.00000000000E+00 0. -1.
         22    1    3    3    0    0 -0.64481887032E+02  0.58918651848E+02  0.44419911676E+03  0.45270539716E+03  0.00000000000E+00 0. -1.
</event>
<event>
 7    1  0.6058736E-006  0.1470206E+03  0.7818608E-02  0.1307007E+00
          2   -1    0    0  502    0  0.00000000000E+00  0.00000000000E+00  0.12327083954E+04  0.12327083954E+04  0.00000000000E+00 0. -1.
          1   -1    0    0  501    0 -0.00000000000E+00 -0.00000000000E+00 -0.11912207914E+04  0.11912207914E+04  0.00000000000E+00 0. -1.
         25    2    1    2    0    0  0.60473299557E+02  0.94506536955E+02 -0.19847212322E+03  0.26000925119E+03  0.12500048609E+03 0.  0.
          2    1    1    2  501    0 -0.11214641439E+03 -0.10646776507E+03 -0.95517380722E+03  0.96761004814E+03  0.00000000000E+00 0. -1.
          1    1    1    2  502    0  0.51673114838E+02  0.11961228118E+02  0.11951335344E+04  0.11963098875E+04  0.00000000000E+00 0. -1.
         22    1    3    3    0    0  0.40784584538E+02  0.11101344019E+03 -0.90224448561E+02  0.14875421795E+03  0.00000000000E+00 0. -1.
         22    1    3    3    0    0  0.19688715019E+02 -0.16506903236E+02 -0.10824767466E+03  0.11125503324E+03  0.00000000000E+00 0. -1.
</event>
<event>
 7    1  0.6058736E-006  0.6268593E+02  0.7818608E-02  0.1460331E+00
          2   -1    0    0  502    0  0.00000000000E+00  0.00000000000E+00  0.10284565975E+04  0.10284565975E+04  0.00000000000E+00 0. -1.
          1   -1    0    0  501    0 -0.00000000000E+00 -0.00000000000E+00 -0.48251957882E+03  0.48251957882E+03  0.00000000000E+00 0. -1.
         25    2    1    2    0    0  0.23170338316E+02 -0.92142479218E+02 -0.21000205953E+03  0.26220753558E+03  0.12499930262E+03 0.  0.
          2    1    1    2  501    0  0.35047194867E+01  0.35555139935E+02 -0.24413720981E+03  0.24673756959E+03  0.00000000000E+00 0. -1.
          1    1    1    2  502    0 -0.26675057803E+02  0.56587339283E+02  0.10000762880E+04  0.10020310711E+04  0.00000000000E+00 0. -1.
         22    1    3    3    0    0 -0.36829193241E+02 -0.44141746647E+02 -0.16129307327E+03  0.17123182752E+03  0.00000000000E+00 0. -1.
         22    1    3    3    0    0  0.59999531557E+02 -0.48000732571E+02 -0.48708986254E+02  0.90975708056E+02  0.00000000000E+00 0. -1.
</event>
<event>
 7    1  0.6058736E-006  0.9996650E+02  0.7818608E-02  0.1301184E+00
          2   -1    0    0  502    0  0.00000000000E+00  0.00000000000E+00  0.43296456857E+03  0.43296456857E+03  0.00000000000E+00 0. -1.
          1   -1    0    0  501    0 -0.00000000000E+00 -0.00000000000E+00 -0.16141417181E+04  0.16141417181E+04  0.00000000000E+00 0. -1.
         25    2    1    2    0    0 -0.12313275392E+03  0.13062078658E+03 -0.91371525653E+02  0.23705756346E+03  0.12499627081E+03 0.  0.
          2    1    1    2  501    0  0.60402885030E+02 -0.77379189066E+02 -0.14435388237E+04  0.14468726215E+04  0.00000000000E+00 0. -1.
          1    1    1    2  502    0  0.62729868893E+02 -0.53241597511E+02  0.35373319983E+03  0.36317610167E+03  0.00000000000E+00 0. -1.
         22    1    3    3    0    0  0.12652213272E+02  0.67026108787E+02 -0.36742122735E+02  0.77476198557E+02  0.00000000000E+00 0.  1.
         22    1    3    3    0    0 -0.13578496720E+03  0.63594677789E+02 -0.54629402918E+02  0.15958136490E+03  0.00000000000E+00 0.  1.
</event>
<event>
 7    1  0.6058736E-006  0.3166755E+02  0.7818608E-02  0.1632632E+00
          2   -1    0    0  502    0  0.00000000000E+00  0.00000000000E+00  0.40418656419E+03  0.40418656419E+03  0.00000000000E+00 0. -1.
          1   -1    0    0  501    0 -0.00000000000E+00 -0.00000000000E+00 -0.32207552867E+02  0.32207552867E+02  0.00000000000E+00 0. -1.
         25    2    1    2    0    0  0.61958509983E+01  0.23079464920E+02  0.24588704387E+03  0.27686886972E+03  0.12499952961E+03 0.  0.
          2    1    1    2  501    0  0.22479722918E+02 -0.56557660337E+01 -0.54156196139E+01  0.23804507298E+02  0.00000000000E+00 0. -1.
          1    1    1    2  502    0 -0.28675573916E+02 -0.17423698886E+02  0.13150758707E+03  0.13572074005E+03  0.00000000000E+00 0. -1.
         22    1    3    3    0    0  0.64355576965E+00 -0.70819096443E+01 -0.13721749556E+02  0.15454902754E+02  0.00000000000E+00 0.  1.
         22    1    3    3    0    0  0.55522952286E+01  0.30161374564E+02  0.25960879343E+03  0.26141396696E+03  0.00000000000E+00 0.  1.
</event>
<event>
 7    1  0.6058736E-006  0.1554467E+03  0.7818608E-02  0.1223533E+00
          2   -1    0    0  502    0  0.00000000000E+00  0.00000000000E+00  0.72146310250E+03  0.72146310250E+03  0.00000000000E+00 0. -1.
          1   -1    0    0  501    0 -0.00000000000E+00 -0.00000000000E+00 -0.57750212397E+03  0.57750212397E+03  0.00000000000E+00 0. -1.
         25    2    1    2    0    0  0.13178429776E+01  0.14535606817E+03 -0.46818455611E+02  0.19733869576E+03  0.12498187785E+03 0.  0.
          2    1    1    2  501    0  0.10906190570E+03 -0.30503160952E+02 -0.43829906645E+03  0.45269306794E+03  0.00000000000E+00 0. -1.
          1    1    1    2  502    0 -0.11037974868E+03 -0.11485290722E+03  0.62907850059E+03  0.64893346278E+03  0.00000000000E+00 0. -1.
         22    1    3    3    0    0 -0.12117443517E+02 -0.83007432025E+01 -0.40372162883E+02  0.42960985917E+02  0.00000000000E+00 0.  1.
         22    1    3    3    0    0  0.13435286495E+02  0.15365681138E+03 -0.64462927281E+01  0.15437770984E+03  0.00000000000E+00 0.  1.
</event>
<event>
 7    1  0.6058736E-006  0.6576895E+02  0.7818608E-02  0.1410617E+00
          2   -1    0    0  502    0  0.00000000000E+00  0.00000000000E+00  0.74394196149E+03  0.74394196149E+03  0.00000000000E+00 0. -1.
          1   -1    0    0  501    0 -0.00000000000E+00 -0.00000000000E+00 -0.14263625264E+04  0.14263625264E+04  0.00000000000E+00 0. -1.
         25    2    1    2    0    0 -0.17711234823E+02 -0.39056796540E+02  0.37892433084E+03  0.40130827716E+03  0.12500225446E+03 0.  0.
          2    1    1    2  501    0  0.33730556043E+02 -0.36225934440E+02 -0.14105455500E+04  0.14114137655E+04  0.00000000000E+00 0. -1.
          1    1    1    2  502    0 -0.16019321219E+02  0.75282730980E+02  0.34920065424E+03  0.35758244526E+03  0.00000000000E+00 0. -1.
         22    1    3    3    0    0  0.31180414876E+02 -0.65542308286E+02  0.26146754550E+03  0.27135454630E+03  0.00000000000E+00 0. -1.
         22    1    3    3    0    0 -0.48891649699E+02  0.26485511746E+02  0.11745678534E+03  0.12995373086E+03  0.00000000000E+00 0. -1.
</event>
<event>
 7    1  0.6058736E-006  0.2417570E+03  0.7818608E-02  0.1348204E+00
          2   -1    0    0  502    0  0.00000000000E+00  0.00000000000E+00  0.33312746217E+03  0.33312746217E+03  0.00000000000E+00 0. -1.
          1   -1    0    0  501    0 -0.00000000000E+00 -0.00000000000E+00 -0.61509503929E+03  0.61509503929E+03  0.00000000000E+00 0. -1.
         25    2    1    2    0    0 -0.24469476083E+03  0.51094263107E+01 -0.35472770611E+03  0.44872892251E+03  0.12499707277E+03 0.  0.
          2    1    1    2  501    0  0.23664668104E+03 -0.26032796500E+02 -0.14620509804E+03  0.27938376624E+03  0.00000000000E+00 0. -1.
          1    1    1    2  502    0  0.80480797840E+01  0.20923370189E+02  0.21896522703E+03  0.22010981272E+03  0.00000000000E+00 0. -1.
         22    1    3    3    0    0 -0.16568782628E+03  0.28466326433E+02 -0.31546466735E+03  0.35746432531E+03  0.00000000000E+00 0. -1.
         22    1    3    3    0    0 -0.79006934548E+02 -0.23356900122E+02 -0.39263038753E+02  0.91264597200E+02  0.00000000000E+00 0. -1.
</event>
<event>
 7    1  0.6058736E-006  0.1297178E+03  0.7818608E-02  0.1383078E+00
          2   -1    0    0  502    0  0.00000000000E+00  0.00000000000E+00  0.82806962977E+03  0.82806962977E+03  0.00000000000E+00 0. -1.
          1   -1    0    0  501    0 -0.00000000000E+00 -0.00000000000E+00 -0.10589188151E+03  0.10589188151E+03  0.00000000000E+00 0. -1.
         25    2    1    2    0    0 -0.74624401958E+02 -0.70917356310E+02  0.84063698831E+02  0.18245379076E+03  0.12499843003E+03 0.  0.
          2    1    1    2  501    0 -0.15781524658E+02 -0.26964464949E+02 -0.45408704401E+02  0.55118865427E+02  0.00000000000E+00 0. -1.
          1    1    1    2  502    0  0.90405926616E+02  0.97881821258E+02  0.68352275383E+03  0.69638885509E+03  0.00000000000E+00 0. -1.
         22    1    3    3    0    0 -0.53208140669E+02 -0.89626825893E+02  0.10437558266E+03  0.14750707240E+03  0.00000000000E+00 0.  1.
         22    1    3    3    0    0 -0.21416261289E+02  0.18709469583E+02 -0.20311883826E+02  0.34946718362E+02  0.00000000000E+00 0.  1.
</event>
<event>
 7    1  0.6058736E-006  0.1012730E+03  0.7818608E-02  0.1445734E+00
          2   -1    0    0  502    0  0.00000000000E+00  0.00000000000E+00  0.94810799150E+03  0.94810799150E+03  0.00000000000E+00 0. -1.
          1   -1    0    0  501    0 -0.00000000000E+00 -0.00000000000E+00 -0.19495778371E+03  0.19495778371E+03  0.00000000000E+00 0. -1.
         25    2    1    2    0    0  0.22541978208E+02 -0.76162001164E+02  0.24143293349E+03  0.28324173170E+03  0.12500890368E+03 0.  0.
          2    1    1    2  501    0 -0.19797760340E+02  0.10062250114E+03 -0.15870214740E+03  0.18895293234E+03  0.00000000000E+00 0. -1.
          1    1    1    2  502    0 -0.27442178680E+01 -0.24460499979E+02  0.67041942171E+03  0.67087111117E+03  0.00000000000E+00 0. -1.
         22    1    3    3    0    0 -0.30997779371E+01 -0.10014900161E+03  0.22091142078E+03  0.24257223044E+03  0.00000000000E+00 0.  1.
         22    1    3    3    0    0  0.25641756145E+02  0.23987000451E+02  0.20521512707E+02  0.40669501259E+02  0.00000000000E+00 0.  1.
</event>
<event>
 7    1  0.6058736E-006  0.1601293E+03  0.7818608E-02  0.1362652E+00
          2   -1    0    0  502    0  0.00000000000E+00  0.00000000000E+00  0.61729000924E+03  0.61729000924E+03  0.00000000000E+00 0. -1.
          1   -1    0    0  501    0 -0.00000000000E+00 -0.00000000000E+00 -0.22721922119E+04  0.22721922119E+04  0.00000000000E+00 0. -1.
         25    2    1    2    0    0  0.11084707020E+03 -0.69551233975E+02 -0.16014729526E+04  0.16116653804E+04  0.12500093316E+03 0.  0.
          2    1    1    2  501    0  0.28033707927E+02 -0.10542531042E+02 -0.65477863743E+03  0.65546326959E+03  0.00000000000E+00 0. -1.
          1    1    1    2  502    0 -0.13888077813E+03  0.80093765016E+02  0.60134938742E+03  0.62235357112E+03  0.00000000000E+00 0. -1.
         22    1    3    3    0    0  0.19652274119E+02  0.26710249684E+02 -0.12756234655E+03  0.13180213039E+03  0.00000000000E+00 0. -1.
         22    1    3    3    0    0  0.91194796082E+02 -0.96261483659E+02 -0.14739106061E+04  0.14798632500E+04  0.00000000000E+00 0. -1.
</event>
<event>
 7    1  0.6058736E-006  0.7780288E+02  0.7818608E-02  0.1392395E+00
          2   -1    0    0  502    0  0.00000000000E+00  0.00000000000E+00  0.14340107069E+04  0.14340107069E+04  0.00000000000E+00 0. -1.
          1   -1    0    0  501    0 -0.00000000000E+00 -0.00000000000E+00 -0.13493658555E+03  0.13493658555E+03  0.00000000000E+00 0. -1.
         25    2    1    2    0    0 -0.11577171430E+03  0.12741313259E+02  0.92036337969E+02  0.19405744725E+03  0.12498869722E+03 0.  0.
          2    1    1    2  501    0  0.40066915136E+02 -0.27010639927E+02 -0.75717979284E+02  0.89822852018E+02  0.00000000000E+00 0. -1.
          1    1    1    2  502    0  0.75704799165E+02  0.14269326668E+02  0.12827557627E+04  0.12850669932E+04  0.00000000000E+00 0. -1.
         22    1    3    3    0    0 -0.13091330447E+03 -0.17865225343E+02  0.89965449908E+02  0.15984755782E+03  0.00000000000E+00 0. -1.
         22    1    3    3    0    0  0.15141590166E+02  0.30606538602E+02  0.20708880617E+01  0.34209889438E+02  0.00000000000E+00 0. -1.
</event>
<event>
 7    1  0.6058736E-006  0.5675540E+02  0.7818608E-02  0.1414050E+00
          2   -1    0    0  502    0  0.00000000000E+00  0.00000000000E+00  0.15167272684E+04  0.15167272684E+04  0.00000000000E+00 0. -1.
          1   -1    0    0  501    0 -0.00000000000E+00 -0.00000000000E+00 -0.29963121930E+02  0.29963121930E+02  0.00000000000E+00 0. -1.
         25    2    1    2    0    0  0.24787550818E+01 -0.86166238327E+02  0.89400029997E+03  0.90680355882E+03  0.12500157236E+03 0.  0.
          2    1    1    2  501    0  0.34629931522E+02  0.44429488698E+02  0.13486036643E+02  0.57923093905E+02  0.00000000000E+00 0. -1.
          1    1    1    2  502    0 -0.37108686604E+02  0.41736749629E+02  0.57927780991E+03  0.58196373765E+03  0.00000000000E+00 0. -1.
         22    1    3    3    0    0  0.12885519165E+02 -0.96764506579E+02  0.88285020818E+03  0.88823076755E+03  0.00000000000E+00 0.  1.
         22    1    3    3    0    0 -0.10406764083E+02  0.10598268252E+02  0.11150091782E+02  0.18572791265E+02  0.00000000000E+00 0.  1.
</event>
<event>
 7    1  0.6058736E-006  0.6628819E+02  0.7818608E-02  0.1384877E+00
          2   -1    0    0  502    0  0.00000000000E+00  0.00000000000E+00  0.52550151597E+03  0.52550151597E+03  0.00000000000E+00 0. -1.
          1   -1    0    0  501    0 -0.00000000000E+00 -0.00000000000E+00 -0.11243417589E+04  0.11243417589E+04  0.00000000000E+00 0. -1.
         25    2    1    2    0    0 -0.92666801837E+02 -0.70150813921E+02  0.35276644291E+02  0.17429873052E+03  0.12500933153E+03 0.  0.
          2    1    1    2  501    0  0.58283003712E+02  0.15283602939E+02 -0.10514717166E+04  0.10531966900E+04  0.00000000000E+00 0. -1.
          1    1    1    2  502    0  0.34383798126E+02  0.54867210981E+02  0.41735482941E+03  0.42234785432E+03  0.00000000000E+00 0. -1.
         22    1    3    3    0    0 -0.69519569563E+02 -0.97564862600E+02 -0.55737495864E+01  0.11992889415E+03  0.00000000000E+00 0. -1.
         22    1    3    3    0    0 -0.23147232274E+02  0.27414048679E+02  0.40850393878E+02  0.54369836370E+02  0.00000000000E+00 0. -1.
</event>
<event>
 7    1  0.6058736E-006  0.6915389E+02  0.7818608E-02  0.1465142E+00
          2   -1    0    0  502    0  0.00000000000E+00  0.00000000000E+00  0.10431484807E+04  0.10431484807E+04  0.00000000000E+00 0. -1.
          1   -1    0    0  501    0 -0.00000000000E+00 -0.00000000000E+00 -0.11398917936E+04  0.11398917936E+04  0.00000000000E+00 0. -1.
         25    2    1    2    0    0  0.95550099270E+02 -0.23160894450E+02  0.53671461901E+02  0.16784496876E+03  0.12500023686E+03 0.  0.
          2    1    1    2  501    0 -0.31272232517E+02 -0.58758952245E+00 -0.10813195691E+04  0.10817718374E+04  0.00000000000E+00 0. -1.
          1    1    1    2  502    0 -0.64277866753E+02  0.23748483973E+02  0.93090479429E+03  0.93342346803E+03  0.00000000000E+00 0. -1.
         22    1    3    3    0    0  0.10417757420E+03  0.23221846572E+02  0.56147632735E+02  0.12060173210E+03  0.00000000000E+00 0. -1.
         22    1    3    3    0    0 -0.86274749269E+01 -0.46382741022E+02 -0.24761708339E+01  0.47243236662E+02  0.00000000000E+00 0. -1.
</event>
<event>
 7    1  0.6058736E-006  0.1705995E+03  0.7818608E-02  0.1210700E+00
          2   -1    0    0  502    0  0.00000000000E+00  0.00000000000E+00  0.20664517936E+04  0.20664517936E+04  0.00000000000E+00 0. -1.
          1   -1    0    0  501    0 -0.00000000000E+00 -0.00000000000E+00 -0.71956618859E+03  0.71956618859E+03  0.00000000000E+00 0. -1.
         25    2    1    2    0    0  0.26915531764E+03  0.10033512598E+03 -0.35403872520E+03  0.47273632188E+03  0.12499795424E+03 0.  0.
          2    1    1    2  501    0 -0.11330756394E+03 -0.33471059520E+02 -0.29104236287E+03  0.31410917347E+03  0.00000000000E+00 0. -1.
          1    1    1    2  502    0 -0.15584775370E+03 -0.66864066457E+02  0.19919666931E+04  0.19991724869E+04  0.00000000000E+00 0. -1.
         22    1    3    3    0    0  0.22238070707E+03  0.23931020035E+02 -0.25503620985E+03  0.33921872138E+03  0.00000000000E+00 0.  1.
         22    1    3    3    0    0  0.46774610568E+02  0.76404105942E+02 -0.99002515350E+02  0.13351760050E+03  0.00000000000E+00 0.  1.
</event>
<event>
 7    1  0.6058736E-006  0.5470821E+02  0.7818608E-02  0.1461645E+00
          2   -1    0    0  502    0  0.00000000000E+00  0.00000000000E+00  0.35112114405E+03  0.35112114405E+03  0.00000000000E+00 0. -1.
          1   -1    0    0  501    0 -0.00000000000E+00 -0.00000000000E+00 -0.29816876393E+03  0.29816876393E+03  0.00000000000E+00 0. -1.
         25    2    1    2    0    0 -0.31137118124E+02  0.57488293189E+02  0.63564027321E+02  0.15472622366E+03  0.12500157896E+03 0.  0.
          2    1    1    2  501    0  0.40405473595E+02 -0.34073505151E+01 -0.24780805530E+03  0.25110365312E+03  0.00000000000E+00 0. -1.
          1    1    1    2  502    0 -0.92683554711E+01 -0.54080942674E+02  0.23719640810E+03  0.24346003120E+03  0.00000000000E+00 0. -1.
         22    1    3    3    0    0 -0.24211736682E+01  0.70458564689E+02  0.89488385027E+02  0.11392296728E+03  0.00000000000E+00 0.  1.
         22    1    3    3    0    0 -0.28715944456E+02 -0.12970271500E+02 -0.25924357707E+02  0.40803256381E+02  0.00000000000E+00 0.  1.
</event>
<event>
 7    1  0.6058736E-006  0.3618265E+02  0.7818608E-02  0.1607812E+00
          2   -1    0    0  502    0  0.00000000000E+00  0.00000000000E+00  0.42999853342E+03  0.42999853342E+03  0.00000000000E+00 0. -1.
          1   -1    0    0  501    0 -0.00000000000E+00 -0.00000000000E+00 -0.23929473760E+04  0.23929473760E+04  0.00000000000E+00 0. -1.
         25    2    1    2    0    0  0.26528105058E+02  0.96940658211E+01 -0.11592303764E+04  0.11662914351E+04  0.12499172276E+03 0.  0.
          2    1    1    2  501    0  0.74110622194E+01 -0.22264617586E+02 -0.12293064288E+04  0.12295303709E+04  0.00000000000E+00 0. -1.
          1    1    1    2  502    0 -0.33939167277E+02  0.12570551765E+02  0.42558796260E+03  0.42712410346E+03  0.00000000000E+00 0. -1.
         22    1    3    3    0    0  0.47499530733E+01  0.58552223764E+02 -0.31926538115E+03  0.32462487361E+03  0.00000000000E+00 0. -1.
         22    1    3    3    0    0  0.21778151985E+02 -0.48858157943E+02 -0.83996499522E+03  0.84166656147E+03  0.00000000000E+00 0. -1.
</event>
<event>
 7    1  0.6058736E-006  0.1918461E+03  0.7818608E-02  0.1175891E+00
          2   -1    0    0  502    0  0.00000000000E+00  0.00000000000E+00  0.22266042760E+04  0.22266042760E+04  0.00000000000E+00 0. -1.
          1   -1    0    0  501    0 -0.00000000000E+00 -0.00000000000E+00 -0.96705424680E+03  0.96705424680E+03  0.00000000000E+00 0. -1.
         25    2    1    2    0    0  0.84229951092E+02  0.59419397665E+02  0.12001863927E+03  0.20162529943E+03  0.12499175220E+03 0.  0.
          2    1    1    2  501    0 -0.51960195886E+02  0.14498017543E+03 -0.91461455137E+03  0.92749064189E+03  0.00000000000E+00 0. -1.
          1    1    1    2  502    0 -0.32269755206E+02 -0.20439957309E+03  0.20541459413E+04  0.20645425814E+04  0.00000000000E+00 0. -1.
         22    1    3    3    0    0 -0.27756589286E+02 -0.47377971841E+00  0.13178631583E+01  0.27791895929E+02  0.00000000000E+00 0. -1.
         22    1    3    3    0    0  0.11198654038E+03  0.59893177383E+02  0.11870077611E+03  0.17383340350E+03  0.00000000000E+00 0. -1.
</event>
<event>
 7    1  0.6058736E-006  0.3602017E+02  0.7818608E-02  0.1559980E+00
          2   -1    0    0  502    0  0.00000000000E+00  0.00000000000E+00  0.23336670206E+04  0.23336670206E+04  0.00000000000E+00 0. -1.
          1   -1    0    0  501    0 -0.00000000000E+00 -0.00000000000E+00 -0.10931253089E+02  0.10931253089E+02  0.00000000000E+00 0. -1.
         25    2    1    2    0    0  0.40121017780E+02 -0.16896939031E+01  0.10020082272E+04  0.10105728767E+04  0.12499800256E+03 0.  0.
          2    1    1    2  501    0 -0.25313236926E+02 -0.26254054122E+02  0.45075184778E+02  0.57981096956E+02  0.00000000000E+00 0. -1.
          1    1    1    2  502    0 -0.14807780854E+02  0.27943748025E+02  0.12756523555E+04  0.12760443000E+04  0.00000000000E+00 0. -1.
         22    1    3    3    0    0  0.60365146590E+02  0.45520469430E+02  0.71676108451E+03  0.72073748087E+03  0.00000000000E+00 0. -1.
         22    1    3    3    0    0 -0.20244128810E+02 -0.47210163333E+02  0.28524714271E+03  0.28983539587E+03  0.00000000000E+00 0. -1.
</event>
<event>
 7    1  0.6058736E-006  0.5359653E+02  0.7818608E-02  0.1454531E+00
          2   -1    0    0  502    0  0.00000000000E+00  0.00000000000E+00  0.28545520996E+04  0.28545520996E+04  0.00000000000E+00 0. -1.
          1   -1    0    0  501    0 -0.00000000000E+00 -0.00000000000E+00 -0.47191242403E+02  0.47191242403E+02  0.00000000000E+00 0. -1.
         25    2    1    2    0    0 -0.81506691739E+02  0.38624664786E+02  0.84503925120E+03  0.85898307429E+03  0.12500152130E+03 0.  0.
          2    1    1    2  501    0  0.52599145850E+02 -0.59972784408E+01 -0.22454772877E+02  0.57505254697E+02  0.00000000000E+00 0. -1.
          1    1    1    2  502    0  0.28907545889E+02 -0.32627386345E+02  0.19847763789E+04  0.19852550130E+04  0.00000000000E+00 0. -1.
         22    1    3    3    0    0 -0.91356754113E+02  0.57834213798E+02  0.81414673107E+03  0.82129516772E+03  0.00000000000E+00 0.  1.
         22    1    3    3    0    0  0.98500623736E+01 -0.19209549011E+02  0.30892520129E+02  0.37687906574E+02  0.00000000000E+00 0.  1.
</event>
<event>
 7    1  0.6058736E-006  0.5743520E+02  0.7818608E-02  0.1457314E+00
          2   -1    0    0  502    0  0.00000000000E+00  0.00000000000E+00  0.63630042904E+03  0.63630042904E+03  0.00000000000E+00 0. -1.
          1   -1    0    0  501    0 -0.00000000000E+00 -0.00000000000E+00 -0.25566995411E+03  0.25566995411E+03  0.00000000000E+00 0. -1.
         25    2    1    2    0    0 -0.44723317190E+01  0.41141753264E+02  0.34377039988E+03  0.36812296664E+03  0.12499514039E+03 0.  0.
          2    1    1    2  501    0  0.44132930812E+02 -0.37170017068E+02 -0.23862080999E+03  0.24549789553E+03  0.00000000000E+00 0. -1.
          1    1    1    2  502    0 -0.39660599093E+02 -0.39717361961E+01  0.27548088503E+03  0.27834952097E+03  0.00000000000E+00 0. -1.
         22    1    3    3    0    0 -0.56580469897E+02  0.21559705878E+02  0.91051967490E+02  0.10934638209E+03  0.00000000000E+00 0. -1.
         22    1    3    3    0    0  0.52108138178E+02  0.19582047386E+02  0.25271843239E+03  0.25877658456E+03  0.00000000000E+00 0. -1.
</event>
<event>
 7    1  0.6058736E-006  0.9220880E+02  0.7818608E-02  0.1481008E+00
          2   -1    0    0  502    0  0.00000000000E+00  0.00000000000E+00  0.37885879809E+03  0.37885879809E+03  0.00000000000E+00 0. -1.
          1   -1    0    0  501    0 -0.00000000000E+00 -0.00000000000E+00 -0.15086524971E+04  0.15086524971E+04  0.00000000000E+00 0. -1.
         25    2    1    2    0    0 -0.10166076040E+03  0.31545815970E+02 -0.13947269480E+03  0.21542537258E+03  0.12500163938E+03 0.  0.
          2    1    1    2  501    0  0.90629579943E+02 -0.13737961375E+02 -0.13293017859E+04  0.13324585136E+04  0.00000000000E+00 0. -1.
          1    1    1    2  502    0  0.11031180459E+02 -0.17807854594E+02  0.33898078169E+03  0.33962740905E+03  0.00000000000E+00 0. -1.
         22    1    3    3    0    0  0.15007652364E+02  0.30804261831E+02 -0.89956252842E+00  0.34277418065E+02  0.00000000000E+00 0.  1.
         22    1    3    3    0    0 -0.11666841277E+03  0.74155413847E+00 -0.13857313227E+03  0.18114795452E+03  0.00000000000E+00 0.  1.
</event>
<event>
 7    1  0.7126241E-006  0.1240388E+03  0.7818608E-02  0.1308103E+00
          2   -1    0    0  502    0  0.00000000000E+00  0.00000000000E+00  0.99997409716E+03  0.99997409716E+03  0.00000000000E+00 0. -1.
          1   -1    0    0  501    0 -0.00000000000E+00 -0.00000000000E+00 -0.13982626844E+04  0.13982626844E+04  0.00000000000E+00 0. -1.
         25    2    1    2    0    0  0.36533292270E+02  0.64442189437E+02 -0.28738646162E+03  0.32203076587E+03  0.12500143448E+03 0.  0.
          2    1    1    2  501    0 -0.65446600343E+02 -0.11956119343E+03 -0.10883131285E+04  0.10968152088E+04  0.00000000000E+00 0. -1.
          1    1    1    2  502    0  0.28913308073E+02  0.55119003996E+02  0.97741100292E+03  0.97939080689E+03  0.00000000000E+00 0. -1.
         22    1    3    3    0    0  0.67980435163E+02  0.56735857174E+01 -0.85221766356E+02  0.10916170849E+03  0.00000000000E+00 0.  1.
         22    1    3    3    0    0 -0.31447142893E+02  0.58768603720E+02 -0.20216469526E+03  0.21286905738E+03  0.00000000000E+00 0.  1.
</event>
<event>
 7    1  0.6058736E-006  0.1159748E+03  0.7818608E-02  0.1372797E+00
          2   -1    0    0  502    0  0.00000000000E+00  0.00000000000E+00  0.71172998838E+02  0.71172998838E+02  0.00000000000E+00 0. -1.
          1   -1    0    0  501    0 -0.00000000000E+00 -0.00000000000E+00 -0.84390352649E+03  0.84390352649E+03  0.00000000000E+00 0. -1.
         25    2    1    2    0    0 -0.11215592019E+03 -0.83639937814E+02 -0.14689932121E+03  0.23828438835E+03  0.12500179810E+03 0.  0.
          2    1    1    2  501    0  0.25601699896E+02  0.28096953130E+02 -0.54410378838E+03  0.54542993898E+03  0.00000000000E+00 0. -1.
          1    1    1    2  502    0  0.86554220294E+02  0.55542984684E+02 -0.81727418069E+02  0.13136219800E+03  0.00000000000E+00 0. -1.
         22    1    3    3    0    0 -0.25510200374E+02 -0.74374839904E+02 -0.14763204190E+02  0.80002120796E+02  0.00000000000E+00 0.  1.
         22    1    3    3    0    0 -0.86645719816E+02 -0.92650979102E+01 -0.13213611702E+03  0.15828226755E+03  0.00000000000E+00 0.  1.
</event>
<event>
 7    1  0.6058736E-006  0.9474685E+02  0.7818608E-02  0.1293201E+00
          2   -1    0    0  502    0  0.00000000000E+00  0.00000000000E+00  0.11853559406E+03  0.11853559406E+03  0.00000000000E+00 0. -1.
          1   -1    0    0  501    0 -0.00000000000E+00 -0.00000000000E+00 -0.63217000471E+03  0.63217000471E+03  0.00000000000E+00 0. -1.
         25    2    1    2    0    0 -0.51330084236E+02  0.34301344148E+02 -0.64821994756E+02  0.15374813744E+03  0.12500095602E+03 0.  0.
          2    1    1    2  501    0  0.40511950202E+02  0.84234977687E+02 -0.46725138657E+03  0.47650876994E+03  0.00000000000E+00 0. -1.
          1    1    1    2  502    0  0.10818134034E+02 -0.11853632184E+03  0.18438970676E+02  0.12044869139E+03  0.00000000000E+00 0. -1.
         22    1    3    3    0    0 -0.33389923510E+02 -0.35977651795E+01 -0.95864662913E+02  0.10157688960E+03  0.00000000000E+00 0.  1.
         22    1    3    3    0    0 -0.17940160725E+02  0.37899109328E+02  0.31042668158E+02  0.52171247839E+02  0.00000000000E+00 0.  1.
</event>
<event>
 7    1  0.6058736E-006  0.3236706E+02  0.7818608E-02  0.1577678E+00
          2   -1    0    0  502    0  0.00000000000E+00  0.00000000000E+00  0.18069750547E+04  0.18069750547E+04  0.00000000000E+00 0. -1.
          1   -1    0    0  501    0 -0.00000000000E+00 -0.00000000000E+00 -0.18550825537E+03  0.18550825537E+03  0.00000000000E+00 0. -1.
         25    2    1    2    0    0  0.46461968189E+01 -0.75875771188E+00  0.27864176068E+03  0.30543012230E+03  0.12499666377E+03 0.  0.
          2    1    1    2  501    0  0.11235926705E+02  0.29428288493E+02 -0.17049385570E+03  0.17337942509E+03  0.00000000000E+00 0. -1.
          1    1    1    2  502    0 -0.15882123523E+02 -0.28669530781E+02  0.15133188944E+04  0.15136737627E+04  0.00000000000E+00 0. -1.
         22    1    3    3    0    0 -0.26673307528E+02  0.19845321202E+02  0.26252772384E+03  0.26462446578E+03  0.00000000000E+00 0. -1.
         22    1    3    3    0    0  0.31319504346E+02 -0.20604078914E+02  0.16114036848E+02  0.40805656519E+02  0.00000000000E+00 0. -1.
</event>
<event>
 7    1  0.6058736E-006  0.1039598E+03  0.7818608E-02  0.1362512E+00
          2   -1    0    0  502    0  0.00000000000E+00  0.00000000000E+00  0.19432390051E+04  0.19432390051E+04  0.00000000000E+00 0. -1.
          1   -1    0    0  501    0 -0.00000000000E+00 -0.00000000000E+00 -0.39283171266E+03  0.39283171266E+03  0.00000000000E+00 0. -1.
         25    2    1    2    0    0  0.98312093715E+02  0.29759872030E+02  0.46508857644E+03  0.49242589587E+03  0.12499984497E+03 0.  0.
          2    1    1    2  501    0 -0.10286094385E+03  0.16202533300E+02 -0.37164096568E+03  0.38595323969E+03  0.00000000000E+00 0. -1.
          1    1    1    2  502    0  0.45488501371E+01 -0.45962405330E+02  0.14569596817E+04  0.14576915822E+04  0.00000000000E+00 0. -1.
         22    1    3    3    0    0  0.10114341331E+02  0.63105559950E+02  0.24049260194E+03  0.24883991478E+03  0.00000000000E+00 0.  1.
         22    1    3    3    0    0  0.88197752384E+02 -0.33345687920E+02  0.22459597449E+03  0.24358598110E+03  0.00000000000E+00 0.  1.
</event>
<event>
 7    1  0.6058736E-006  0.1503645E+03  0.7818608E-02  0.1371348E+00
          2   -1    0    0  502    0  0.00000000000E+00  0.00000000000E+00  0.91352795038E+03  0.91352795038E+03  0.00000000000E+00 0. -1.
          1   -1    0    0  501    0 -0.00000000000E+00 -0.00000000000E+00 -0.12197872096E+03  0.12197872096E+03  0.00000000000E+00 0. -1.
         25    2    1    2    0    0 -0.10719391477E+03 -0.82290214800E+02  0.52864499853E+03  0.55977912539E+03  0.12499967977E+03 0.  0.
          2    1    1    2  501    0  0.10320726390E+03  0.11169175138E+03 -0.51019297009E+02  0.16040497285E+03  0.00000000000E+00 0. -1.
          1    1    1    2  502    0  0.39866508675E+01 -0.29401536575E+02  0.31392352791E+03  0.31532257311E+03  0.00000000000E+00 0. -1.
         22    1    3    3    0    0 -0.79585769762E+02 -0.64574874757E+02  0.51353706326E+03  0.52366413333E+03  0.00000000000E+00 0. -1.
         22    1    3    3    0    0 -0.27608145005E+02 -0.17715340043E+02  0.15107935267E+02  0.36114992060E+02  0.00000000000E+00 0. -1.
</event>
<event>
 7    1  0.6058736E-006  0.1171754E+03  0.7818608E-02  0.1275306E+00
          2   -1    0    0  502    0  0.00000000000E+00  0.00000000000E+00  0.14427874872E+04  0.14427874872E+04  0.00000000000E+00 0. -1.
          1   -1    0    0  501    0 -0.00000000000E+00 -0.00000000000E+00 -0.63371519488E+03  0.63371519488E+03  0.00000000000E+00 0. -1.
         25    2    1    2    0    0 -0.66004778375E+02 -0.16851994926E+01 -0.86019443951E+02  0.16548121586E+03  0.12500086960E+03 0.  0.
          2    1    1    2  501    0 -0.15157129721E+02  0.88214497998E+02 -0.50148734389E+03  0.50941249722E+03  0.00000000000E+00 0. -1.
          1    1    1    2  502    0  0.81161908096E+02 -0.86529298506E+02  0.13965790802E+04  0.14016089690E+04  0.00000000000E+00 0. -1.
         22    1    3    3    0    0  0.71488047549E+01  0.50730981493E+02 -0.34782922842E+02  0.61924063288E+02  0.00000000000E+00 0. -1.
         22    1    3    3    0    0 -0.73153583130E+02 -0.52416180985E+02 -0.51236521109E+02  0.10355715257E+03  0.00000000000E+00 0. -1.
</event>
<event>
 7    1  0.6058736E-006  0.1574217E+03  0.7818608E-02  0.1324598E+00
          2   -1    0    0  502    0  0.00000000000E+00  0.00000000000E+00  0.56724376363E+03  0.56724376363E+03  0.00000000000E+00 0. -1.
          1   -1    0    0  501    0 -0.00000000000E+00 -0.00000000000E+00 -0.15543797884E+03  0.15543797884E+03  0.00000000000E+00 0. -1.
         25    2    1    2    0    0 -0.13756277018E+03  0.37623404943E+02  0.14739280628E+03  0.24018421815E+03  0.12499913187E+03 0.  0.
          2    1    1    2  501    0 -0.64443268296E+01  0.41793813229E+02 -0.85766161422E+02  0.95624717607E+02  0.00000000000E+00 0. -1.
          1    1    1    2  502    0  0.14400709701E+03 -0.79417218172E+02  0.35017913993E+03  0.38687280671E+03  0.00000000000E+00 0. -1.
         22    1    3    3    0    0 -0.10005137258E+03  0.12120613452E+02  0.16348599731E+03  0.19205430935E+03  0.00000000000E+00 0. -1.
         22    1    3    3    0    0 -0.37511397593E+02  0.25502791491E+02 -0.16093191030E+02  0.48129908797E+02  0.00000000000E+00 0. -1.
</event>
<event>
 7    1  0.6058736E-006  0.8472048E+02  0.7818608E-02  0.1366655E+00
          2   -1    0    0  502    0  0.00000000000E+00  0.00000000000E+00  0.41281316683E+03  0.41281316683E+03  0.00000000000E+00 0. -1.
          1   -1    0    0  501    0 -0.00000000000E+00 -0.00000000000E+00 -0.14722866531E+04  0.14722866531E+04  0.00000000000E+00 0. -1.
         25    2    1    2    0    0 -0.11524414787E+02  0.11173666664E+03  0.13554640781E+03  0.21590635343E+03  0.12499931989E+03 0.  0.
          2    1    1    2  501    0 -0.31889072524E+02 -0.78377817120E+02 -0.14276763969E+04  0.14301817679E+04  0.00000000000E+00 0. -1.
          1    1    1    2  502    0  0.43413487311E+02 -0.33358849519E+02  0.23265650283E+03  0.23901169853E+03  0.00000000000E+00 0. -1.
         22    1    3    3    0    0 -0.50017549772E+02  0.11709693932E+03  0.11667021265E+03  0.17270028084E+03  0.00000000000E+00 0. -1.
         22    1    3    3    0    0  0.38493134985E+02 -0.53602726858E+01  0.18876195166E+02  0.43206072584E+02  0.00000000000E+00 0. -1.
</event>
<event>
 7    1  0.6058736E-006  0.4026103E+02  0.7818608E-02  0.1519539E+00
          2   -1    0    0  502    0  0.00000000000E+00  0.00000000000E+00  0.33757438024E+03  0.33757438024E+03  0.00000000000E+00 0. -1.
          1   -1    0    0  501    0 -0.00000000000E+00 -0.00000000000E+00 -0.24705240316E+03  0.24705240316E+03  0.00000000000E+00 0. -1.
         25    2    1    2    0    0 -0.15081003720E+02  0.88324792355E+01  0.13564122617E+02  0.12694050832E+03  0.12499783145E+03 0.  0.
          2    1    1    2  501    0 -0.24220312543E+01 -0.41224484564E+02 -0.18683097101E+03  0.19134036713E+03  0.00000000000E+00 0. -1.
          1    1    1    2  502    0  0.17503034974E+02  0.32392005329E+02  0.26378882547E+03  0.26634590796E+03  0.00000000000E+00 0. -1.
         22    1    3    3    0    0 -0.28913574527E+02  0.16699600883E+02 -0.50715658290E+02  0.60720255742E+02  0.00000000000E+00 0.  1.
         22    1    3    3    0    0  0.13832570807E+02 -0.78671216473E+01  0.64279780907E+02  0.66220252579E+02  0.00000000000E+00 0.  1.
</event>
<event>
 7    1  0.8382228E-006  0.8488321E+02  0.7818608E-02  0.1347395E+00
          2   -1    0    0  502    0  0.00000000000E+00  0.00000000000E+00  0.98653667139E+03  0.98653667139E+03  0.00000000000E+00 0. -1.
          1   -1    0    0  501    0 -0.00000000000E+00 -0.00000000000E+00 -0.15725360606E+04  0.15725360606E+04  0.00000000000E+00 0. -1.
         25    2    1    2    0    0 -0.10903573580E+03  0.17423042442E+02 -0.28142519274E+03  0.32713535091E+03  0.12500017846E+03 0.  0.
          2    1    1    2  501    0  0.48578426313E+02  0.42114114792E+02 -0.12655704360E+04  0.12672024269E+04  0.00000000000E+00 0. -1.
          1    1    1    2  502    0  0.60457309488E+02 -0.59537157234E+02  0.96099623957E+03  0.96473495419E+03  0.00000000000E+00 0. -1.
         22    1    3    3    0    0 -0.12851681622E+03  0.24985694142E+02 -0.17431662228E+03  0.21800720577E+03  0.00000000000E+00 0. -1.
         22    1    3    3    0    0  0.19481080422E+02 -0.75626516994E+01 -0.10710857047E+03  0.10912814514E+03  0.00000000000E+00 0. -1.
</event>
<event>
 7    1  0.6058736E-006  0.9885363E+02  0.7818608E-02  0.1443775E+00
          2   -1    0    0  502    0  0.00000000000E+00  0.00000000000E+00  0.44592706073E+03  0.44592706073E+03  0.00000000000E+00 0. -1.
          1   -1    0    0  501    0 -0.00000000000E+00 -0.00000000000E+00 -0.19173154309E+03  0.19173154309E+03  0.00000000000E+00 0. -1.
         25    2    1    2    0    0  0.58810291977E+02 -0.59941048035E+02 -0.23661933932E+02  0.15243798843E+03  0.12500349402E+03 0.  0.
          2    1    1    2  501    0 -0.61768261061E+02  0.85355327650E+02 -0.76333767385E+02  0.13010647208E+03  0.00000000000E+00 0. -1.
          1    1    1    2  502    0  0.29579690835E+01 -0.25414279616E+02  0.35419121896E+03  0.35511414331E+03  0.00000000000E+00 0. -1.
         22    1    3    3    0    0 -0.32475900480E+01 -0.54686876076E+02 -0.59259556765E+02  0.80702517458E+02  0.00000000000E+00 0.  1.
         22    1    3    3    0    0  0.62057882025E+02 -0.52541719587E+01  0.35597622832E+02  0.71735470973E+02  0.00000000000E+00 0.  1.
</event>
<event>
 7    1  0.6058736E-006  0.1474920E+03  0.7818608E-02  0.1289658E+00
          2   -1    0    0  502    0  0.00000000000E+00  0.00000000000E+00  0.41351278980E+03  0.41351278980E+03  0.00000000000E+00 0. -1.
          1   -1    0    0  501    0 -0.00000000000E+00 -0.00000000000E+00 -0.14006748456E+04  0.14006748456E+04  0.00000000000E+00 0. -1.
         25    2    1    2    0    0  0.55362528777E+02  0.19804765537E+03 -0.15722362913E+03  0.28745755770E+03  0.12499877812E+03 0.  0.
          2    1    1    2  501    0 -0.18459882739E+02 -0.59256564739E+02 -0.11626714961E+04  0.11643268938E+04  0.00000000000E+00 0. -1.
          1    1    1    2  502    0 -0.36902646038E+02 -0.13879109063E+03  0.33273306950E+03  0.36240318385E+03  0.00000000000E+00 0. -1.
         22    1    3    3    0    0  0.68347056411E+02  0.59973404453E+02 -0.10590144491E+03  0.13958239644E+03  0.00000000000E+00 0.  1.
         22    1    3    3    0    0 -0.12984527634E+02  0.13807425092E+03 -0.51322184211E+02  0.14787516126E+03  0.00000000000E+00 0.  1.
</event>
<event>
 7    1  0.6058736E-006  0.8477005E+02  0.7818608E-02  0.1424956E+00
          2   -1    0    0  502    0  0.00000000000E+00  0.00000000000E+00  0.12300841872E+04  0.12300841872E+04  0.00000000000E+00 0. -1.
          1   -1    0    0  501    0 -0.00000000000E+00 -0.00000000000E+00 -0.78946227189E+03  0.78946227189E+03  0.00000000000E+00 0. -1.
         25    2    1    2    0    0 -0.12676970561E+02  0.62134740469E+02  0.89326504480E+03  0.90419543785E+03  0.12500207204E+03 0.  0.
          2    1    1    2  501    0 -0.14141187105E+02 -0.83648622070E+02 -0.78080138370E+03  0.78539662970E+03  0.00000000000E+00 0. -1.
          1    1    1    2  502    0  0.26818157666E+02  0.21513881601E+02  0.32815825418E+03  0.32995439149E+03  0.00000000000E+00 0. -1.
         22    1    3    3    0    0 -0.20286584760E+02  0.98715668875E+02  0.57749382138E+03  0.58622132555E+03  0.00000000000E+00 0. -1.
         22    1    3    3    0    0  0.76096141989E+01 -0.36580928406E+02  0.31577122343E+03  0.31797411230E+03  0.00000000000E+00 0. -1.
</event>
<event>
 7    1  0.6058736E-006  0.9197316E+02  0.7818608E-02  0.1374728E+00
          2   -1    0    0  502    0  0.00000000000E+00  0.00000000000E+00  0.13850457219E+04  0.13850457219E+04  0.00000000000E+00 0. -1.
          1   -1    0    0  501    0 -0.00000000000E+00 -0.00000000000E+00 -0.11880332674E+03  0.11880332674E+03  0.00000000000E+00 0. -1.
         25    2    1    2    0    0 -0.21666528268E+02 -0.67323956461E+02  0.49829611445E+03  0.51858169507E+03  0.12500401288E+03 0.  0.
          2    1    1    2  501    0 -0.19016922740E+02  0.91206507691E+02 -0.87919770000E+02  0.12810213251E+03  0.00000000000E+00 0. -1.
          1    1    1    2  502    0  0.40683451008E+02 -0.23882551230E+02  0.85586605072E+03  0.85716522108E+03  0.00000000000E+00 0. -1.
         22    1    3    3    0    0 -0.30117702673E+02 -0.98864380448E+02  0.43782560368E+03  0.44985831211E+03  0.00000000000E+00 0. -1.
         22    1    3    3    0    0  0.84511744047E+01  0.31540423987E+02  0.60470510762E+02  0.68723382963E+02  0.00000000000E+00 0. -1.
</event>
<event>
 7    1  0.6058736E-006  0.5515328E+02  0.7818608E-02  0.1547316E+00
          2   -1    0    0  502    0  0.00000000000E+00  0.00000000000E+00  0.24713019867E+03  0.24713019867E+03  0.00000000000E+00 0. -1.
          1   -1    0    0  501    0 -0.00000000000E+00 -0.00000000000E+00 -0.82340533413E+02  0.82340533413E+02  0.00000000000E+00 0. -1.
         25    2    1    2    0    0  0.33785731979E+02 -0.17221006934E+02  0.48651262312E+02  0.13939190136E+03  0.12500047230E+03 0.  0.
          2    1    1    2  501    0 -0.55794320629E+02  0.21364854630E+02 -0.11200301968E+02  0.60785771295E+02  0.00000000000E+00 0. -1.
          1    1    1    2  502    0  0.22008588649E+02 -0.41438476952E+01  0.12733870491E+03  0.12929305943E+03  0.00000000000E+00 0. -1.
         22    1    3    3    0    0 -0.52280020113E+01 -0.56345888412E+02 -0.11469076516E+02  0.57738469517E+02  0.00000000000E+00 0. -1.
         22    1    3    3    0    0  0.39013733991E+02  0.39124881478E+02  0.60120338829E+02  0.81653431841E+02  0.00000000000E+00 0. -1.
</event>
<event>
 7    1  0.6058736E-006  0.7753070E+02  0.7818608E-02  0.1420934E+00
          2   -1    0    0  502    0  0.00000000000E+00  0.00000000000E+00  0.20389433194E+04  0.20389433194E+04  0.00000000000E+00 0. -1.
          1   -1    0    0  501    0 -0.00000000000E+00 -0.00000000000E+00 -0.12912007420E+03  0.12912007420E+03  0.00000000000E+00 0. -1.
         25    2    1    2    0    0 -0.86610924623E+01  0.52666622049E+02  0.87338565022E+02  0.16156109067E+03  0.12500069391E+03 0.  0.
          2    1    1    2  501    0 -0.37299212651E+02  0.10567092437E+02 -0.87089752943E+02  0.95328483543E+02  0.00000000000E+00 0. -1.
          1    1    1    2  502    0  0.45960305113E+02 -0.63233714487E+02  0.19095744331E+04  0.19111738194E+04  0.00000000000E+00 0. -1.
         22    1    3    3    0    0 -0.55969312978E+02  0.51952306495E+02  0.84890660995E+02  0.11418419536E+03  0.00000000000E+00 0.  1.
         22    1    3    3    0    0  0.47308220516E+02  0.71431555413E+00  0.24479040270E+01  0.47376895310E+02  0.00000000000E+00 0.  1.
</event>
<event>
 7    1  0.6058736E-006  0.2526518E+02  0.7818608E-02  0.1673112E+00
          2   -1    0    0  502    0  0.00000000000E+00  0.00000000000E+00  0.30818792933E+03  0.30818792933E+03  0.00000000000E+00 0. -1.
          1   -1    0    0  501    0 -0.00000000000E+00 -0.00000000000E+00 -0.71728827191E+03  0.71728827191E+03  0.00000000000E+00 0. -1.
         25    2    1    2    0    0  0.13161418919E+02 -0.45408507325E+02  0.14990150851E+03  0.20082574389E+03  0.12500144667E+03 0.  0.
          2    1    1    2  501    0 -0.45081635680E+01  0.22692179008E+02 -0.69051859229E+03  0.69090606078E+03  0.00000000000E+00 0. -1.
          1    1    1    2  502    0 -0.86532553513E+01  0.22716328317E+02  0.13151674120E+03  0.13374439657E+03  0.00000000000E+00 0. -1.
         22    1    3    3    0    0 -0.28125151629E+01  0.25279331682E+02  0.11960150260E+03  0.12227622122E+03  0.00000000000E+00 0.  1.
         22    1    3    3    0    0  0.15973934082E+02 -0.70687839007E+02  0.30300005917E+02  0.78549522673E+02  0.00000000000E+00 0.  1.
</event>
<event>
 7    1  0.6058736E-006  0.7643793E+02  0.7818608E-02  0.1404911E+00
          2   -1    0    0  502    0  0.00000000000E+00  0.00000000000E+00  0.94180461640E+02  0.94180461640E+02  0.00000000000E+00 0. -1.
          1   -1    0    0  501    0 -0.00000000000E+00 -0.00000000000E+00 -0.11851879205E+04  0.11851879205E+04  0.00000000000E+00 0. -1.
         25    2    1    2    0    0  0.58378317832E+02  0.53184762128E+02 -0.20453770503E+03  0.25239051158E+03  0.12501460171E+03 0.  0.
          2    1    1    2  501    0  0.17921966549E+02 -0.40769309321E+02 -0.93476675342E+03  0.93582702289E+03  0.00000000000E+00 0. -1.
          1    1    1    2  502    0 -0.76300284381E+02 -0.12415452807E+02  0.48296999579E+02  0.91150847683E+02  0.00000000000E+00 0. -1.
         22    1    3    3    0    0  0.22243123613E+02 -0.32766521853E+02 -0.17288846834E+02  0.43212333046E+02  0.00000000000E+00 0. -1.
         22    1    3    3    0    0  0.36135194219E+02  0.85951283981E+02 -0.18724885820E+03  0.20917817854E+03  0.00000000000E+00 0. -1.
</event>
<event>
 7    1  0.6058736E-006  0.8999879E+02  0.7818608E-02  0.1377294E+00
          2   -1    0    0  502    0  0.00000000000E+00  0.00000000000E+00  0.14096271613E+04  0.14096271613E+04  0.00000000000E+00 0. -1.
          1   -1    0    0  501    0 -0.00000000000E+00 -0.00000000000E+00 -0.20018481030E+03  0.20018481030E+03  0.00000000000E+00 0. -1.
         25    2    1    2    0    0  0.14928679470E+02  0.45868203872E+02  0.27943522819E+03  0.30989660685E+03  0.12500041034E+03 0.  0.
          2    1    1    2  501    0 -0.33177510025E+01 -0.91623928227E+02 -0.17305599479E+03  0.19584261290E+03  0.00000000000E+00 0. -1.
          1    1    1    2  502    0 -0.11610928468E+02  0.45755724356E+02  0.11030631175E+04  0.11040727518E+04  0.00000000000E+00 0. -1.
         22    1    3    3    0    0 -0.53603163027E+02  0.55034895763E+01  0.99143224714E+02  0.11284044705E+03  0.00000000000E+00 0.  1.
         22    1    3    3    0    0  0.68531842498E+02  0.40364714295E+02  0.18029200348E+03  0.19705615980E+03  0.00000000000E+00 0.  1.
</event>
<event>
 7    1  0.6058736E-006  0.5718455E+02  0.7818608E-02  0.1519692E+00
          2   -1    0    0  502    0  0.00000000000E+00  0.00000000000E+00  0.11774260568E+03  0.11774260568E+03  0.00000000000E+00 0. -1.
          1   -1    0    0  501    0 -0.00000000000E+00 -0.00000000000E+00 -0.36805871756E+03  0.36805871756E+03  0.00000000000E+00 0. -1.
         25    2    1    2    0    0 -0.54480807522E+02 -0.58573617190E+02 -0.64673434771E+02  0.16188951782E+03  0.12500614304E+03 0.  0.
          2    1    1    2  501    0  0.21317534222E+02  0.14701941770E+02 -0.24304239747E+03  0.24441806669E+03  0.00000000000E+00 0. -1.
          1    1    1    2  502    0  0.33163273300E+02  0.43871675420E+02  0.57399720360E+02  0.79493738732E+02  0.00000000000E+00 0. -1.
         22    1    3    3    0    0  0.13049356500E+02 -0.70862100491E+02 -0.58797582572E+02  0.92999347887E+02  0.00000000000E+00 0.  1.
         22    1    3    3    0    0 -0.67530164022E+02  0.12288483301E+02 -0.58758521994E+01  0.68890169935E+02  0.00000000000E+00 0.  1.
</event>
<event>
 7    1  0.6058736E-006  0.6797634E+02  0.7818608E-02  0.1393852E+00
          2   -1    0    0  502    0  0.00000000000E+00  0.00000000000E+00  0.41103945926E+03  0.41103945926E+03  0.00000000000E+00 0. -1.
          1   -1    0    0  501    0 -0.00000000000E+00 -0.00000000000E+00 -0.26111933479E+04  0.26111933479E+04  0.00000000000E+00 0. -1.
         25    2    1    2    0    0  0.30878308463E+02  0.11210175273E+03  0.31647113765E+03  0.35958177654E+03  0.12499920064E+03 0.  0.
          2    1    1    2  501    0  0.12944426817E+01 -0.67906431840E+02 -0.25788957546E+04  0.25797899667E+04  0.00000000000E+00 0. -1.
          1    1    1    2  502    0 -0.32172751144E+02 -0.44195320889E+02  0.62270728340E+02  0.82861063912E+02  0.00000000000E+00 0. -1.
         22    1    3    3    0    0  0.51736408613E+02  0.75417839015E+02  0.86882029859E+02  0.12614671431E+03  0.00000000000E+00 0.  1.
         22    1    3    3    0    0 -0.20858100151E+02  0.36683913714E+02  0.22958910779E+03  0.23343506224E+03  0.00000000000E+00 0.  1.
</event>
<event>
 7    1  0.6058736E-006  0.1282033E+03  0.7818608E-02  0.1412968E+00
          2   -1    0    0  502    0  0.00000000000E+00  0.00000000000E+00  0.38405268064E+04  0.38405268064E+04  0.00000000000E+00 0. -1.
          1   -1    0    0  501    0 -0.00000000000E+00 -0.00000000000E+00 -0.60047012906E+02  0.60047012906E+02  0.00000000000E+00 0. -1.
         25    2    1    2    0    0 -0.11883471483E+03 -0.43408797257E+02  0.29948000980E+03  0.34830910786E+03  0.12499978088E+03 0.  0.
          2    1    1    2  501    0  0.90808793048E+01 -0.23219761018E+02 -0.29949160233E+02  0.38968857685E+02  0.00000000000E+00 0. -1.
          1    1    1    2  502    0  0.10975383553E+03  0.66628558275E+02  0.35109489439E+04  0.35132958537E+04  0.00000000000E+00 0. -1.
         22    1    3    3    0    0 -0.10043317496E+03  0.20518264868E+01  0.27643429278E+03  0.29412063996E+03  0.00000000000E+00 0.  1.
         22    1    3    3    0    0 -0.18401539870E+02 -0.45460623744E+02  0.23045717026E+02  0.54188467906E+02  0.00000000000E+00 0.  1.
</event>
<event>
 7    1  0.6058736E-006  0.7626970E+02  0.7818608E-02  0.1369784E+00
          2   -1    0    0  502    0  0.00000000000E+00  0.00000000000E+00  0.10193795376E+03  0.10193795376E+03  0.00000000000E+00 0. -1.
          1   -1    0    0  501    0 -0.00000000000E+00 -0.00000000000E+00 -0.13448487473E+04  0.13448487473E+04  0.00000000000E+00 0. -1.
         25    2    1    2    0    0  0.31289920275E+02 -0.52479582067E+02 -0.89019666741E+03  0.90100448854E+03  0.12500326421E+03 0.  0.
          2    1    1    2  501    0 -0.89504353129E+02  0.41414579018E+02 -0.43407063410E+03  0.44513313961E+03  0.00000000000E+00 0. -1.
          1    1    1    2  502    0  0.58214432854E+02  0.11065003049E+02  0.81356507986E+02  0.10064907291E+03  0.00000000000E+00 0. -1.
         22    1    3    3    0    0 -0.27507646766E+02 -0.12747020608E+02 -0.55033500210E+02  0.62831865406E+02  0.00000000000E+00 0.  1.
         22    1    3    3    0    0  0.58797567041E+02 -0.39732561459E+02 -0.83516316719E+03  0.83817262313E+03  0.00000000000E+00 0.  1.
</event>
<event>
 7    1  0.6058736E-006  0.6965487E+02  0.7818608E-02  0.1375983E+00
          2   -1    0    0  502    0  0.00000000000E+00  0.00000000000E+00  0.26869740000E+04  0.26869740000E+04  0.00000000000E+00 0. -1.
          1   -1    0    0  501    0 -0.00000000000E+00 -0.00000000000E+00 -0.52683720705E+02  0.52683720705E+02  0.00000000000E+00 0. -1.
         25    2    1    2    0    0 -0.24607241577E+02  0.52091438873E+02  0.10107636522E+04  0.10200916885E+04  0.12499943208E+03 0.  0.
          2    1    1    2  501    0  0.59813457581E+02  0.14945474045E+02 -0.26998621855E+02  0.67304847405E+02  0.00000000000E+00 0. -1.
          1    1    1    2  502    0 -0.35206216004E+02 -0.67036912918E+02  0.16505252490E+04  0.16522611848E+04  0.00000000000E+00 0. -1.
         22    1    3    3    0    0 -0.74634027093E+02  0.30455228070E+02  0.69492097041E+03  0.69958052720E+03  0.00000000000E+00 0. -1.
         22    1    3    3    0    0  0.50026785516E+02  0.21636210804E+02  0.31584268176E+03  0.32051116129E+03  0.00000000000E+00 0. -1.
</event>
<event>
 7    1  0.6058736E-006  0.2832742E+02  0.7818608E-02  0.1674070E+00
          2   -1    0    0  502    0  0.00000000000E+00  0.00000000000E+00  0.25576100879E+03  0.25576100879E+03  0.00000000000E+00 0. -1.
          1   -1    0    0  501    0 -0.00000000000E+00 -0.00000000000E+00 -0.35455660955E+02  0.35455660955E+02  0.00000000000E+00 0. -1.
         25    2    1    2    0    0 -0.63310852234E+01  0.19176241669E+02  0.10855620099E+03  0.16678581920E+03  0.12500099930E+03 0.  0.
          2    1    1    2  501    0 -0.19759362343E+02 -0.55597397067E+01  0.22508475669E+02  0.30462675240E+02  0.00000000000E+00 0. -1.
          1    1    1    2  502    0  0.26090447566E+02 -0.13616501962E+02  0.89240671174E+02  0.93968175312E+02  0.00000000000E+00 0. -1.
         22    1    3    3    0    0 -0.86697855946E+01 -0.10456102869E+02  0.12963585033E+03  0.13034549842E+03  0.00000000000E+00 0. -1.
         22    1    3    3    0    0  0.23387003712E+01  0.29632344537E+02 -0.21079649331E+02  0.36440320774E+02  0.00000000000E+00 0. -1.
</event>
<event>
 7    1  0.6058736E-006  0.5787771E+02  0.7818608E-02  0.1496093E+00
          2   -1    0    0  502    0  0.00000000000E+00  0.00000000000E+00  0.34712344023E+03  0.34712344023E+03  0.00000000000E+00 0. -1.
          1   -1    0    0  501    0 -0.00000000000E+00 -0.00000000000E+00 -0.15334954762E+03  0.15334954762E+03  0.00000000000E+00 0. -1.
         25    2    1    2    0    0  0.15462198507E+02  0.25857625267E+02  0.59826147372E+02  0.14180348315E+03  0.12498545338E+03 0.  0.
          2    1    1    2  501    0 -0.33006679912E+02 -0.50239030760E+02 -0.10330586826E+03  0.11952197935E+03  0.00000000000E+00 0. -1.
          1    1    1    2  502    0  0.17544481405E+02  0.24381405493E+02  0.23725361350E+03  0.23914752535E+03  0.00000000000E+00 0. -1.
         22    1    3    3    0    0 -0.99283684953E+01  0.64981913425E+02 -0.26370906721E+00  0.65736528018E+02  0.00000000000E+00 0.  1.
         22    1    3    3    0    0  0.25390567002E+02 -0.39124288158E+02  0.60089856439E+02  0.76066955134E+02  0.00000000000E+00 0.  1.
</event>
<event>
 7    1  0.6058736E-006  0.1189768E+03  0.7818608E-02  0.1397980E+00
          2   -1    0    0  502    0  0.00000000000E+00  0.00000000000E+00  0.62411641864E+02  0.62411641864E+02  0.00000000000E+00 0. -1.
          1   -1    0    0  501    0 -0.00000000000E+00 -0.00000000000E+00 -0.31493728904E+04  0.31493728904E+04  0.00000000000E+00 0. -1.
         25    2    1    2    0    0  0.98908183071E+02 -0.30649957204E+02 -0.11693721140E+04  0.11805841262E+04  0.12500195755E+03 0.  0.
          2    1    1    2  501    0 -0.12413853663E+03  0.14011789736E+02 -0.19682494113E+04  0.19722100425E+04  0.00000000000E+00 0. -1.
          1    1    1    2  502    0  0.25230353557E+02  0.16638167468E+02  0.50660276776E+02  0.58990363622E+02  0.00000000000E+00 0. -1.
         22    1    3    3    0    0  0.66455437333E+02 -0.70034325051E+02 -0.49780420579E+03  0.50708003228E+03  0.00000000000E+00 0.  1.
         22    1    3    3    0    0  0.32452745738E+02  0.39384367847E+02 -0.67156790821E+03  0.67350409388E+03  0.00000000000E+00 0.  1.
</event>
<event>
 7    1  0.6058736E-006  0.7682816E+02  0.7818608E-02  0.1352209E+00
          2   -1    0    0  502    0  0.00000000000E+00  0.00000000000E+00  0.59800745224E+03  0.59800745224E+03  0.00000000000E+00 0. -1.
          1   -1    0    0  501    0 -0.00000000000E+00 -0.00000000000E+00 -0.11282853019E+04  0.11282853019E+04  0.00000000000E+00 0. -1.
         25    2    1    2    0    0 -0.10709158625E+03 -0.43828592659E+02 -0.40052111850E+03  0.43523666225E+03  0.12499692963E+03 0.  0.
          2    1    1    2  501    0  0.32128616697E+02  0.60128403964E+02 -0.70622393274E+03  0.70950681191E+03  0.00000000000E+00 0. -1.
          1    1    1    2  502    0  0.74962969551E+02 -0.16299811305E+02  0.57646720154E+03  0.58154928003E+03  0.00000000000E+00 0. -1.
         22    1    3    3    0    0 -0.92416949089E+02 -0.40971019686E+02 -0.40668830841E+03  0.41906431145E+03  0.00000000000E+00 0. -1.
         22    1    3    3    0    0 -0.14674637159E+02 -0.28575729727E+01  0.61671899060E+01  0.16172350799E+02  0.00000000000E+00 0. -1.
</event>
<event>
 7    1  0.6058736E-006  0.7307630E+02  0.7818608E-02  0.1416295E+00
          2   -1    0    0  502    0  0.00000000000E+00  0.00000000000E+00  0.12812371220E+02  0.12812371220E+02  0.00000000000E+00 0. -1.
          1   -1    0    0  501    0 -0.00000000000E+00 -0.00000000000E+00 -0.25255144243E+04  0.25255144243E+04  0.00000000000E+00 0. -1.
         25    2    1    2    0    0  0.40645924710E+02  0.68228669412E+02 -0.21830860124E+04  0.21881034127E+04  0.12499905869E+03 0.  0.
          2    1    1    2  501    0 -0.42305026756E+02  0.52316371393E+01 -0.15552018083E+03  0.16125635479E+03  0.00000000000E+00 0. -1.
          1    1    1    2  502    0  0.16591020458E+01 -0.73460306552E+02 -0.17409585985E+03  0.18896702802E+03  0.00000000000E+00 0. -1.
         22    1    3    3    0    0 -0.91166074673E+01  0.72243340634E+02 -0.62656804816E+03  0.63078501233E+03  0.00000000000E+00 0. -1.
         22    1    3    3    0    0  0.49762532178E+02 -0.40146712217E+01 -0.15565179643E+04  0.15573184004E+04  0.00000000000E+00 0. -1.
</event>
<event>
 7    1  0.6058736E-006  0.1320258E+03  0.7818608E-02  0.1378407E+00
          2   -1    0    0  502    0  0.00000000000E+00  0.00000000000E+00  0.21925885165E+04  0.21925885165E+04  0.00000000000E+00 0. -1.
          1   -1    0    0  501    0 -0.00000000000E+00 -0.00000000000E+00 -0.31472936044E+03  0.31472936044E+03  0.00000000000E+00 0. -1.
         25    2    1    2    0    0 -0.12579330954E+03  0.10306816903E+03  0.87211056893E+03  0.89590677082E+03  0.12500037348E+03 0.  0.
          2    1    1    2  501    0  0.97588942452E+02 -0.88190761126E+02 -0.28834270252E+03  0.31692700442E+03  0.00000000000E+00 0. -1.
          1    1    1    2  502    0  0.28204367085E+02 -0.14877407901E+02  0.12940912896E+04  0.12944841017E+04  0.00000000000E+00 0. -1.
         22    1    3    3    0    0 -0.10474287022E+03  0.48496537784E+02  0.76683796880E+03  0.77547627522E+03  0.00000000000E+00 0.  1.
         22    1    3    3    0    0 -0.21050439322E+02  0.54571631242E+02  0.10527260013E+03  0.12043049560E+03  0.00000000000E+00 0.  1.
</event>
<event>
 7    1  0.6058736E-006  0.9268649E+02  0.7818608E-02  0.1444047E+00
          2   -1    0    0  502    0  0.00000000000E+00  0.00000000000E+00  0.20292672711E+04  0.20292672711E+04  0.00000000000E+00 0. -1.
          1   -1    0    0  501    0 -0.00000000000E+00 -0.00000000000E+00 -0.47708815188E+03  0.47708815188E+03  0.00000000000E+00 0. -1.
         25    2    1    2    0    0 -0.88145737947E+02 -0.41860255793E+02  0.19131195978E+03  0.24849659741E+03  0.12501336262E+03 0.  0.
          2    1    1    2  501    0 -0.32973938683E+01  0.27032803032E+02 -0.44689532331E+03  0.44772432952E+03  0.00000000000E+00 0. -1.
          1    1    1    2  502    0  0.91443131815E+02  0.14827452761E+02  0.18077624828E+04  0.18101344960E+04  0.00000000000E+00 0. -1.
         22    1    3    3    0    0  0.26951181820E+02 -0.32490670169E+02  0.40012135677E+02  0.58163397863E+02  0.00000000000E+00 0. -1.
         22    1    3    3    0    0 -0.11509691977E+03 -0.93695856239E+01  0.15129982410E+03  0.19033319954E+03  0.00000000000E+00 0. -1.
</event>
<event>
 7    1  0.6058736E-006  0.8938649E+02  0.7818608E-02  0.1325929E+00
          2   -1    0    0  502    0  0.00000000000E+00  0.00000000000E+00  0.49820591679E+03  0.49820591679E+03  0.00000000000E+00 0. -1.
          1   -1    0    0  501    0 -0.00000000000E+00 -0.00000000000E+00 -0.82740767216E+02  0.82740767216E+02  0.00000000000E+00 0. -1.
         25    2    1    2    0    0  0.29566034991E+02 -0.19982044057E+02  0.22450985642E+03  0.25942930741E+03  0.12500182960E+03 0.  0.
          2    1    1    2  501    0 -0.99826825706E+02 -0.19377677261E+01 -0.16674592691E+02  0.10122841555E+03  0.00000000000E+00 0. -1.
          1    1    1    2  502    0  0.70260790715E+02  0.21919811783E+02  0.20762988585E+03  0.22028896105E+03  0.00000000000E+00 0. -1.
         22    1    3    3    0    0  0.19161216129E+02  0.16940303104E+02 -0.55684453335E+01  0.26175057903E+02  0.00000000000E+00 0.  1.
         22    1    3    3    0    0  0.10404818862E+02 -0.36922347161E+02  0.23007830175E+03  0.23325424950E+03  0.00000000000E+00 0.  1.
</event>
<event>
 7    1  0.6058736E-006  0.8551735E+02  0.7818608E-02  0.1390172E+00
          2   -1    0    0  502    0  0.00000000000E+00  0.00000000000E+00  0.46151426528E+03  0.46151426528E+03  0.00000000000E+00 0. -1.
          1   -1    0    0  501    0 -0.00000000000E+00 -0.00000000000E+00 -0.11072679578E+04  0.11072679578E+04  0.00000000000E+00 0. -1.
         25    2    1    2    0    0 -0.70107888615E+02  0.10724193209E+03 -0.90044124259E+02  0.20037183551E+03  0.12499992044E+03 0.  0.
          2    1    1    2  501    0  0.40404611439E+02 -0.73767368453E+02 -0.95898151201E+03  0.96266281618E+03  0.00000000000E+00 0. -1.
          1    1    1    2  502    0  0.29703277176E+02 -0.33474563637E+02  0.40327194375E+03  0.40574757140E+03  0.00000000000E+00 0. -1.
         22    1    3    3    0    0  0.75736517122E+01 -0.89331728455E+01  0.19537618245E+02  0.22778944314E+02  0.00000000000E+00 0.  1.
         22    1    3    3    0    0 -0.77681540328E+02  0.11617510494E+03 -0.10958174250E+03  0.17759289120E+03  0.00000000000E+00 0.  1.
</event>
<event>
 7    1  0.6058736E-006  0.7743211E+02  0.7818608E-02  0.1421596E+00
          2   -1    0    0  502    0  0.00000000000E+00  0.00000000000E+00  0.10962453205E+04  0.10962453205E+04  0.00000000000E+00 0. -1.
          1   -1    0    0  501    0 -0.00000000000E+00 -0.00000000000E+00 -0.27955923891E+03  0.27955923891E+03  0.00000000000E+00 0. -1.
         25    2    1    2    0    0 -0.30404332217E+02 -0.58382421661E+02  0.58299835459E+03  0.59987067328E+03  0.12499925053E+03 0.  0.
          2    1    1    2  501    0 -0.31172269118E+01  0.77560272889E+02 -0.26480497028E+03  0.27594743217E+03  0.00000000000E+00 0. -1.
          1    1    1    2  502    0  0.33521559128E+02 -0.19177851227E+02  0.49849269725E+03  0.49998645393E+03  0.00000000000E+00 0. -1.
         22    1    3    3    0    0 -0.18254101676E+02 -0.16269957420E+02  0.12082309626E+02  0.27274639289E+02  0.00000000000E+00 0.  1.
         22    1    3    3    0    0 -0.12150230541E+02 -0.42112464241E+02  0.57091604496E+03  0.57259603399E+03  0.00000000000E+00 0.  1.
</event>
<event>
 7    1  0.6058736E-006  0.1022047E+03  0.7818608E-02  0.1379460E+00
          2   -1    0    0  502    0  0.00000000000E+00  0.00000000000E+00  0.10918873147E+04  0.10918873147E+04  0.00000000000E+00 0. -1.
          1   -1    0    0  501    0 -0.00000000000E+00 -0.00000000000E+00 -0.72224679659E+02  0.72224679659E+02  0.00000000000E+00 0. -1.
         25    2    1    2    0    0  0.12207312449E+03 -0.57779328784E+02  0.21100438481E+03  0.27997783779E+03  0.12499776272E+03 0.  0.
          2    1    1    2  501    0 -0.84941229812E+02  0.40778306375E+02  0.22442411269E+02  0.96858374012E+02  0.00000000000E+00 0. -1.
          1    1    1    2  502    0 -0.37131894683E+02  0.17001022409E+02  0.78621583899E+03  0.78727578259E+03  0.00000000000E+00 0. -1.
         22    1    3    3    0    0  0.12795043302E+03 -0.35877781417E+02  0.21880569359E+03  0.25599699228E+03  0.00000000000E+00 0.  1.
         22    1    3    3    0    0 -0.58773085283E+01 -0.21901547367E+02 -0.78013087803E+01  0.23980845508E+02  0.00000000000E+00 0.  1.
</event>
<event>
 7    1  0.6058736E-006  0.7749631E+02  0.7818608E-02  0.1390598E+00
          2   -1    0    0  502    0  0.00000000000E+00  0.00000000000E+00  0.93403322823E+02  0.93403322823E+02  0.00000000000E+00 0. -1.
          1   -1    0    0  501    0 -0.00000000000E+00 -0.00000000000E+00 -0.62128819926E+03  0.62128819926E+03  0.00000000000E+00 0. -1.
         25    2    1    2    0    0 -0.34632488618E+02 -0.41559719010E+02 -0.12541004507E+03  0.18514670846E+03  0.12500001895E+03 0.  0.
          2    1    1    2  501    0 -0.45446941279E+02  0.18889657205E+02 -0.43676641442E+03  0.43953059551E+03  0.00000000000E+00 0. -1.
          1    1    1    2  502    0  0.80079429897E+02  0.22670061806E+02  0.34291583052E+02  0.90014218116E+02  0.00000000000E+00 0. -1.
         22    1    3    3    0    0 -0.36899393796E+02  0.23272110887E+02 -0.11019306740E+03  0.11851442322E+03  0.00000000000E+00 0. -1.
         22    1    3    3    0    0  0.22669051780E+01 -0.64831829897E+02 -0.15216977667E+02  0.66632285240E+02  0.00000000000E+00 0. -1.
</event>
<event>
 7    1  0.6058736E-006  0.1086592E+03  0.7818608E-02  0.1293829E+00
          2   -1    0    0  502    0  0.00000000000E+00  0.00000000000E+00  0.54629459785E+03  0.54629459785E+03  0.00000000000E+00 0. -1.
          1   -1    0    0  501    0 -0.00000000000E+00 -0.00000000000E+00 -0.10538329282E+04  0.10538329282E+04  0.00000000000E+00 0. -1.
         25    2    1    2    0    0 -0.16363763202E+02 -0.15423562650E+03  0.11278245140E+03  0.22891366764E+03  0.12500073863E+03 0.  0.
          2    1    1    2  501    0 -0.43131795157E+02  0.99228673107E+02 -0.98840871223E+03  0.99431306123E+03  0.00000000000E+00 0. -1.
          1    1    1    2  502    0  0.59495558359E+02  0.55006953395E+02  0.36808793045E+03  0.37690079720E+03  0.00000000000E+00 0. -1.
         22    1    3    3    0    0 -0.12895168445E+02 -0.17078208995E+02  0.86640366924E+02  0.89244068556E+02  0.00000000000E+00 0. -1.
         22    1    3    3    0    0 -0.34685947577E+01 -0.13715741751E+03  0.26142084474E+02  0.13966959908E+03  0.00000000000E+00 0. -1.
</event>
<event>
 7    1  0.6058736E-006  0.4591246E+02  0.7818608E-02  0.1509554E+00
          2   -1    0    0  502    0  0.00000000000E+00  0.00000000000E+00  0.40522679444E+03  0.40522679444E+03  0.00000000000E+00 0. -1.
          1   -1    0    0  501    0 -0.00000000000E+00 -0.00000000000E+00 -0.56161674579E+03  0.56161674579E+03  0.00000000000E+00 0. -1.
         25    2    1    2    0    0  0.36427567762E+02  0.55614892903E+02 -0.17876526825E+03  0.22804055950E+03  0.12500196654E+03 0.  0.
          2    1    1    2  501    0 -0.33080734381E+02 -0.99083546824E+01 -0.35599568006E+03  0.35766665305E+03  0.00000000000E+00 0. -1.
          1    1    1    2  502    0 -0.33468333806E+01 -0.45706538221E+02  0.37837099696E+03  0.38113632767E+03  0.00000000000E+00 0. -1.
         22    1    3    3    0    0  0.67700663636E+02  0.72350415699E+02 -0.95859038625E+02  0.13786557872E+03  0.00000000000E+00 0. -1.
         22    1    3    3    0    0 -0.31273095874E+02 -0.16735522796E+02 -0.82906229628E+02  0.90174980787E+02  0.00000000000E+00 0. -1.
</event>
<event>
 7    1  0.6058736E-006  0.1755704E+03  0.7818608E-02  0.1195515E+00
          2   -1    0    0  502    0  0.00000000000E+00  0.00000000000E+00  0.29393529201E+04  0.29393529201E+04  0.00000000000E+00 0. -1.
          1   -1    0    0  501    0 -0.00000000000E+00 -0.00000000000E+00 -0.38743259432E+03  0.38743259432E+03  0.00000000000E+00 0. -1.
         25    2    1    2    0    0 -0.15846929323E+03  0.24276920267E+03  0.19029883240E+03  0.36862875471E+03  0.12499644207E+03 0.  0.
          2    1    1    2  501    0  0.53057033163E+02 -0.15800099077E+03 -0.27311244672E+03  0.31995276277E+03  0.00000000000E+00 0. -1.
          1    1    1    2  502    0  0.10541226006E+03 -0.84768211894E+02  0.26347339401E+04  0.26382039969E+04  0.00000000000E+00 0. -1.
         22    1    3    3    0    0 -0.10370625178E+03  0.49720472853E+02  0.66656520990E+02  0.13292931907E+03  0.00000000000E+00 0.  1.
         22    1    3    3    0    0 -0.54763041447E+02  0.19304872981E+03  0.12364231141E+03  0.23569943564E+03  0.00000000000E+00 0.  1.
</event>
<event>
 7    1  0.6058736E-006  0.9483292E+02  0.7818608E-02  0.1374857E+00
          2   -1    0    0  502    0  0.00000000000E+00  0.00000000000E+00  0.73844179009E+03  0.73844179009E+03  0.00000000000E+00 0. -1.
          1   -1    0    0  501    0 -0.00000000000E+00 -0.00000000000E+00 -0.62549119921E+03  0.62549119921E+03  0.00000000000E+00 0. -1.
         25    2    1    2    0    0  0.22394421997E+02 -0.96730006969E+02 -0.14670165332E+03  0.21680076172E+03  0.12499196299E+03 0.  0.
          2    1    1    2  501    0 -0.61532852800E+02  0.73127362482E+02 -0.43783740722E+03  0.44814673744E+03  0.00000000000E+00 0. -1.
          1    1    1    2  502    0  0.39138430803E+02  0.23602644487E+02  0.69748965142E+03  0.69898549014E+03  0.00000000000E+00 0. -1.
         22    1    3    3    0    0  0.65826998370E+01 -0.39398893009E+02 -0.15193610417E+03  0.15709928217E+03  0.00000000000E+00 0.  1.
         22    1    3    3    0    0  0.15811722160E+02 -0.57331113960E+02  0.52344508518E+01  0.59701479557E+02  0.00000000000E+00 0.  1.
</event>
<event>
 7    1  0.6058736E-006  0.6829115E+02  0.7818608E-02  0.1403806E+00
          2   -1    0    0  502    0  0.00000000000E+00  0.00000000000E+00  0.77217596440E+03  0.77217596440E+03  0.00000000000E+00 0. -1.
          1   -1    0    0  501    0 -0.00000000000E+00 -0.00000000000E+00 -0.17217724491E+03  0.17217724491E+03  0.00000000000E+00 0. -1.
         25    2    1    2    0    0  0.59669066757E+02 -0.80537378709E+02  0.41091449484E+03  0.44104682507E+03  0.12499965174E+03 0.  0.
          2    1    1    2  501    0 -0.60803167157E+02  0.30267443261E+02 -0.14781642741E+03  0.16267402826E+03  0.00000000000E+00 0. -1.
          1    1    1    2  502    0  0.11341004002E+01  0.50269935448E+02  0.33690065206E+03  0.34063235599E+03  0.00000000000E+00 0. -1.
         22    1    3    3    0    0 -0.25317678995E+01 -0.80935072908E+02  0.32526897608E+03  0.33519666268E+03  0.00000000000E+00 0.  1.
         22    1    3    3    0    0  0.62200834657E+02  0.39769419980E+00  0.85645518764E+02  0.10585016239E+03  0.00000000000E+00 0.  1.
</event>
<event>
 7    1  0.6058736E-006  0.7926724E+02  0.7818608E-02  0.1444697E+00
          2   -1    0    0  502    0  0.00000000000E+00  0.00000000000E+00  0.49111059339E+04  0.49111059339E+04  0.00000000000E+00 0. -1.
          1   -1    0    0  501    0 -0.00000000000E+00 -0.00000000000E+00 -0.12498492664E+04  0.12498492664E+04  0.00000000000E+00 0. -1.
         25    2    1    2    0    0 -0.58756174540E+02 -0.52263132862E+02 -0.53479003806E+03  0.55480577299E+03  0.12500135129E+03 0.  0.
          2    1    1    2  501    0 -0.16417320843E+02  0.27105817059E+02 -0.70437454555E+03  0.70508705431E+03  0.00000000000E+00 0. -1.
          1    1    1    2  502    0  0.75173495383E+02  0.25157315803E+02  0.49004212511E+04  0.49010623730E+04  0.00000000000E+00 0. -1.
         22    1    3    3    0    0 -0.69668627276E+01  0.39909246893E+02 -0.18514956644E+03  0.18953006916E+03  0.00000000000E+00 0.  1.
         22    1    3    3    0    0 -0.51789311813E+02 -0.92172379756E+02 -0.34964047162E+03  0.36527570383E+03  0.00000000000E+00 0.  1.
</event>
<event>
 7    1  0.6058736E-006  0.9896656E+02  0.7818608E-02  0.1395154E+00
          2   -1    0    0  502    0  0.00000000000E+00  0.00000000000E+00  0.19551636198E+04  0.19551636198E+04  0.00000000000E+00 0. -1.
          1   -1    0    0  501    0 -0.00000000000E+00 -0.00000000000E+00 -0.69691867310E+02  0.69691867310E+02  0.00000000000E+00 0. -1.
         25    2    1    2    0    0  0.38666135981E+02 -0.70938337633E+02  0.35152558394E+03  0.38173517608E+03  0.12499676267E+03 0.  0.
          2    1    1    2  501    0 -0.75721269294E+02  0.68154518057E+02 -0.66341316624E+01  0.10209192259E+03  0.00000000000E+00 0. -1.
          1    1    1    2  502    0  0.37055133313E+02  0.27838195756E+01  0.15405803002E+04  0.15410283884E+04  0.00000000000E+00 0. -1.
         22    1    3    3    0    0  0.89472874712E+01  0.22890499551E+02  0.10386254467E+02  0.26681514287E+02  0.00000000000E+00 0.  1.
         22    1    3    3    0    0  0.29718848510E+02 -0.93828837183E+02  0.34113932947E+03  0.35505366179E+03  0.00000000000E+00 0.  1.
</event>
<event>
 7    1  0.6058736E-006  0.3501096E+02  0.7818608E-02  0.1582991E+00
          2   -1    0    0  502    0  0.00000000000E+00  0.00000000000E+00  0.13036247106E+04  0.13036247106E+04  0.00000000000E+00 0. -1.
          1   -1    0    0  501    0 -0.00000000000E+00 -0.00000000000E+00 -0.11065204100E+04  0.11065204100E+04  0.00000000000E+00 0. -1.
         25    2    1    2    0    0  0.27229947371E+02  0.44683433509E+02 -0.18733976216E+03  0.23121619974E+03  0.12500666090E+03 0.  0.
          2    1    1    2  501    0  0.35163778246E+01 -0.27961900323E+02 -0.89678209803E+03  0.89722481248E+03  0.00000000000E+00 0. -1.
          1    1    1    2  502    0 -0.30746325195E+02 -0.16721533187E+02  0.12812261608E+04  0.12817041083E+04  0.00000000000E+00 0. -1.
         22    1    3    3    0    0  0.36358451007E+02 -0.24266207143E+02 -0.14105221936E+03  0.14767028934E+03  0.00000000000E+00 0. -1.
         22    1    3    3    0    0 -0.91285036365E+01  0.68949640653E+02 -0.46287542806E+02  0.83545910395E+02  0.00000000000E+00 0. -1.
</event>
<event>
 7    1  0.6058736E-006  0.1174863E+03  0.7818608E-02  0.1348151E+00
          2   -1    0    0  502    0  0.00000000000E+00  0.00000000000E+00  0.36613325169E+03  0.36613325169E+03  0.00000000000E+00 0. -1.
          1   -1    0    0  501    0 -0.00000000000E+00 -0.00000000000E+00 -0.70719696291E+03  0.70719696291E+03  0.00000000000E+00 0. -1.
         25    2    1    2    0    0  0.62668346460E+02 -0.91569613371E+02 -0.61978954460E+02  0.17826606469E+03  0.12500033313E+03 0.  0.
          2    1    1    2  501    0 -0.38857848755E+02 -0.24899518142E+02 -0.57464359446E+03  0.57649386733E+03  0.00000000000E+00 0. -1.
          1    1    1    2  502    0 -0.23810497706E+02  0.11646913151E+03  0.29555883770E+03  0.31857028258E+03  0.00000000000E+00 0. -1.
         22    1    3    3    0    0  0.35743408629E+02 -0.22859990032E+02  0.35973253908E+02  0.55625941803E+02  0.00000000000E+00 0. -1.
         22    1    3    3    0    0  0.26924937831E+02 -0.68709623339E+02 -0.97952208369E+02  0.12264012288E+03  0.00000000000E+00 0. -1.
</event>
<event>
 7    1  0.6058736E-006  0.9538478E+02  0.7818608E-02  0.1316974E+00
          2   -1    0    0  502    0  0.00000000000E+00  0.00000000000E+00  0.46602561570E+04  0.46602561570E+04  0.00000000000E+00 0. -1.
          1   -1    0    0  501    0 -0.00000000000E+00 -0.00000000000E+00 -0.32911321594E+03  0.32911321594E+03  0.00000000000E+00 0. -1.
         25    2    1    2    0    0  0.34176499057E+02  0.41495053479E+02  0.13555970820E+03  0.19207095345E+03  0.12499977648E+03 0.  0.
          2    1    1    2  501    0  0.62325162236E+02 -0.41184986540E+02 -0.29569400727E+03  0.30498454862E+03  0.00000000000E+00 0. -1.
          1    1    1    2  502    0 -0.96501661292E+02 -0.31006693883E+00  0.44912772401E+04  0.44923138709E+04  0.00000000000E+00 0. -1.
         22    1    3    3    0    0  0.57269378125E+02  0.67630654567E+02  0.55038581071E+02  0.10432129463E+03  0.00000000000E+00 0. -1.
         22    1    3    3    0    0 -0.23092879068E+02 -0.26135601087E+02  0.80521127126E+02  0.87749658812E+02  0.00000000000E+00 0. -1.
</event>
<event>
 7    1  0.6058736E-006  0.2189434E+03  0.7818608E-02  0.1147423E+00
          2   -1    0    0  502    0  0.00000000000E+00  0.00000000000E+00  0.11914834738E+04  0.11914834738E+04  0.00000000000E+00 0. -1.
          1   -1    0    0  501    0 -0.00000000000E+00 -0.00000000000E+00 -0.16931621211E+04  0.16931621211E+04  0.00000000000E+00 0. -1.
         25    2    1    2    0    0  0.22617576189E+02 -0.24820342426E+02 -0.78976985388E+03  0.80030615534E+03  0.12500366403E+03 0.  0.
          2    1    1    2  501    0  0.12647314037E+03 -0.13881763444E+03 -0.87777711882E+03  0.89764049663E+03  0.00000000000E+00 0. -1.
          1    1    1    2  502    0 -0.14909071656E+03  0.16363797687E+03  0.11658683254E+04  0.11866989430E+04  0.00000000000E+00 0. -1.
         22    1    3    3    0    0 -0.28355753062E+02  0.35608446689E+02 -0.19150208558E+03  0.19683764626E+03  0.00000000000E+00 0. -1.
         22    1    3    3    0    0  0.50973329251E+02 -0.60428789116E+02 -0.59826776830E+03  0.60346850907E+03  0.00000000000E+00 0. -1.
</event>
<event>
 7    1  0.6058736E-006  0.8491260E+02  0.7818608E-02  0.1458011E+00
          2   -1    0    0  502    0  0.00000000000E+00  0.00000000000E+00  0.23275968607E+04  0.23275968607E+04  0.00000000000E+00 0. -1.
          1   -1    0    0  501    0 -0.00000000000E+00 -0.00000000000E+00 -0.11386360095E+04  0.11386360095E+04  0.00000000000E+00 0. -1.
         25    2    1    2    0    0 -0.93215559268E+02  0.20879866599E+02  0.65601211453E+03  0.67461207027E+03  0.12499776652E+03 0.  0.
          2    1    1    2  501    0  0.74717635325E+02 -0.40305760042E+02 -0.11276320910E+04  0.11308233337E+04  0.00000000000E+00 0. -1.
          1    1    1    2  502    0  0.18497923943E+02  0.19425893443E+02  0.16605808277E+04  0.16607974662E+04  0.00000000000E+00 0. -1.
         22    1    3    3    0    0 -0.35130580015E+01 -0.26864462971E+02  0.37169559472E+03  0.37268170881E+03  0.00000000000E+00 0. -1.
         22    1    3    3    0    0 -0.89702501266E+02  0.47744329570E+02  0.28431651981E+03  0.30193036146E+03  0.00000000000E+00 0. -1.
</event>
<event>
 7    1  0.9489642E-006  0.6090098E+02  0.7818608E-02  0.1410034E+00
          2   -1    0    0  502    0  0.00000000000E+00  0.00000000000E+00  0.20702488033E+04  0.20702488033E+04  0.00000000000E+00 0. -1.
          1   -1    0    0  501    0 -0.00000000000E+00 -0.00000000000E+00 -0.65365702407E+03  0.65365702407E+03  0.00000000000E+00 0. -1.
         25    2    1    2    0    0 -0.14796322015E+01  0.44200171736E+02 -0.11084395387E+03  0.17281934845E+03  0.12499720235E+03 0.  0.
          2    1    1    2  501    0 -0.51744940882E+02 -0.14350908669E+02 -0.50995884812E+03  0.51277823107E+03  0.00000000000E+00 0. -1.
          1    1    1    2  502    0  0.53224573084E+02 -0.29849263068E+02  0.20373945812E+04  0.20383082478E+04  0.00000000000E+00 0. -1.
         22    1    3    3    0    0  0.17043010864E+02  0.74613981576E+02 -0.11373838368E+03  0.13709168607E+03  0.00000000000E+00 0. -1.
         22    1    3    3    0    0 -0.18522643065E+02 -0.30413809840E+02  0.28944298136E+01  0.35727662379E+02  0.00000000000E+00 0. -1.
</event>
<event>
 7    1  0.6058736E-006  0.1773158E+03  0.7818608E-02  0.1298864E+00
          2   -1    0    0  502    0  0.00000000000E+00  0.00000000000E+00  0.18199175169E+04  0.18199175169E+04  0.00000000000E+00 0. -1.
          1   -1    0    0  501    0 -0.00000000000E+00 -0.00000000000E+00 -0.10057486403E+03  0.10057486403E+03  0.00000000000E+00 0. -1.
         25    2    1    2    0    0  0.10526039379E+03 -0.18055468923E+03  0.77111793672E+03  0.80865707738E+03  0.12499460057E+03 0.  0.
          2    1    1    2  501    0 -0.37738886395E+02  0.28662399066E+02 -0.67569147109E+02  0.82530880933E+02  0.00000000000E+00 0. -1.
          1    1    1    2  502    0 -0.67521507391E+02  0.15189229016E+03  0.10157938633E+04  0.10293044226E+04  0.00000000000E+00 0. -1.
         22    1    3    3    0    0  0.66858516012E+01 -0.87130011322E+02  0.15680907342E+03  0.17951441444E+03  0.00000000000E+00 0.  1.
         22    1    3    3    0    0  0.98574542185E+02 -0.93424677906E+02  0.61430886330E+03  0.62914266295E+03  0.00000000000E+00 0.  1.
</event>
<event>
 7    1  0.6058736E-006  0.9302882E+02  0.7818608E-02  0.1305281E+00
          2   -1    0    0  502    0  0.00000000000E+00  0.00000000000E+00  0.68541962284E+03  0.68541962284E+03  0.00000000000E+00 0. -1.
          1   -1    0    0  501    0 -0.00000000000E+00 -0.00000000000E+00 -0.36081581319E+03  0.36081581319E+03  0.00000000000E+00 0. -1.
         25    2    1    2    0    0  0.50024134081E+02 -0.97236616023E+02 -0.38747020956E+02  0.17054003969E+03  0.12500080007E+03 0.  0.
          2    1    1    2  501    0  0.40927965054E+02  0.74673062201E+02 -0.24541024448E+03  0.25976403261E+03  0.00000000000E+00 0. -1.
          1    1    1    2  502    0 -0.90952099134E+02  0.22563553822E+02  0.60876107508E+03  0.61593136374E+03  0.00000000000E+00 0. -1.
         22    1    3    3    0    0  0.35673771664E+02 -0.91930002841E+01 -0.67429655211E+02  0.76836759698E+02  0.00000000000E+00 0. -1.
         22    1    3    3    0    0  0.14350362417E+02 -0.88043615739E+02  0.28682634255E+02  0.93703279994E+02  0.00000000000E+00 0. -1.
</event>
<event>
 7    1  0.6058736E-006  0.9150808E+02  0.7818608E-02  0.1375261E+00
          2   -1    0    0  502    0  0.00000000000E+00  0.00000000000E+00  0.11404860084E+04  0.11404860084E+04  0.00000000000E+00 0. -1.
          1   -1    0    0  501    0 -0.00000000000E+00 -0.00000000000E+00 -0.10711228451E+03  0.10711228451E+03  0.00000000000E+00 0. -1.
         25    2    1    2    0    0 -0.44535695944E+02  0.11776039256E+03  0.45326730125E+03  0.48675161225E+03  0.12499978951E+03 0.  0.
          2    1    1    2  501    0  0.54618109803E+02 -0.71641639583E+02 -0.66843183643E+02  0.11217697464E+03  0.00000000000E+00 0. -1.
          1    1    1    2  502    0 -0.10082413859E+02 -0.46118752972E+02  0.64694960624E+03  0.64866970598E+03  0.00000000000E+00 0. -1.
         22    1    3    3    0    0 -0.87111645347E+02  0.90948882519E+02  0.34776650794E+03  0.36986711401E+03  0.00000000000E+00 0.  1.
         22    1    3    3    0    0  0.42575949403E+02  0.26811510037E+02  0.10550079332E+03  0.11688449824E+03  0.00000000000E+00 0.  1.
</event>
<event>
 7    1  0.6058736E-006  0.6725378E+02  0.7818608E-02  0.1375072E+00
          2   -1    0    0  502    0  0.00000000000E+00  0.00000000000E+00  0.12968939084E+04  0.12968939084E+04  0.00000000000E+00 0. -1.
          1   -1    0    0  501    0 -0.00000000000E+00 -0.00000000000E+00 -0.33433180510E+03  0.33433180510E+03  0.00000000000E+00 0. -1.
         25    2    1    2    0    0  0.22105676300E+02  0.55070797371E+01  0.16407163474E+03  0.20751688907E+03  0.12499907629E+03 0.  0.
          2    1    1    2  501    0 -0.38261799944E+02  0.56764285423E+02 -0.30791594464E+03  0.31543363549E+03  0.00000000000E+00 0. -1.
          1    1    1    2  502    0  0.16156123644E+02 -0.62271365160E+02  0.11064064132E+04  0.11082751889E+04  0.00000000000E+00 0. -1.
         22    1    3    3    0    0 -0.34712528044E+02  0.21767178040E+02  0.13609789347E+03  0.14213165112E+03  0.00000000000E+00 0. -1.
         22    1    3    3    0    0  0.56818204344E+02 -0.16260098303E+02  0.27973741268E+02  0.65385237954E+02  0.00000000000E+00 0. -1.
</event>
<event>
 7    1  0.6058736E-006  0.8931792E+02  0.7818608E-02  0.1361553E+00
          2   -1    0    0  502    0  0.00000000000E+00  0.00000000000E+00  0.62792347826E+03  0.62792347826E+03  0.00000000000E+00 0. -1.
          1   -1    0    0  501    0 -0.00000000000E+00 -0.00000000000E+00 -0.58932368111E+02  0.58932368111E+02  0.00000000000E+00 0. -1.
         25    2    1    2    0    0  0.48081796109E+02  0.17184563874E+02  0.34996410018E+03  0.37510971593E+03  0.12500103688E+03 0.  0.
          2    1    1    2  501    0 -0.95126184412E+02  0.97157746485E+01  0.10387631757E+02  0.96183627148E+02  0.00000000000E+00 0. -1.
          1    1    1    2  502    0  0.47044388303E+02 -0.26900338523E+02  0.20863937822E+03  0.21556250329E+03  0.00000000000E+00 0. -1.
         22    1    3    3    0    0  0.12156711373E+02  0.26453642511E+02  0.33307495822E+03  0.33434489473E+03  0.00000000000E+00 0.  1.
         22    1    3    3    0    0  0.35925084736E+02 -0.92690786369E+01  0.16889141954E+02  0.40764821207E+02  0.00000000000E+00 0.  1.
</event>
<event>
 7    1  0.6058736E-006  0.1279531E+03  0.7818608E-02  0.1300173E+00
          2   -1    0    0  502    0  0.00000000000E+00  0.00000000000E+00  0.18301689488E+04  0.18301689488E+04  0.00000000000E+00 0. -1.
          1   -1    0    0  501    0 -0.00000000000E+00 -0.00000000000E+00 -0.32648481864E+03  0.32648481864E+03  0.00000000000E+00 0. -1.
         25    2    1    2    0    0 -0.93546321198E+02 -0.48177370706E+02  0.42261489616E+03  0.45310143483E+03  0.12500234608E+03 0.  0.
          2    1    1    2  501    0  0.69810561806E+02  0.10856334724E+03 -0.29706388826E+03  0.32389268070E+03  0.00000000000E+00 0. -1.
          1    1    1    2  502    0  0.23735759392E+02 -0.60385976535E+02  0.13781331222E+04  0.13796596519E+04  0.00000000000E+00 0. -1.
         22    1    3    3    0    0 -0.49525427794E+02  0.37487660688E+02  0.11421797345E+03  0.13001476132E+03  0.00000000000E+00 0.  1.
         22    1    3    3    0    0 -0.44020893404E+02 -0.85665031394E+02  0.30839692271E+03  0.32308667351E+03  0.00000000000E+00 0.  1.
</event>
<event>
 7    1  0.6058736E-006  0.4561512E+02  0.7818608E-02  0.1475227E+00
          2   -1    0    0  502    0  0.00000000000E+00  0.00000000000E+00  0.44851540604E+03  0.44851540604E+03  0.00000000000E+00 0. -1.
          1   -1    0    0  501    0 -0.00000000000E+00 -0.00000000000E+00 -0.94339373999E+02  0.94339373999E+02  0.00000000000E+00 0. -1.
         25    2    1    2    0    0 -0.86435764093E+00 -0.22817298145E+02  0.10396087930E+03  0.16417397639E+03  0.12499541548E+03 0.  0.
          2    1    1    2  501    0 -0.43767665325E+02  0.55210444434E+01 -0.54563670659E+02  0.70166121565E+02  0.00000000000E+00 0. -1.
          1    1    1    2  502    0  0.44632022966E+02  0.17296253701E+02  0.30477882340E+03  0.30851468208E+03  0.00000000000E+00 0. -1.
         22    1    3    3    0    0 -0.37454784580E+00  0.36842944160E+02  0.97419469157E+02  0.10415419238E+03  0.00000000000E+00 0. -1.
         22    1    3    3    0    0 -0.48980979513E+00 -0.59660242305E+02  0.65414101404E+01  0.60019784006E+02  0.00000000000E+00 0. -1.
</event>
<event>
 7    1  0.6058736E-006  0.1647706E+03  0.7818608E-02  0.1280750E+00
          2   -1    0    0  502    0  0.00000000000E+00  0.00000000000E+00  0.30334483845E+04  0.30334483845E+04  0.00000000000E+00 0. -1.
          1   -1    0    0  501    0 -0.00000000000E+00 -0.00000000000E+00 -0.10713082894E+04  0.10713082894E+04  0.00000000000E+00 0. -1.
         25    2    1    2    0    0  0.95774177696E+02 -0.10696232810E+03  0.13456233769E+04  0.13590222066E+04  0.12500181094E+03 0.  0.
          2    1    1    2  501    0 -0.16327569475E+02 -0.58181290949E+02 -0.10587504602E+04  0.10604735683E+04  0.00000000000E+00 0. -1.
          1    1    1    2  502    0 -0.79446608221E+02  0.16514361905E+03  0.16752671784E+04  0.16852608990E+04  0.00000000000E+00 0. -1.
         22    1    3    3    0    0  0.81701484689E+02 -0.10075275724E+03  0.62911601266E+03  0.64234975525E+03  0.00000000000E+00 0. -1.
         22    1    3    3    0    0  0.14072693007E+02 -0.62095708580E+01  0.71650736424E+03  0.71667245131E+03  0.00000000000E+00 0. -1.
</event>
<event>
 7    1  0.6058736E-006  0.3275282E+02  0.7818608E-02  0.1581859E+00
          2   -1    0    0  502    0  0.00000000000E+00  0.00000000000E+00  0.90800189864E+03  0.90800189864E+03  0.00000000000E+00 0. -1.
          1   -1    0    0  501    0 -0.00000000000E+00 -0.00000000000E+00 -0.66483573843E+03  0.66483573843E+03  0.00000000000E+00 0. -1.
         25    2    1    2    0    0  0.13893259708E+02 -0.65195170063E+01  0.34132191168E+03  0.36382184630E+03  0.12502064504E+03 0.  0.
          2    1    1    2  501    0  0.12773109182E+02  0.27515473885E+02 -0.65271467696E+03  0.65341923996E+03  0.00000000000E+00 0. -1.
          1    1    1    2  502    0 -0.26666368890E+02 -0.20995956879E+02  0.55455892549E+03  0.55559655081E+03  0.00000000000E+00 0. -1.
         22    1    3    3    0    0  0.24798763409E+02 -0.43147094966E+02  0.31121987680E+03  0.31517370161E+03  0.00000000000E+00 0. -1.
         22    1    3    3    0    0 -0.10905503700E+02  0.36627577959E+02  0.30102034879E+02  0.48648144692E+02  0.00000000000E+00 0. -1.
</event>
<event>
 7    1  0.6058736E-006  0.1109813E+03  0.7818608E-02  0.1322693E+00
          2   -1    0    0  502    0  0.00000000000E+00  0.00000000000E+00  0.13298576298E+04  0.13298576298E+04  0.00000000000E+00 0. -1.
          1   -1    0    0  501    0 -0.00000000000E+00 -0.00000000000E+00 -0.64118422193E+03  0.64118422193E+03  0.00000000000E+00 0. -1.
         25    2    1    2    0    0  0.99688513447E+02  0.12552452244E+03 -0.89822848056E+02  0.22222929954E+03  0.12499404824E+03 0.  0.
          2    1    1    2  501    0 -0.46034180105E+02 -0.96489826262E+02 -0.47851984437E+03  0.49031691156E+03  0.00000000000E+00 0. -1.
          1    1    1    2  502    0 -0.53654333341E+02 -0.29034696178E+02  0.12570161002E+04  0.12584956406E+04  0.00000000000E+00 0. -1.
         22    1    3    3    0    0  0.22332419195E+02  0.59914259068E+02  0.25327756149E+02  0.68774636446E+02  0.00000000000E+00 0. -1.
         22    1    3    3    0    0  0.77356094251E+02  0.65610263372E+02 -0.11515060420E+03  0.15345466310E+03  0.00000000000E+00 0. -1.
</event>
<event>
 7    1  0.6058736E-006  0.4095688E+02  0.7818608E-02  0.1555685E+00
          2   -1    0    0  502    0  0.00000000000E+00  0.00000000000E+00  0.94622399826E+03  0.94622399826E+03  0.00000000000E+00 0. -1.
          1   -1    0    0  501    0 -0.00000000000E+00 -0.00000000000E+00 -0.86672505392E+02  0.86672505392E+02  0.00000000000E+00 0. -1.
         25    2    1    2    0    0  0.28590296174E+02 -0.38960721200E+02  0.14153722082E+03  0.19491891814E+03  0.12500102775E+03 0.  0.
          2    1    1    2  501    0 -0.81885268923E-01  0.41021290589E+02 -0.52672002375E+02  0.66761462095E+02  0.00000000000E+00 0. -1.
          1    1    1    2  502    0 -0.28508410905E+02 -0.20605693893E+01  0.77068627442E+03  0.77121612342E+03  0.00000000000E+00 0. -1.
         22    1    3    3    0    0  0.32489723169E+02 -0.70936359726E+02  0.38579821742E+02  0.87039944212E+02  0.00000000000E+00 0.  1.
         22    1    3    3    0    0 -0.38994269948E+01  0.31975638526E+02  0.10295739908E+03  0.10787897393E+03  0.00000000000E+00 0.  1.
</event>
<event>
 7    1  0.6058736E-006  0.5882426E+03  0.7818608E-02  0.1242877E+00
          2   -1    0    0  502    0  0.00000000000E+00  0.00000000000E+00  0.15015324248E+04  0.15015324248E+04  0.00000000000E+00 0. -1.
          1   -1    0    0  501    0 -0.00000000000E+00 -0.00000000000E+00 -0.34012502050E+03  0.34012502050E+03  0.00000000000E+00 0. -1.
         25    2    1    2    0    0  0.44434636050E+03 -0.37658829124E+03  0.29310057269E+03  0.66392327696E+03  0.12499497105E+03 0.  0.
          2    1    1    2  501    0 -0.46754769255E+03  0.36861159476E+03  0.41965760801E+03  0.72841462133E+03  0.00000000000E+00 0. -1.
          1    1    1    2  502    0  0.23201332050E+02  0.79766964824E+01  0.44864922364E+03  0.44931954706E+03  0.00000000000E+00 0. -1.
         22    1    3    3    0    0  0.12859286219E+03 -0.14326244700E+03  0.39467384156E+02  0.19651444562E+03  0.00000000000E+00 0.  1.
         22    1    3    3    0    0  0.31575349831E+03 -0.23332584424E+03  0.25363318853E+03  0.46740883134E+03  0.00000000000E+00 0.  1.
</event>
<event>
 7    1  0.8785221E-006  0.5799112E+02  0.7818608E-02  0.1460521E+00
          2   -1    0    0  502    0  0.00000000000E+00  0.00000000000E+00  0.97765924972E+03  0.97765924972E+03  0.00000000000E+00 0. -1.
          1   -1    0    0  501    0 -0.00000000000E+00 -0.00000000000E+00 -0.10673385459E+04  0.10673385459E+04  0.00000000000E+00 0. -1.
         25    2    1    2    0    0 -0.51411423092E+02 -0.15253790231E+02 -0.19239931618E+03  0.23562325060E+03  0.12500002727E+03 0.  0.
          2    1    1    2  501    0  0.19517861812E+02 -0.33263033445E+02 -0.85200913609E+03  0.85288155350E+03  0.00000000000E+00 0. -1.
          1    1    1    2  502    0  0.31893561280E+02  0.48516823676E+02  0.95472915606E+03  0.95649299154E+03  0.00000000000E+00 0. -1.
         22    1    3    3    0    0 -0.38987475406E+02  0.48473543641E+02 -0.52531318148E+02  0.81420188270E+02  0.00000000000E+00 0. -1.
         22    1    3    3    0    0 -0.12423947686E+02 -0.63727333872E+02 -0.13986799804E+03  0.15420306233E+03  0.00000000000E+00 0. -1.
</event>
<event>
 7    1  0.6058736E-006  0.5406508E+02  0.7818608E-02  0.1425244E+00
          2   -1    0    0  502    0  0.00000000000E+00  0.00000000000E+00  0.11398046824E+04  0.11398046824E+04  0.00000000000E+00 0. -1.
          1   -1    0    0  501    0 -0.00000000000E+00 -0.00000000000E+00 -0.10885133195E+03  0.10885133195E+03  0.00000000000E+00 0. -1.
         25    2    1    2    0    0 -0.40919580732E+02 -0.45953717117E+01  0.41157792601E+03  0.43210793689E+03  0.12500140165E+03 0.  0.
          2    1    1    2  501    0  0.16111611845E+02  0.52321344619E+02 -0.89888463237E+02  0.10524753186E+03  0.00000000000E+00 0. -1.
          1    1    1    2  502    0  0.24807968887E+02 -0.47725972907E+02  0.70926388768E+03  0.71130054560E+03  0.00000000000E+00 0. -1.
         22    1    3    3    0    0 -0.64229173096E+02 -0.35783965533E+02  0.14372358094E+03  0.16143836776E+03  0.00000000000E+00 0. -1.
         22    1    3    3    0    0  0.23309592364E+02  0.31188593821E+02  0.26785434507E+03  0.27066956913E+03  0.00000000000E+00 0. -1.
</event>
<event>
 7    1  0.6058736E-006  0.1396661E+03  0.7818608E-02  0.1414766E+00
          2   -1    0    0  502    0  0.00000000000E+00  0.00000000000E+00  0.14287513356E+04  0.14287513356E+04  0.00000000000E+00 0. -1.
          1   -1    0    0  501    0 -0.00000000000E+00 -0.00000000000E+00 -0.11164927425E+04  0.11164927425E+04  0.00000000000E+00 0. -1.
         25    2    1    2    0    0  0.73400175290E+02  0.11592992455E+03  0.10732069648E+04  0.10891393574E+04  0.12499606944E+03 0.  0.
          2    1    1    2  501    0 -0.54680088044E+02 -0.12853611339E+03 -0.11037537010E+04  0.11125572691E+04  0.00000000000E+00 0. -1.
          1    1    1    2  502    0 -0.18720087246E+02  0.12606188843E+02  0.34280532930E+03  0.34354745154E+03  0.00000000000E+00 0. -1.
         22    1    3    3    0    0  0.59093165750E+02 -0.66861941427E+01  0.44108261587E+03  0.44507368092E+03  0.00000000000E+00 0. -1.
         22    1    3    3    0    0  0.14307009539E+02  0.12261611869E+03  0.63212434897E+03  0.64406567650E+03  0.00000000000E+00 0. -1.
</event>
<event>
 7    1  0.1001341E-005  0.8452876E+02  0.7818608E-02  0.1337250E+00
          2   -1    0    0  502    0  0.00000000000E+00  0.00000000000E+00  0.62930709904E+03  0.62930709904E+03  0.00000000000E+00 0. -1.
          1   -1    0    0  501    0 -0.00000000000E+00 -0.00000000000E+00 -0.18878407014E+04  0.18878407014E+04  0.00000000000E+00 0. -1.
         25    2    1    2    0    0  0.47204629829E+02  0.63343903948E+02 -0.98114886653E+03  0.99222964201E+03  0.12500334771E+03 0.  0.
          2    1    1    2  501    0  0.37349103752E+02 -0.59758908567E+02 -0.89689241662E+03  0.89965665100E+03  0.00000000000E+00 0. -1.
          1    1    1    2  502    0 -0.84553733581E+02 -0.35849953809E+01  0.61950768082E+03  0.62526150741E+03  0.00000000000E+00 0. -1.
         22    1    3    3    0    0  0.77596879640E+02  0.39749505455E+00 -0.55136158775E+03  0.55679532522E+03  0.00000000000E+00 0. -1.
         22    1    3    3    0    0 -0.30392249811E+02  0.62946408893E+02 -0.42978727878E+03  0.43543431679E+03  0.00000000000E+00 0. -1.
</event>
<event>
 7    1  0.6058736E-006  0.6483148E+02  0.7818608E-02  0.1434549E+00
          2   -1    0    0  502    0  0.00000000000E+00  0.00000000000E+00  0.52008625020E+03  0.52008625020E+03  0.00000000000E+00 0. -1.
          1   -1    0    0  501    0 -0.00000000000E+00 -0.00000000000E+00 -0.96064311167E+03  0.96064311167E+03  0.00000000000E+00 0. -1.
         25    2    1    2    0    0  0.53708083450E+02  0.39545217080E-01  0.70968623875E+02  0.15345126311E+03  0.12500473904E+03 0.  0.
          2    1    1    2  501    0 -0.22202047878E+01  0.41741649111E+02 -0.91622726953E+03  0.91718030071E+03  0.00000000000E+00 0. -1.
          1    1    1    2  502    0 -0.51487878662E+02 -0.41781194328E+02  0.40470178419E+03  0.41009779806E+03  0.00000000000E+00 0. -1.
         22    1    3    3    0    0 -0.12178747555E+02 -0.50295531252E+02  0.38093217070E+02  0.64257727493E+02  0.00000000000E+00 0. -1.
         22    1    3    3    0    0  0.65886831005E+02  0.50335076469E+02  0.32875406805E+02  0.89193535616E+02  0.00000000000E+00 0. -1.
</event>
<event>
 7    1  0.6058736E-006  0.1362269E+03  0.7818608E-02  0.1387591E+00
          2   -1    0    0  502    0  0.00000000000E+00  0.00000000000E+00  0.72260263470E+03  0.72260263470E+03  0.00000000000E+00 0. -1.
          1   -1    0    0  501    0 -0.00000000000E+00 -0.00000000000E+00 -0.13133256841E+04  0.13133256841E+04  0.00000000000E+00 0. -1.
         25    2    1    2    0    0 -0.39993049210E+02 -0.10883326753E+03 -0.41146156898E+03  0.44538703933E+03  0.12499947180E+03 0.  0.
          2    1    1    2  501    0  0.40053495362E+02  0.13751684441E+03 -0.87880965801E+03  0.89040528975E+03  0.00000000000E+00 0. -1.
          1    1    1    2  502    0 -0.60446152136E-01 -0.28683576878E+02  0.69954817763E+03  0.70013598969E+03  0.00000000000E+00 0. -1.
         22    1    3    3    0    0 -0.21802042834E+02 -0.92192005174E+01 -0.21873589306E+01  0.23771984962E+02  0.00000000000E+00 0.  1.
         22    1    3    3    0    0 -0.18191006376E+02 -0.99614067010E+02 -0.40927421005E+03  0.42161505437E+03  0.00000000000E+00 0.  1.
</event>
<event>
 7    1  0.6058736E-006  0.6949045E+02  0.7818608E-02  0.1437187E+00
          2   -1    0    0  502    0  0.00000000000E+00  0.00000000000E+00  0.82215563267E+02  0.82215563267E+02  0.00000000000E+00 0. -1.
          1   -1    0    0  501    0 -0.00000000000E+00 -0.00000000000E+00 -0.44114968622E+03  0.44114968622E+03  0.00000000000E+00 0. -1.
         25    2    1    2    0    0  0.10505379956E+02 -0.83001891545E+02 -0.15815582567E+03  0.21826296698E+03  0.12500312217E+03 0.  0.
          2    1    1    2  501    0 -0.33578006402E+02  0.18282071079E+02 -0.22800995836E+03  0.23119311787E+03  0.00000000000E+00 0. -1.
          1    1    1    2  502    0  0.23072626446E+02  0.64719820466E+02  0.27231661080E+02  0.73909164638E+02  0.00000000000E+00 0. -1.
         22    1    3    3    0    0  0.68684139262E+01  0.28481076527E+02 -0.65088816186E+01  0.30011870483E+02  0.00000000000E+00 0. -1.
         22    1    3    3    0    0  0.36369660294E+01 -0.11148296807E+03 -0.15164694405E+03  0.18825109649E+03  0.00000000000E+00 0. -1.
</event>
<event>
 7    1  0.6058736E-006  0.9225688E+02  0.7818608E-02  0.1350026E+00
          2   -1    0    0  502    0  0.00000000000E+00  0.00000000000E+00  0.24100953776E+02  0.24100953776E+02  0.00000000000E+00 0. -1.
          1   -1    0    0  501    0 -0.00000000000E+00 -0.00000000000E+00 -0.27502603017E+04  0.27502603017E+04  0.00000000000E+00 0. -1.
         25    2    1    2    0    0 -0.15573405993E+01 -0.66434354532E+02 -0.96419237270E+03  0.97452984627E+03  0.12500216369E+03 0.  0.
          2    1    1    2  501    0  0.56164714478E+02  0.85493067972E+02 -0.17313889826E+04  0.17344080688E+04  0.00000000000E+00 0. -1.
          1    1    1    2  502    0 -0.54607373878E+02 -0.19058713440E+02 -0.30577992544E+02  0.65423340391E+02  0.00000000000E+00 0. -1.
         22    1    3    3    0    0 -0.55751786022E+02 -0.22605006351E+01 -0.31190806305E+03  0.31685960819E+03  0.00000000000E+00 0.  1.
         22    1    3    3    0    0  0.54194445422E+02 -0.64173853897E+02 -0.65228430965E+03  0.65767023807E+03  0.00000000000E+00 0.  1.
</event>
<event>
 7    1  0.6058736E-006  0.9489357E+02  0.7818608E-02  0.1324938E+00
          2   -1    0    0  502    0  0.00000000000E+00  0.00000000000E+00  0.86985334811E+02  0.86985334811E+02  0.00000000000E+00 0. -1.
          1   -1    0    0  501    0 -0.00000000000E+00 -0.00000000000E+00 -0.15495968050E+04  0.15495968050E+04  0.00000000000E+00 0. -1.
         25    2    1    2    0    0  0.71084395919E+02 -0.12394783935E+03 -0.34619193637E+03  0.39482870895E+03  0.12499917754E+03 0.  0.
          2    1    1    2  501    0  0.27189921494E+01  0.69887770456E+02 -0.11440511419E+04  0.11461870304E+04  0.00000000000E+00 0. -1.
          1    1    1    2  502    0 -0.73803388069E+02  0.54060068893E+02  0.27631608046E+02  0.95566400488E+02  0.00000000000E+00 0. -1.
         22    1    3    3    0    0  0.27538208204E+02 -0.10065403645E+02 -0.16684557603E+01  0.29367482123E+02  0.00000000000E+00 0. -1.
         22    1    3    3    0    0  0.43546187715E+02 -0.11388243570E+03 -0.34452348061E+03  0.36546122683E+03  0.00000000000E+00 0. -1.
</event>
<event>
 7    1  0.6058736E-006  0.3244760E+02  0.7818608E-02  0.1628945E+00
          2   -1    0    0  502    0  0.00000000000E+00  0.00000000000E+00  0.25703479549E+03  0.25703479549E+03  0.00000000000E+00 0. -1.
          1   -1    0    0  501    0 -0.00000000000E+00 -0.00000000000E+00 -0.15551051229E+03  0.15551051229E+03  0.00000000000E+00 0. -1.
         25    2    1    2    0    0  0.85395886954E+01  0.54378362130E+02  0.21878988417E+03  0.25790257304E+03  0.12495916502E+03 0.  0.
          2    1    1    2  501    0 -0.20759514258E+01 -0.32189893168E+02 -0.12590389686E+03  0.12997034293E+03  0.00000000000E+00 0. -1.
          1    1    1    2  502    0 -0.64636372696E+01 -0.22188468962E+02  0.86382958981E+01  0.24672391811E+02  0.00000000000E+00 0. -1.
         22    1    3    3    0    0 -0.14666285430E+02  0.26273179581E+02 -0.55706688482E+01  0.30600853664E+02  0.00000000000E+00 0.  1.
         22    1    3    3    0    0  0.23205874125E+02  0.28105182549E+02  0.22436055302E+03  0.22730171937E+03  0.00000000000E+00 0.  1.
</event>
<event>
 7    1  0.6058736E-006  0.5771374E+02  0.7818608E-02  0.1531081E+00
          2   -1    0    0  502    0  0.00000000000E+00  0.00000000000E+00  0.64977641409E+03  0.64977641409E+03  0.00000000000E+00 0. -1.
          1   -1    0    0  501    0 -0.00000000000E+00 -0.00000000000E+00 -0.72660106385E+02  0.72660106385E+02  0.00000000000E+00 0. -1.
         25    2    1    2    0    0 -0.34130855996E+02  0.72303736567E+02  0.16048781651E+03  0.21858896576E+03  0.12502820102E+03 0.  0.
          2    1    1    2  501    0  0.76259164399E+01 -0.22534601849E+02 -0.38490360188E+02  0.45248985728E+02  0.00000000000E+00 0. -1.
          1    1    1    2  502    0  0.26504939556E+02 -0.49769134719E+02  0.45511885139E+03  0.45859856899E+03  0.00000000000E+00 0. -1.
         22    1    3    3    0    0  0.28200047579E+02  0.75245181217E+02  0.11923684150E+03  0.14378631490E+03  0.00000000000E+00 0. -1.
         22    1    3    3    0    0 -0.62330903575E+02 -0.29414446499E+01  0.41250975004E+02  0.74802650862E+02  0.00000000000E+00 0. -1.
</event>
<event>
 7    1  0.6058736E-006  0.4887953E+02  0.7818608E-02  0.1557337E+00
          2   -1    0    0  502    0  0.00000000000E+00  0.00000000000E+00  0.23523884903E+02  0.23523884903E+02  0.00000000000E+00 0. -1.
          1   -1    0    0  501    0 -0.00000000000E+00 -0.00000000000E+00 -0.11898866445E+04  0.11898866445E+04  0.00000000000E+00 0. -1.
         25    2    1    2    0    0 -0.46877806194E+00 -0.57148601633E+02 -0.34480880738E+03  0.37119250940E+03  0.12499833188E+03 0.  0.
          2    1    1    2  501    0  0.20339564551E+02  0.44233146006E+02 -0.81654506347E+03  0.81799517710E+03  0.00000000000E+00 0. -1.
          1    1    1    2  502    0 -0.19870786490E+02  0.12915455627E+02 -0.50088887120E+01  0.24222842853E+02  0.00000000000E+00 0. -1.
         22    1    3    3    0    0  0.31470503785E+02  0.17647178473E+02 -0.32810930544E+02  0.48768562412E+02  0.00000000000E+00 0.  1.
         22    1    3    3    0    0 -0.31939281847E+02 -0.74795780106E+02 -0.31199787683E+03  0.32242394699E+03  0.00000000000E+00 0.  1.
</event>
<event>
 7    1  0.6058736E-006  0.4889978E+02  0.7818608E-02  0.1453648E+00
          2   -1    0    0  502    0  0.00000000000E+00  0.00000000000E+00  0.59621041751E+03  0.59621041751E+03  0.00000000000E+00 0. -1.
          1   -1    0    0  501    0 -0.00000000000E+00 -0.00000000000E+00 -0.20570997335E+03  0.20570997335E+03  0.00000000000E+00 0. -1.
         25    2    1    2    0    0  0.20510212107E+01  0.26852152262E+02  0.27732097330E+02  0.13083793180E+03  0.12499700159E+03 0.  0.
          2    1    1    2  501    0  0.46053088346E+02 -0.13840483642E+02 -0.14916739938E+03  0.15672702055E+03  0.00000000000E+00 0. -1.
          1    1    1    2  502    0 -0.48104109556E+02 -0.13011668620E+02  0.51193574620E+03  0.51435543850E+03  0.00000000000E+00 0. -1.
         22    1    3    3    0    0  0.32914516667E+02 -0.17258231895E+02  0.58143547011E+02  0.69006405750E+02  0.00000000000E+00 0. -1.
         22    1    3    3    0    0 -0.30863495456E+02  0.44110384157E+02 -0.30411449682E+02  0.61831526052E+02  0.00000000000E+00 0. -1.
</event>
<event>
 7    1  0.6058736E-006  0.1044567E+03  0.7818608E-02  0.1428603E+00
          2   -1    0    0  502    0  0.00000000000E+00  0.00000000000E+00  0.53247868077E+03  0.53247868077E+03  0.00000000000E+00 0. -1.
          1   -1    0    0  501    0 -0.00000000000E+00 -0.00000000000E+00 -0.85009127456E+03  0.85009127456E+03  0.00000000000E+00 0. -1.
         25    2    1    2    0    0  0.36481994895E+02  0.96926849651E+02 -0.18532648731E+02  0.16338910963E+03  0.12500716756E+03 0.  0.
          2    1    1    2  501    0  0.24460241747E+02 -0.11752287855E+02 -0.75292220976E+03  0.75341109206E+03  0.00000000000E+00 0. -1.
          1    1    1    2  502    0 -0.60942236641E+02 -0.85174561795E+02  0.45384226469E+03  0.46576975364E+03  0.00000000000E+00 0. -1.
         22    1    3    3    0    0  0.43926564603E+02 -0.16952014426E+02 -0.14224524706E+02  0.49185881857E+02  0.00000000000E+00 0. -1.
         22    1    3    3    0    0 -0.74445697081E+01  0.11387886408E+03 -0.43081240253E+01  0.11420322777E+03  0.00000000000E+00 0. -1.
</event>
<event>
 7    1  0.6058736E-006  0.3565675E+02  0.7818608E-02  0.1599877E+00
          2   -1    0    0  502    0  0.00000000000E+00  0.00000000000E+00  0.97021561662E+02  0.97021561662E+02  0.00000000000E+00 0. -1.
          1   -1    0    0  501    0 -0.00000000000E+00 -0.00000000000E+00 -0.13355875488E+04  0.13355875488E+04  0.00000000000E+00 0. -1.
         25    2    1    2    0    0 -0.40607284527E+02 -0.41727355605E+02 -0.56282731083E+03  0.57947382686E+03  0.12500084174E+03 0.  0.
          2    1    1    2  501    0  0.10693581076E+02  0.22564476846E+02 -0.76066674856E+03  0.76107648148E+03  0.00000000000E+00 0. -1.
          1    1    1    2  502    0  0.29913703451E+02  0.19162878759E+02  0.84928072297E+02  0.92058802081E+02  0.00000000000E+00 0. -1.
         22    1    3    3    0    0  0.14885229151E+02  0.33509100146E+02 -0.25917780126E+03  0.26175859586E+03  0.00000000000E+00 0. -1.
         22    1    3    3    0    0 -0.55492513679E+02 -0.75236455751E+02 -0.30364950957E+03  0.31771523100E+03  0.00000000000E+00 0. -1.
</event>
<event>
 7    1  0.6058736E-006  0.5236651E+02  0.7818608E-02  0.1486394E+00
          2   -1    0    0  502    0  0.00000000000E+00  0.00000000000E+00  0.10989579245E+03  0.10989579245E+03  0.00000000000E+00 0. -1.
          1   -1    0    0  501    0 -0.00000000000E+00 -0.00000000000E+00 -0.42141281645E+03  0.42141281645E+03  0.00000000000E+00 0. -1.
         25    2    1    2    0    0 -0.64645986703E+02 -0.56734405949E+02 -0.82047996799E+02  0.17249426960E+03  0.12499801139E+03 0.  0.
          2    1    1    2  501    0  0.36038800528E+02  0.35687275583E+02 -0.28686755027E+03  0.29131661158E+03  0.00000000000E+00 0. -1.
          1    1    1    2  502    0  0.28607186175E+02  0.21047130366E+02  0.57398523069E+02  0.67497727725E+02  0.00000000000E+00 0. -1.
         22    1    3    3    0    0 -0.43452520181E+02  0.26640849880E+02  0.36070486077E+01  0.51096645605E+02  0.00000000000E+00 0.  1.
         22    1    3    3    0    0 -0.21193466522E+02 -0.83375255829E+02 -0.85655045407E+02  0.12139762399E+03  0.00000000000E+00 0.  1.
</event>
<event>
 7    1  0.6058736E-006  0.8988134E+02  0.7818608E-02  0.1348662E+00
          2   -1    0    0  502    0  0.00000000000E+00  0.00000000000E+00  0.10070080975E+04  0.10070080975E+04  0.00000000000E+00 0. -1.
          1   -1    0    0  501    0 -0.00000000000E+00 -0.00000000000E+00 -0.82437708175E+03  0.82437708175E+03  0.00000000000E+00 0. -1.
         25    2    1    2    0    0 -0.14290225835E+03 -0.40148846317E+01  0.37750594101E+03  0.42257788129E+03  0.12499662204E+03 0.  0.
          2    1    1    2  501    0  0.59999358638E+02 -0.27485544930E+01 -0.79785735606E+03  0.80011489063E+03  0.00000000000E+00 0. -1.
          1    1    1    2  502    0  0.82902899714E+02  0.67634391248E+01  0.60298243077E+03  0.60869240730E+03  0.00000000000E+00 0. -1.
         22    1    3    3    0    0 -0.12336546494E+03 -0.45657728010E+02  0.20131502558E+03  0.24048161175E+03  0.00000000000E+00 0.  1.
         22    1    3    3    0    0 -0.19536793414E+02  0.41642843378E+02  0.17619091543E+03  0.18209626954E+03  0.00000000000E+00 0.  1.
</event>
<event>
 7    1  0.6058736E-006  0.8987944E+02  0.7818608E-02  0.1358191E+00
          2   -1    0    0  502    0  0.00000000000E+00  0.00000000000E+00  0.60943941644E+03  0.60943941644E+03  0.00000000000E+00 0. -1.
          1   -1    0    0  501    0 -0.00000000000E+00 -0.00000000000E+00 -0.49193682261E+03  0.49193682261E+03  0.00000000000E+00 0. -1.
         25    2    1    2    0    0  0.60119490916E+02 -0.19414823096E+02  0.32610631152E+03  0.35491021308E+03  0.12499857757E+03 0.  0.
          2    1    1    2  501    0 -0.51655710459E+02  0.74161527574E+02 -0.47033330510E+03  0.47893805704E+03  0.00000000000E+00 0. -1.
          1    1    1    2  502    0 -0.84637804565E+01 -0.54746704478E+02  0.26172958742E+03  0.26752796893E+03  0.00000000000E+00 0. -1.
         22    1    3    3    0    0  0.56219569070E+02  0.47034706720E+02  0.18018481049E+03  0.19452369911E+03  0.00000000000E+00 0. -1.
         22    1    3    3    0    0  0.38999218460E+01 -0.66449529815E+02  0.14592150103E+03  0.16038651398E+03  0.00000000000E+00 0. -1.
</event>
<event>
 7    1  0.6058736E-006  0.1029132E+03  0.7818608E-02  0.1289407E+00
          2   -1    0    0  502    0  0.00000000000E+00  0.00000000000E+00  0.31884683512E+03  0.31884683512E+03  0.00000000000E+00 0. -1.
          1   -1    0    0  501    0 -0.00000000000E+00 -0.00000000000E+00 -0.11899060766E+04  0.11899060766E+04  0.00000000000E+00 0. -1.
         25    2    1    2    0    0  0.10362344040E+03  0.47845479504E+02 -0.39084657814E+03  0.42592582369E+03  0.12499900933E+03 0.  0.
          2    1    1    2  501    0 -0.73108589880E+02  0.51034343937E+02 -0.76998601874E+03  0.77513085297E+03  0.00000000000E+00 0. -1.
          1    1    1    2  502    0 -0.30514850518E+02 -0.98879823441E+02  0.28977335539E+03  0.30769623508E+03  0.00000000000E+00 0. -1.
         22    1    3    3    0    0  0.76009108408E+01  0.58915297165E+02 -0.23621227308E+03  0.24356728853E+03  0.00000000000E+00 0.  1.
         22    1    3    3    0    0  0.96022529558E+02 -0.11069817660E+02 -0.15463430506E+03  0.18235853516E+03  0.00000000000E+00 0.  1.
</event>
<event>
 7    1  0.6058736E-006  0.7719886E+02  0.7818608E-02  0.1366071E+00
          2   -1    0    0  502    0  0.00000000000E+00  0.00000000000E+00  0.18757643469E+04  0.18757643469E+04  0.00000000000E+00 0. -1.
          1   -1    0    0  501    0 -0.00000000000E+00 -0.00000000000E+00 -0.86675594484E+03  0.86675594484E+03  0.00000000000E+00 0. -1.
         25    2    1    2    0    0  0.67367981660E+02  0.11362859567E+03  0.31764573837E+02  0.18462696730E+03  0.12501290412E+03 0.  0.
          2    1    1    2  501    0 -0.22878682626E+02 -0.72811415375E+02 -0.78796484201E+03  0.79165240389E+03  0.00000000000E+00 0. -1.
          1    1    1    2  502    0 -0.44489299034E+02 -0.40817180292E+02  0.17652086702E+04  0.17662409205E+04  0.00000000000E+00 0. -1.
         22    1    3    3    0    0  0.15766069908E+02  0.74455966955E+02  0.74910299079E+02  0.10678863649E+03  0.00000000000E+00 0. -1.
         22    1    3    3    0    0  0.51601911752E+02  0.39172628712E+02 -0.43145725242E+02  0.77838330810E+02  0.00000000000E+00 0. -1.
</event>
<event>
 7    1  0.1240942E-005  0.7555298E+02  0.7818608E-02  0.1348702E+00
          2   -1    0    0  502    0  0.00000000000E+00  0.00000000000E+00  0.13000006875E+04  0.13000006875E+04  0.00000000000E+00 0. -1.
          1   -1    0    0  501    0 -0.00000000000E+00 -0.00000000000E+00 -0.10064227996E+04  0.10064227996E+04  0.00000000000E+00 0. -1.
         25    2    1    2    0    0 -0.78689277173E+02 -0.15393022466E+02 -0.15922893892E+03  0.21773284385E+03  0.12499915528E+03 0.  0.
          2    1    1    2  501    0  0.32629681343E+02  0.69986981483E+02 -0.81511196239E+03  0.81876149452E+03  0.00000000000E+00 0. -1.
          1    1    1    2  502    0  0.46059595831E+02 -0.54593959017E+02  0.12679187892E+04  0.12699291488E+04  0.00000000000E+00 0. -1.
         22    1    3    3    0    0 -0.10854016464E+03 -0.31980320561E+02 -0.10992292025E+03  0.15775536961E+03  0.00000000000E+00 0.  1.
         22    1    3    3    0    0  0.29850887463E+02  0.16587298094E+02 -0.49306018667E+02  0.59977474248E+02  0.00000000000E+00 0.  1.
</event>
<event>
 7    1  0.6058736E-006  0.7695605E+02  0.7818608E-02  0.1449351E+00
          2   -1    0    0  502    0  0.00000000000E+00  0.00000000000E+00  0.90834978336E+03  0.90834978336E+03  0.00000000000E+00 0. -1.
          1   -1    0    0  501    0 -0.00000000000E+00 -0.00000000000E+00 -0.19819246764E+03  0.19819246764E+03  0.00000000000E+00 0. -1.
         25    2    1    2    0    0 -0.31802917248E+02 -0.37565134549E+02  0.59754735179E+02  0.14703599164E+03  0.12500555821E+03 0.  0.
          2    1    1    2  501    0  0.58761240117E+02  0.53930884044E+02 -0.14392794669E+03  0.16454992383E+03  0.00000000000E+00 0. -1.
          1    1    1    2  502    0 -0.26958322869E+02 -0.16365749494E+02  0.79433052723E+03  0.79495633554E+03  0.00000000000E+00 0. -1.
         22    1    3    3    0    0  0.39708624846E+02 -0.47508903664E+02  0.23320787037E+02  0.66164415833E+02  0.00000000000E+00 0.  1.
         22    1    3    3    0    0 -0.71511542094E+02  0.99437691142E+01  0.36433948142E+02  0.80871575810E+02  0.00000000000E+00 0.  1.
</event>
<event>
 7    1  0.6058736E-006  0.1330571E+03  0.7818608E-02  0.1392920E+00
          2   -1    0    0  502    0  0.00000000000E+00  0.00000000000E+00  0.79543987197E+03  0.79543987197E+03  0.00000000000E+00 0. -1.
          1   -1    0    0  501    0 -0.00000000000E+00 -0.00000000000E+00 -0.74165314961E+02  0.74165314961E+02  0.00000000000E+00 0. -1.
         25    2    1    2    0    0  0.27509474609E+02  0.11527059300E+03  0.38766933725E+03  0.42421363483E+03  0.12500244846E+03 0.  0.
          2    1    1    2  501    0  0.18513669957E+02  0.21187440987E+02 -0.37754906938E+02  0.47086055566E+02  0.00000000000E+00 0. -1.
          1    1    1    2  502    0 -0.46023144566E+02 -0.13645803399E+03  0.37136012670E+03  0.39830549654E+03  0.00000000000E+00 0. -1.
         22    1    3    3    0    0 -0.42319018998E+02  0.23062640195E+02  0.61445635696E+02  0.78091938686E+02  0.00000000000E+00 0.  1.
         22    1    3    3    0    0  0.69828493607E+02  0.92207952808E+02  0.32622370156E+03  0.34612169614E+03  0.00000000000E+00 0.  1.
</event>
<event>
 7    1  0.6058736E-006  0.1067091E+03  0.7818608E-02  0.1462023E+00
          2   -1    0    0  502    0  0.00000000000E+00  0.00000000000E+00  0.24289979396E+04  0.24289979396E+04  0.00000000000E+00 0. -1.
          1   -1    0    0  501    0 -0.00000000000E+00 -0.00000000000E+00 -0.20916820954E+02  0.20916820954E+02  0.00000000000E+00 0. -1.
         25    2    1    2    0    0 -0.80696546006E+02  0.57301414051E+02  0.11841023787E+04  0.11947880122E+04  0.12499826480E+03 0.  0.
          2    1    1    2  501    0  0.97968779658E+02 -0.45834534817E+02  0.17356170578E+03  0.20450513950E+03  0.00000000000E+00 0. -1.
          1    1    1    2  502    0 -0.17272233652E+02 -0.11466879234E+02  0.10504170342E+04  0.10506216089E+04  0.00000000000E+00 0. -1.
         22    1    3    3    0    0 -0.25281129661E+02  0.21913585278E+02  0.97539448802E+03  0.97596810808E+03  0.00000000000E+00 0.  1.
         22    1    3    3    0    0 -0.55415416345E+02  0.35387828773E+02  0.20870789067E+03  0.21881990408E+03  0.00000000000E+00 0.  1.
</event>
<event>
 7    1  0.6058736E-006  0.6989109E+02  0.7818608E-02  0.1416503E+00
          2   -1    0    0  502    0  0.00000000000E+00  0.00000000000E+00  0.23107955361E+03  0.23107955361E+03  0.00000000000E+00 0. -1.
          1   -1    0    0  501    0 -0.00000000000E+00 -0.00000000000E+00 -0.11335585176E+04  0.11335585176E+04  0.00000000000E+00 0. -1.
         25    2    1    2    0    0  0.10684290238E+02  0.28710126088E+02 -0.56785551678E+02  0.14067004952E+03  0.12500015422E+03 0.  0.
          2    1    1    2  501    0 -0.68514338118E+01  0.43967739585E+02 -0.10273299981E+04  0.10282932604E+04  0.00000000000E+00 0. -1.
          1    1    1    2  502    0 -0.38328564261E+01 -0.72677865673E+02  0.18163658577E+03  0.19567476137E+03  0.00000000000E+00 0. -1.
         22    1    3    3    0    0  0.18776148107E+02 -0.44228074890E+02 -0.45959408627E+02  0.66490101425E+02  0.00000000000E+00 0. -1.
         22    1    3    3    0    0 -0.80918578689E+01  0.72938200979E+02 -0.10826143051E+02  0.74179948093E+02  0.00000000000E+00 0. -1.
</event>
<event>
 7    1  0.6058736E-006  0.1257908E+03  0.7818608E-02  0.1280743E+00
          2   -1    0    0  502    0  0.00000000000E+00  0.00000000000E+00  0.15303053097E+04  0.15303053097E+04  0.00000000000E+00 0. -1.
          1   -1    0    0  501    0 -0.00000000000E+00 -0.00000000000E+00 -0.44774021366E+03  0.44774021366E+03  0.00000000000E+00 0. -1.
         25    2    1    2    0    0  0.27543472122E+02 -0.95114804909E+02 -0.39742807994E+02  0.16434726645E+03  0.12500025693E+03 0.  0.
          2    1    1    2  501    0 -0.10585960445E+03  0.83590256114E+02 -0.33142000119E+03  0.35781671839E+03  0.00000000000E+00 0. -1.
          1    1    1    2  502    0  0.78316132330E+02  0.11524548794E+02  0.14537279052E+04  0.14558815385E+04  0.00000000000E+00 0. -1.
         22    1    3    3    0    0 -0.35790735067E+02 -0.63290280650E+01 -0.41638921744E+02  0.55270544750E+02  0.00000000000E+00 0.  1.
         22    1    3    3    0    0  0.63334207189E+02 -0.88785776844E+02  0.18961137505E+01  0.10907672170E+03  0.00000000000E+00 0.  1.
</event>
<event>
 7    1  0.6058736E-006  0.4084397E+02  0.7818608E-02  0.1508339E+00
          2   -1    0    0  502    0  0.00000000000E+00  0.00000000000E+00  0.73610745098E+01  0.73610745098E+01  0.00000000000E+00 0. -1.
          1   -1    0    0  501    0 -0.00000000000E+00 -0.00000000000E+00 -0.29990675388E+04  0.29990675388E+04  0.00000000000E+00 0. -1.
         25    2    1    2    0    0 -0.35027521539E+02 -0.24414729993E+02 -0.14382792740E+04  0.14443304699E+04  0.12498091794E+03 0.  0.
          2    1    1    2  501    0  0.23865833165E+00  0.42348744474E+02 -0.14624005737E+04  0.14630136401E+04  0.00000000000E+00 0. -1.
          1    1    1    2  502    0  0.34788863207E+02 -0.17934014481E+02 -0.91026616588E+02  0.99084503360E+02  0.00000000000E+00 0. -1.
         22    1    3    3    0    0 -0.30704649511E+02 -0.65694476031E+02 -0.12191691056E+04  0.12213238095E+04  0.00000000000E+00 0.  1.
         22    1    3    3    0    0 -0.43228720277E+01  0.41279746038E+02 -0.21911016846E+03  0.22300666039E+03  0.00000000000E+00 0.  1.
</event>
<event>
 7    1  0.6058736E-006  0.1965751E+03  0.7818608E-02  0.1191147E+00
          2   -1    0    0  502    0  0.00000000000E+00  0.00000000000E+00  0.18986612201E+03  0.18986612201E+03  0.00000000000E+00 0. -1.
          1   -1    0    0  501    0 -0.00000000000E+00 -0.00000000000E+00 -0.18389778213E+04  0.18389778213E+04  0.00000000000E+00 0. -1.
         25    2    1    2    0    0  0.24678543329E+02 -0.19228373733E+03 -0.54391447619E+03  0.59080457984E+03  0.12500011200E+03 0.  0.
          2    1    1    2  501    0  0.10164033229E+03  0.18180782216E+03 -0.12374477551E+04  0.12548552857E+04  0.00000000000E+00 0. -1.
          1    1    1    2  502    0 -0.12631887562E+03  0.10475915166E+02  0.13225053202E+03  0.18318407779E+03  0.00000000000E+00 0. -1.
         22    1    3    3    0    0 -0.35275422784E+02 -0.12095625807E+03 -0.21757280183E+03  0.25142135135E+03  0.00000000000E+00 0.  1.
         22    1    3    3    0    0  0.59953966113E+02 -0.71327479255E+02 -0.32634167436E+03  0.33938322848E+03  0.00000000000E+00 0.  1.
</event>
<event>
 7    1  0.6058736E-006  0.4992697E+02  0.7818608E-02  0.1574278E+00
          2   -1    0    0  502    0  0.00000000000E+00  0.00000000000E+00  0.13938703468E+04  0.13938703468E+04  0.00000000000E+00 0. -1.
          1   -1    0    0  501    0 -0.00000000000E+00 -0.00000000000E+00 -0.23183360485E+03  0.23183360485E+03  0.00000000000E+00 0. -1.
         25    2    1    2    0    0  0.18907071392E+02  0.37558935446E+02  0.17656334651E+03  0.22038198730E+03  0.12500181605E+03 0.  0.
          2    1    1    2  501    0  0.20018262374E+02 -0.58543114214E+01 -0.20887760475E+03  0.20991631084E+03  0.00000000000E+00 0. -1.
          1    1    1    2  502    0 -0.38925333766E+02 -0.31704624025E+02  0.11943510002E+04  0.11954056535E+04  0.00000000000E+00 0. -1.
         22    1    3    3    0    0  0.17916590929E+02  0.82700124383E+02  0.13302684416E+03  0.15765930379E+03  0.00000000000E+00 0. -1.
         22    1    3    3    0    0  0.99048046353E+00 -0.45141188937E+02  0.43536502347E+02  0.62722683510E+02  0.00000000000E+00 0. -1.
</event>
<event>
 7    1  0.6058736E-006  0.5861929E+02  0.7818608E-02  0.1483957E+00
          2   -1    0    0  502    0  0.00000000000E+00  0.00000000000E+00  0.52995222653E+03  0.52995222653E+03  0.00000000000E+00 0. -1.
          1   -1    0    0  501    0 -0.00000000000E+00 -0.00000000000E+00 -0.42141658468E+03  0.42141658468E+03  0.00000000000E+00 0. -1.
         25    2    1    2    0    0  0.21826239343E+02 -0.26591411894E+02 -0.29082063413E+02  0.13287318041E+03  0.12500411093E+03 0.  0.
          2    1    1    2  501    0  0.32195094652E+02  0.22563161258E+01 -0.33783112629E+03  0.33936924577E+03  0.00000000000E+00 0. -1.
          1    1    1    2  502    0 -0.54021333995E+02  0.24335095769E+02  0.47544883155E+03  0.47912638503E+03  0.00000000000E+00 0. -1.
         22    1    3    3    0    0  0.69225057392E+02  0.10969258684E+01 -0.35149633974E+02  0.77645402863E+02  0.00000000000E+00 0. -1.
         22    1    3    3    0    0 -0.47398818049E+02 -0.27688337763E+02  0.60675705604E+01  0.55227777549E+02  0.00000000000E+00 0. -1.
</event>
<event>
 7    1  0.6058736E-006  0.7188813E+02  0.7818608E-02  0.1442497E+00
          2   -1    0    0  502    0  0.00000000000E+00  0.00000000000E+00  0.15469564355E+03  0.15469564355E+03  0.00000000000E+00 0. -1.
          1   -1    0    0  501    0 -0.00000000000E+00 -0.00000000000E+00 -0.11242689229E+04  0.11242689229E+04  0.00000000000E+00 0. -1.
         25    2    1    2    0    0 -0.28758276953E+02  0.25222766762E+02 -0.16359157987E+03  0.20940112264E+03  0.12499359464E+03 0.  0.
          2    1    1    2  501    0 -0.25680285786E+02  0.24538291424E+02 -0.92708694511E+03  0.92776710904E+03  0.00000000000E+00 0. -1.
          1    1    1    2  502    0  0.54438562740E+02 -0.49761058186E+02  0.12110524565E+03  0.14179633475E+03  0.00000000000E+00 0. -1.
         22    1    3    3    0    0  0.41525077598E+02 -0.10257178668E+02 -0.97999331901E+02  0.10692712863E+03  0.00000000000E+00 0. -1.
         22    1    3    3    0    0 -0.70283354552E+02  0.35479945429E+02 -0.65592247970E+02  0.10247399401E+03  0.00000000000E+00 0. -1.
</event>
<event>
 7    1  0.6058736E-006  0.1223701E+03  0.7818608E-02  0.1318776E+00
          2   -1    0    0  502    0  0.00000000000E+00  0.00000000000E+00  0.11630024252E+04  0.11630024252E+04  0.00000000000E+00 0. -1.
          1   -1    0    0  501    0 -0.00000000000E+00 -0.00000000000E+00 -0.10210640183E+03  0.10210640183E+03  0.00000000000E+00 0. -1.
         25    2    1    2    0    0 -0.10343023040E+03  0.28556312918E+02  0.95946001573E+02  0.19064717362E+03  0.12500973572E+03 0.  0.
          2    1    1    2  501    0  0.13352638651E+03  0.20199910968E+02  0.30745023149E+02  0.13850122290E+03  0.00000000000E+00 0. -1.
          1    1    1    2  502    0 -0.30096156113E+02 -0.48756223886E+02  0.93420499864E+03  0.93596043050E+03  0.00000000000E+00 0. -1.
         22    1    3    3    0    0 -0.11883146029E+03 -0.11151944619E+02  0.54461141751E+02  0.13119183582E+03  0.00000000000E+00 0. -1.
         22    1    3    3    0    0  0.15401229896E+02  0.39708257537E+02  0.41484859823E+02  0.59455337804E+02  0.00000000000E+00 0. -1.
</event>
<event>
 7    1  0.6058736E-006  0.7858478E+02  0.7818608E-02  0.1507926E+00
          2   -1    0    0  502    0  0.00000000000E+00  0.00000000000E+00  0.15052563477E+04  0.15052563477E+04  0.00000000000E+00 0. -1.
          1   -1    0    0  501    0 -0.00000000000E+00 -0.00000000000E+00 -0.17143456316E+04  0.17143456316E+04  0.00000000000E+00 0. -1.
         25    2    1    2    0    0  0.27652778121E+02 -0.94211848768E+02  0.54309039622E+03  0.56587359937E+03  0.12500081363E+03 0.  0.
          2    1    1    2  501    0 -0.17327761718E+02  0.76618104302E+02 -0.17019385796E+04  0.17037504259E+04  0.00000000000E+00 0. -1.
          1    1    1    2  502    0 -0.10325016403E+02  0.17593744466E+02  0.94975889949E+03  0.94997795394E+03  0.00000000000E+00 0. -1.
         22    1    3    3    0    0  0.57276159956E+02 -0.11060296986E+03  0.44514463597E+03  0.46224162770E+03  0.00000000000E+00 0.  1.
         22    1    3    3    0    0 -0.29623381835E+02  0.16391121090E+02  0.97945760245E+02  0.10363197167E+03  0.00000000000E+00 0.  1.
</event>
<event>
 7    1  0.6058736E-006  0.2499930E+03  0.7818608E-02  0.1225281E+00
          2   -1    0    0  502    0  0.00000000000E+00  0.00000000000E+00  0.12752427889E+04  0.12752427889E+04  0.00000000000E+00 0. -1.
          1   -1    0    0  501    0 -0.00000000000E+00 -0.00000000000E+00 -0.60362403054E+03  0.60362403054E+03  0.00000000000E+00 0. -1.
         25    2    1    2    0    0 -0.14138218138E+03 -0.23974087936E+03  0.33254421835E+03  0.45130565571E+03  0.12500610895E+03 0.  0.
          2    1    1    2  501    0 -0.26901390077E+02  0.63698924378E+02 -0.52514759289E+03  0.52968031120E+03  0.00000000000E+00 0. -1.
          1    1    1    2  502    0  0.16828357145E+03  0.17604195498E+03  0.86422213287E+03  0.89788085250E+03  0.00000000000E+00 0. -1.
         22    1    3    3    0    0 -0.14575046609E+02 -0.74281176406E+01  0.92692198290E+02  0.94124664882E+02  0.00000000000E+00 0.  1.
         22    1    3    3    0    0 -0.12680713477E+03 -0.23231276172E+03  0.23985202006E+03  0.35718099083E+03  0.00000000000E+00 0.  1.
</event>
<event>
 7    1  0.6058736E-006  0.1410601E+03  0.7818608E-02  0.1330663E+00
          2   -1    0    0  502    0  0.00000000000E+00  0.00000000000E+00  0.95427701905E+03  0.95427701905E+03  0.00000000000E+00 0. -1.
          1   -1    0    0  501    0 -0.00000000000E+00 -0.00000000000E+00 -0.38089967711E+03  0.38089967711E+03  0.00000000000E+00 0. -1.
         25    2    1    2    0    0  0.18303092542E+02 -0.14714358394E+03 -0.63466067665E+01  0.19403923065E+03  0.12499882449E+03 0.  0.
          2    1    1    2  501    0 -0.43922482883E+02  0.84704300188E+01 -0.27309683699E+03  0.27673600247E+03  0.00000000000E+00 0. -1.
          1    1    1    2  502    0  0.25619390341E+02  0.13867315392E+03  0.85282078571E+03  0.86440146304E+03  0.00000000000E+00 0. -1.
         22    1    3    3    0    0  0.41697281760E+01 -0.16605632430E+03 -0.19102574830E+02  0.16720346240E+03  0.00000000000E+00 0.  1.
         22    1    3    3    0    0  0.14133364366E+02  0.18912740364E+02  0.12755968064E+02  0.26835768251E+02  0.00000000000E+00 0.  1.
</event>
<event>
 7    1  0.6058736E-006  0.8699086E+02  0.7818608E-02  0.1319697E+00
          2   -1    0    0  502    0  0.00000000000E+00  0.00000000000E+00  0.25219881755E+04  0.25219881755E+04  0.00000000000E+00 0. -1.
          1   -1    0    0  501    0 -0.00000000000E+00 -0.00000000000E+00 -0.77030444363E+03  0.77030444363E+03  0.00000000000E+00 0. -1.
         25    2    1    2    0    0  0.18798372785E+02  0.23271681529E+02  0.27471616959E+03  0.30329637345E+03  0.12499906531E+03 0.  0.
          2    1    1    2  501    0 -0.48734102879E+02  0.63365068086E+02 -0.75295703283E+03  0.75718850885E+03  0.00000000000E+00 0. -1.
          1    1    1    2  502    0  0.29935730094E+02 -0.86636749615E+02  0.22299245951E+04  0.22318077368E+04  0.00000000000E+00 0. -1.
         22    1    3    3    0    0 -0.47556940757E+02  0.13494634492E+01  0.17620788807E+03  0.18251767992E+03  0.00000000000E+00 0. -1.
         22    1    3    3    0    0  0.66355313542E+02  0.21922218079E+02  0.98508281521E+02  0.12077869352E+03  0.00000000000E+00 0. -1.
</event>
<event>
 7    1  0.6058736E-006  0.1293570E+03  0.7818608E-02  0.1352466E+00
          2   -1    0    0  502    0  0.00000000000E+00  0.00000000000E+00  0.19075317749E+04  0.19075317749E+04  0.00000000000E+00 0. -1.
          1   -1    0    0  501    0 -0.00000000000E+00 -0.00000000000E+00 -0.25203743958E+03  0.25203743958E+03  0.00000000000E+00 0. -1.
         25    2    1    2    0    0  0.13853068330E+03  0.96042511818E+02  0.67939421939E+03  0.71106602494E+03  0.12499388860E+03 0.  0.
          2    1    1    2  501    0 -0.10749198810E+03 -0.70179797739E+02 -0.21839230374E+03  0.25332771236E+03  0.00000000000E+00 0. -1.
          1    1    1    2  502    0 -0.31038695202E+02 -0.25862714079E+02  0.11944924197E+04  0.11951754772E+04  0.00000000000E+00 0. -1.
         22    1    3    3    0    0 -0.21538772233E+02  0.26302780119E+02  0.84635091573E+02  0.91207750092E+02  0.00000000000E+00 0. -1.
         22    1    3    3    0    0  0.16006945554E+03  0.69739731699E+02  0.59475912782E+03  0.61985827485E+03  0.00000000000E+00 0. -1.
</event>
<event>
 7    1  0.6058736E-006  0.4278123E+02  0.7818608E-02  0.1518675E+00
          2   -1    0    0  502    0  0.00000000000E+00  0.00000000000E+00  0.11129172054E+04  0.11129172054E+04  0.00000000000E+00 0. -1.
          1   -1    0    0  501    0 -0.00000000000E+00 -0.00000000000E+00 -0.52557109452E+02  0.52557109452E+02  0.00000000000E+00 0. -1.
         25    2    1    2    0    0  0.58105838641E+02 -0.39294288928E+02  0.10647310915E+03  0.17854997368E+03  0.12499296182E+03 0.  0.
          2    1    1    2  501    0 -0.36923545278E+02  0.11619871044E+02  0.69275086186E+01  0.39323783829E+02  0.00000000000E+00 0. -1.
          1    1    1    2  502    0 -0.21182293363E+02  0.27674417884E+02  0.94695947819E+03  0.94760055735E+03  0.00000000000E+00 0. -1.
         22    1    3    3    0    0 -0.39343361588E+00  0.41492016808E+02  0.45809078081E+02  0.61807878814E+02  0.00000000000E+00 0.  1.
         22    1    3    3    0    0  0.58499272257E+02 -0.80786305736E+02  0.60664031072E+02  0.11674209487E+03  0.00000000000E+00 0.  1.
</event>
<event>
 7    1  0.6058736E-006  0.9661015E+02  0.7818608E-02  0.1339211E+00
          2   -1    0    0  502    0  0.00000000000E+00  0.00000000000E+00  0.96220453961E+02  0.96220453961E+02  0.00000000000E+00 0. -1.
          1   -1    0    0  501    0 -0.00000000000E+00 -0.00000000000E+00 -0.12091549454E+04  0.12091549454E+04  0.00000000000E+00 0. -1.
         25    2    1    2    0    0 -0.38408285272E+02  0.26433592501E+02 -0.51946014688E+02  0.14317217183E+03  0.12500380456E+03 0.  0.
          2    1    1    2  501    0  0.49649751603E+02 -0.85998642138E+02 -0.10903412010E+04  0.10948537797E+04  0.00000000000E+00 0. -1.
          1    1    1    2  502    0 -0.11241466331E+02  0.59565049637E+02  0.29352724258E+02  0.67349447844E+02  0.00000000000E+00 0. -1.
         22    1    3    3    0    0 -0.81211920576E+02  0.25895325088E+02 -0.14842360259E+02  0.86523057985E+02  0.00000000000E+00 0.  1.
         22    1    3    3    0    0  0.42803635303E+02  0.53826741272E+00 -0.37103654429E+02  0.56649113841E+02  0.00000000000E+00 0.  1.
</event>
<event>
 7    1  0.6058736E-006  0.6949621E+02  0.7818608E-02  0.1390296E+00
          2   -1    0    0  502    0  0.00000000000E+00  0.00000000000E+00  0.92231506052E+03  0.92231506052E+03  0.00000000000E+00 0. -1.
          1   -1    0    0  501    0 -0.00000000000E+00 -0.00000000000E+00 -0.61171278078E+03  0.61171278078E+03  0.00000000000E+00 0. -1.
         25    2    1    2    0    0 -0.53291591444E+02  0.10267689478E+03  0.14549852176E+02  0.17093236190E+03  0.12499454271E+03 0.  0.
          2    1    1    2  501    0  0.49088419015E+02 -0.47822753854E+02 -0.53040241255E+03  0.53481156298E+03  0.00000000000E+00 0. -1.
          1    1    1    2  502    0  0.42031724294E+01 -0.54854140921E+02  0.82645484011E+03  0.82828391641E+03  0.00000000000E+00 0. -1.
         22    1    3    3    0    0  0.81171724379E+01  0.63530229087E+02 -0.43819541885E+02  0.77602388798E+02  0.00000000000E+00 0.  1.
         22    1    3    3    0    0 -0.61408763882E+02  0.39146665689E+02  0.58369394062E+02  0.93329973102E+02  0.00000000000E+00 0.  1.
</event>
<event>
 7    1  0.6058736E-006  0.1059887E+03  0.7818608E-02  0.1310696E+00
          2   -1    0    0  502    0  0.00000000000E+00  0.00000000000E+00  0.10639049708E+04  0.10639049708E+04  0.00000000000E+00 0. -1.
          1   -1    0    0  501    0 -0.00000000000E+00 -0.00000000000E+00 -0.52912480349E+03  0.52912480349E+03  0.00000000000E+00 0. -1.
         25    2    1    2    0    0  0.10968579367E+03  0.10709846583E+03 -0.12936835990E+03  0.23635277114E+03  0.12500162066E+03 0.  0.
          2    1    1    2  501    0 -0.10839021507E+02 -0.70316224920E+02 -0.33981791211E+03  0.34718592895E+03  0.00000000000E+00 0. -1.
          1    1    1    2  502    0 -0.98846772162E+02 -0.36782240908E+02  0.10039664393E+04  0.10094910742E+04  0.00000000000E+00 0. -1.
         22    1    3    3    0    0 -0.71359026595E+01  0.43930926976E+02 -0.85671817395E+02  0.96542776776E+02  0.00000000000E+00 0. -1.
         22    1    3    3    0    0  0.11682169633E+03  0.63167538852E+02 -0.43696542502E+02  0.13980999436E+03  0.00000000000E+00 0. -1.
</event>
<event>
 7    1  0.6058736E-006  0.1314611E+03  0.7818608E-02  0.1296662E+00
          2   -1    0    0  502    0  0.00000000000E+00  0.00000000000E+00  0.33101386692E+03  0.33101386692E+03  0.00000000000E+00 0. -1.
          1   -1    0    0  501    0 -0.00000000000E+00 -0.00000000000E+00 -0.83046878816E+03  0.83046878816E+03  0.00000000000E+00 0. -1.
         25    2    1    2    0    0 -0.63881359259E+02 -0.17903576130E+03 -0.67261470100E+02  0.23724437562E+03  0.12500462599E+03 0.  0.
          2    1    1    2  501    0  0.16034224839E+02  0.63233057031E+02 -0.66055086932E+03  0.66376424040E+03  0.00000000000E+00 0. -1.
          1    1    1    2  502    0  0.47847134420E+02  0.11580270427E+03  0.22835741818E+03  0.26047403906E+03  0.00000000000E+00 0. -1.
         22    1    3    3    0    0 -0.36126045026E+02 -0.18244983895E+03 -0.84613033179E+02  0.20433404084E+03  0.00000000000E+00 0. -1.
         22    1    3    3    0    0 -0.27755314233E+02  0.34140776463E+01  0.17351563079E+02  0.32910334785E+02  0.00000000000E+00 0. -1.
</event>
<event>
 7    1  0.6058736E-006  0.2371289E+03  0.7818608E-02  0.1291328E+00
          2   -1    0    0  502    0  0.00000000000E+00  0.00000000000E+00  0.19618980463E+04  0.19618980463E+04  0.00000000000E+00 0. -1.
          1   -1    0    0  501    0 -0.00000000000E+00 -0.00000000000E+00 -0.13419494193E+04  0.13419494193E+04  0.00000000000E+00 0. -1.
         25    2    1    2    0    0 -0.91740949889E+02  0.24690507259E+03 -0.42592890562E+03  0.51615621329E+03  0.12499314831E+03 0.  0.
          2    1    1    2  501    0 -0.14273334145E+02 -0.35223573457E+02 -0.86317694998E+03  0.86401323784E+03  0.00000000000E+00 0. -1.
          1    1    1    2  502    0  0.10601428403E+03 -0.21168149913E+03  0.19090544826E+04  0.19236780144E+04  0.00000000000E+00 0. -1.
         22    1    3    3    0    0 -0.10652640900E+03  0.13581731210E+03 -0.20165200821E+03  0.26543878860E+03  0.00000000000E+00 0. -1.
         22    1    3    3    0    0  0.14785459111E+02  0.11108776049E+03 -0.22427689741E+03  0.25071742469E+03  0.00000000000E+00 0. -1.
</event>
<event>
 7    1  0.6058736E-006  0.1106989E+03  0.7818608E-02  0.1362929E+00
          2   -1    0    0  502    0  0.00000000000E+00  0.00000000000E+00  0.34207643107E+03  0.34207643107E+03  0.00000000000E+00 0. -1.
          1   -1    0    0  501    0 -0.00000000000E+00 -0.00000000000E+00 -0.86564123904E+03  0.86564123904E+03  0.00000000000E+00 0. -1.
         25    2    1    2    0    0  0.14234584907E+03  0.12564344688E+02 -0.37081614871E+03  0.41659280427E+03  0.12499897968E+03 0.  0.
          2    1    1    2  501    0 -0.37657062988E+02  0.21219395073E+02 -0.46141859909E+03  0.46343871300E+03  0.00000000000E+00 0. -1.
          1    1    1    2  502    0 -0.10468878608E+03 -0.33783739761E+02  0.30866993984E+03  0.32768615284E+03  0.00000000000E+00 0. -1.
         22    1    3    3    0    0  0.14230524454E+03  0.10973449446E+02 -0.19965775469E+03  0.24542701201E+03  0.00000000000E+00 0.  1.
         22    1    3    3    0    0  0.40604530157E-01  0.15908952417E+01 -0.17115839402E+03  0.17116579226E+03  0.00000000000E+00 0.  1.
</event>
<event>
 7    1  0.6058736E-006  0.1389568E+03  0.7818608E-02  0.1283439E+00
          2   -1    0    0  502    0  0.00000000000E+00  0.00000000000E+00  0.11926123894E+04  0.11926123894E+04  0.00000000000E+00 0. -1.
          1   -1    0    0  501    0 -0.00000000000E+00 -0.00000000000E+00 -0.23440407998E+04  0.23440407998E+04  0.00000000000E+00 0. -1.
         25    2    1    2    0    0 -0.71979600600E+01 -0.13020042382E+03  0.29843043027E+03  0.34883999366E+03  0.12499863390E+03 0.  0.
          2    1    1    2  501    0  0.69849915093E+02  0.32565169998E+00 -0.23123230399E+04  0.23133778242E+04  0.00000000000E+00 0. -1.
          1    1    1    2  502    0 -0.62651955033E+02  0.12987477212E+03  0.86246419919E+03  0.87443537142E+03  0.00000000000E+00 0. -1.
         22    1    3    3    0    0  0.25737597926E+02 -0.14232163453E+03  0.22534956060E+03  0.26776910962E+03  0.00000000000E+00 0.  1.
         22    1    3    3    0    0 -0.32935557986E+02  0.12121210707E+02  0.73080869665E+02  0.81070884045E+02  0.00000000000E+00 0.  1.
</event>
<event>
 7    1  0.6058736E-006  0.5354280E+02  0.7818608E-02  0.1444820E+00
          2   -1    0    0  502    0  0.00000000000E+00  0.00000000000E+00  0.13822737023E+04  0.13822737023E+04  0.00000000000E+00 0. -1.
          1   -1    0    0  501    0 -0.00000000000E+00 -0.00000000000E+00 -0.20619534261E+03  0.20619534261E+03  0.00000000000E+00 0. -1.
         25    2    1    2    0    0 -0.87009918365E+01 -0.39962950578E+02  0.84372349822E+03  0.85391295827E+03  0.12500101668E+03 0.  0.
          2    1    1    2  501    0  0.52897934801E+02  0.82849122903E+01 -0.19611668916E+03  0.20329433599E+03  0.00000000000E+00 0. -1.
          1    1    1    2  502    0 -0.44196942964E+02  0.31678038287E+02  0.52847155066E+03  0.53126175068E+03  0.00000000000E+00 0. -1.
         22    1    3    3    0    0  0.42313670397E+02  0.17967043497E+02  0.47360742267E+03  0.47583321885E+03  0.00000000000E+00 0.  1.
         22    1    3    3    0    0 -0.51014662233E+02 -0.57929994075E+02  0.37011607555E+03  0.37807973942E+03  0.00000000000E+00 0.  1.
</event>
<event>
 7    1  0.6058736E-006  0.5913460E+02  0.7818608E-02  0.1401617E+00
          2   -1    0    0  502    0  0.00000000000E+00  0.00000000000E+00  0.41709689314E+04  0.41709689314E+04  0.00000000000E+00 0. -1.
          1   -1    0    0  501    0 -0.00000000000E+00 -0.00000000000E+00 -0.31027613886E+02  0.31027613886E+02  0.00000000000E+00 0. -1.
         25    2    1    2    0    0  0.28688656222E+02  0.21519116592E+02  0.26451984405E+03  0.29475282510E+03  0.12498947409E+03 0.  0.
          2    1    1    2  501    0 -0.47317134818E+02  0.35376982106E+02  0.39982489353E+02  0.71337518636E+02  0.00000000000E+00 0. -1.
          1    1    1    2  502    0  0.18628478596E+02 -0.56896098698E+02  0.38354389841E+04  0.38359062015E+04  0.00000000000E+00 0. -1.
         22    1    3    3    0    0 -0.48033365423E+02 -0.42687425322E+01  0.82733306845E+02  0.95761299167E+02  0.00000000000E+00 0. -1.
         22    1    3    3    0    0  0.76722021645E+02  0.25787859125E+02  0.18178653720E+03  0.19899152593E+03  0.00000000000E+00 0. -1.
</event>
<event>
 7    1  0.6058736E-006  0.2681666E+02  0.7818608E-02  0.1682775E+00
          2   -1    0    0  502    0  0.00000000000E+00  0.00000000000E+00  0.79586295281E+03  0.79586295281E+03  0.00000000000E+00 0. -1.
          1   -1    0    0  501    0 -0.00000000000E+00 -0.00000000000E+00 -0.69535563924E+02  0.69535563924E+02  0.00000000000E+00 0. -1.
         25    2    1    2    0    0  0.36532363435E+02  0.27983673289E+02  0.43710911616E+03  0.45695365901E+03  0.12499827001E+03 0.  0.
          2    1    1    2  501    0 -0.18344657112E+02 -0.95424789043E+01 -0.57322170301E+02  0.60937808922E+02  0.00000000000E+00 0. -1.
          1    1    1    2  502    0 -0.18187706323E+02 -0.18441194385E+02  0.34654044303E+03  0.34750704880E+03  0.00000000000E+00 0. -1.
         22    1    3    3    0    0 -0.12639796659E+01  0.63962991108E+02  0.34680500367E+03  0.35265645102E+03  0.00000000000E+00 0.  1.
         22    1    3    3    0    0  0.37796343101E+02 -0.35979317819E+02  0.90304112496E+02  0.10429720800E+03  0.00000000000E+00 0.  1.
</event>
<event>
 7    1  0.6058736E-006  0.1494886E+03  0.7818608E-02  0.1296505E+00
          2   -1    0    0  502    0  0.00000000000E+00  0.00000000000E+00  0.19162231929E+04  0.19162231929E+04  0.00000000000E+00 0. -1.
          1   -1    0    0  501    0 -0.00000000000E+00 -0.00000000000E+00 -0.48025964547E+03  0.48025964547E+03  0.00000000000E+00 0. -1.
         25    2    1    2    0    0 -0.11712572386E+03 -0.14895049672E+03  0.57774203583E+02  0.23422326507E+03  0.12497197142E+03 0.  0.
          2    1    1    2  501    0  0.11390117592E+03  0.91590327510E+02 -0.37792635367E+03  0.40520438641E+03  0.00000000000E+00 0. -1.
          1    1    1    2  502    0  0.32245479437E+01  0.57360169206E+02  0.17561156975E+04  0.17570551868E+04  0.00000000000E+00 0. -1.
         22    1    3    3    0    0 -0.26279066530E+02 -0.64068214659E+01 -0.32751298592E+02  0.42476867333E+02  0.00000000000E+00 0. -1.
         22    1    3    3    0    0 -0.90846657330E+02 -0.14254367525E+03  0.90525502175E+02  0.19174639774E+03  0.00000000000E+00 0. -1.
</event>
<event>
 7    1  0.6058736E-006  0.4181060E+02  0.7818608E-02  0.1559882E+00
          2   -1    0    0  502    0  0.00000000000E+00  0.00000000000E+00  0.19468238276E+04  0.19468238276E+04  0.00000000000E+00 0. -1.
          1   -1    0    0  501    0 -0.00000000000E+00 -0.00000000000E+00 -0.97565430736E+03  0.97565430736E+03  0.00000000000E+00 0. -1.
         25    2    1    2    0    0 -0.80304633639E+01  0.20495629924E+02 -0.55234165312E+03  0.56673556991E+03  0.12499338078E+03 0.  0.
          2    1    1    2  501    0  0.33003082108E+02 -0.31431187821E+02 -0.41477162870E+03  0.41726805170E+03  0.00000000000E+00 0. -1.
          1    1    1    2  502    0 -0.24972618745E+02  0.10935557897E+02  0.19382828020E+04  0.19384745133E+04  0.00000000000E+00 0. -1.
         22    1    3    3    0    0  0.25244812564E+02  0.65883945444E+02 -0.29704176160E+03  0.30530608078E+03  0.00000000000E+00 0. -1.
         22    1    3    3    0    0 -0.33275275928E+02 -0.45388315519E+02 -0.25529989152E+03  0.26142948913E+03  0.00000000000E+00 0. -1.
</event>
<event>
 7    1  0.6058736E-006  0.8551728E+02  0.7818608E-02  0.1329369E+00
          2   -1    0    0  502    0  0.00000000000E+00  0.00000000000E+00  0.73710940199E+02  0.73710940199E+02  0.00000000000E+00 0. -1.
          1   -1    0    0  501    0 -0.00000000000E+00 -0.00000000000E+00 -0.21952792639E+04  0.21952792639E+04  0.00000000000E+00 0. -1.
         25    2    1    2    0    0  0.57945806896E+02  0.67584574336E+02 -0.13943718898E+03  0.20734940767E+03  0.12500262383E+03 0.  0.
          2    1    1    2  501    0 -0.70863828571E+02  0.23407088925E+02 -0.19671005688E+04  0.19685157409E+04  0.00000000000E+00 0. -1.
          1    1    1    2  502    0  0.12918021676E+02 -0.90991663261E+02 -0.15030565875E+02  0.93125055584E+02  0.00000000000E+00 0. -1.
         22    1    3    3    0    0 -0.20870833781E+02 -0.16827294516E+02 -0.67791596478E+00  0.26818074381E+02  0.00000000000E+00 0.  1.
         22    1    3    3    0    0  0.78816640677E+02  0.84411868852E+02 -0.13875927301E+03  0.18053133329E+03  0.00000000000E+00 0.  1.
</event>
<event>
 7    1  0.6058736E-006  0.6237907E+02  0.7818608E-02  0.1448571E+00
          2   -1    0    0  502    0  0.00000000000E+00  0.00000000000E+00  0.18699838431E+03  0.18699838431E+03  0.00000000000E+00 0. -1.
          1   -1    0    0  501    0 -0.00000000000E+00 -0.00000000000E+00 -0.45797810153E+03  0.45797810153E+03  0.00000000000E+00 0. -1.
         25    2    1    2    0    0 -0.34147189561E+02  0.87642397548E+02 -0.11559555652E+02  0.15686037370E+03  0.12499733241E+03 0.  0.
          2    1    1    2  501    0 -0.57716159048E+00 -0.39126872128E+02 -0.36486785374E+03  0.36696021028E+03  0.00000000000E+00 0. -1.
          1    1    1    2  502    0  0.34724351152E+02 -0.48515525420E+02  0.10544769217E+03  0.12115590185E+03  0.00000000000E+00 0. -1.
         22    1    3    3    0    0 -0.17622991645E+02  0.15623029253E+02  0.53471575586E+02  0.58428231817E+02  0.00000000000E+00 0.  1.
         22    1    3    3    0    0 -0.16524197917E+02  0.72019368295E+02 -0.65031131238E+02  0.98432141887E+02  0.00000000000E+00 0.  1.
</event>
<event>
 7    1  0.6058736E-006  0.5441370E+02  0.7818608E-02  0.1456472E+00
          2   -1    0    0  502    0  0.00000000000E+00  0.00000000000E+00  0.65200874178E+03  0.65200874178E+03  0.00000000000E+00 0. -1.
          1   -1    0    0  501    0 -0.00000000000E+00 -0.00000000000E+00 -0.48091077140E+03  0.48091077140E+03  0.00000000000E+00 0. -1.
         25    2    1    2    0    0 -0.77218987146E+02 -0.26769548413E+02  0.61181912935E+02  0.16139125666E+03  0.12499812221E+03 0.  0.
          2    1    1    2  501    0  0.53499284152E+02 -0.82923050238E+01 -0.42827084648E+03  0.43167910960E+03  0.00000000000E+00 0. -1.
          1    1    1    2  502    0  0.23719702994E+02  0.35061853437E+02  0.53818690393E+03  0.53984914692E+03  0.00000000000E+00 0. -1.
         22    1    3    3    0    0 -0.63070944794E+02 -0.68779636489E+02  0.69413657766E+02  0.11630493694E+03  0.00000000000E+00 0. -1.
         22    1    3    3    0    0 -0.14148042352E+02  0.42010088076E+02 -0.82317448312E+01  0.45086319715E+02  0.00000000000E+00 0. -1.
</event>
<event>
 7    1  0.6058736E-006  0.7065754E+02  0.7818608E-02  0.1409486E+00
          2   -1    0    0  502    0  0.00000000000E+00  0.00000000000E+00  0.11118636834E+03  0.11118636834E+03  0.00000000000E+00 0. -1.
          1   -1    0    0  501    0 -0.00000000000E+00 -0.00000000000E+00 -0.15960062167E+04  0.15960062167E+04  0.00000000000E+00 0. -1.
         25    2    1    2    0    0  0.80857690655E+02  0.57526386236E+02 -0.66194468455E+03  0.68091288430E+03  0.12499735741E+03 0.  0.
          2    1    1    2  501    0 -0.11679690048E+02 -0.44990427969E+02 -0.91176422614E+03  0.91294827775E+03  0.00000000000E+00 0. -1.
          1    1    1    2  502    0 -0.69178000607E+02 -0.12535958267E+02  0.88889062369E+02  0.11333142294E+03  0.00000000000E+00 0. -1.
         22    1    3    3    0    0  0.15483011855E+02 -0.18175779390E+01 -0.46292472418E+03  0.46318714091E+03  0.00000000000E+00 0. -1.
         22    1    3    3    0    0  0.65374678800E+02  0.59343964175E+02 -0.19901996036E+03  0.21772574339E+03  0.00000000000E+00 0. -1.
</event>
<event>
 7    1  0.6058736E-006  0.1259996E+03  0.7818608E-02  0.1286740E+00
          2   -1    0    0  502    0  0.00000000000E+00  0.00000000000E+00  0.19667893788E+04  0.19667893788E+04  0.00000000000E+00 0. -1.
          1   -1    0    0  501    0 -0.00000000000E+00 -0.00000000000E+00 -0.27899672584E+03  0.27899672584E+03  0.00000000000E+00 0. -1.
         25    2    1    2    0    0 -0.10340255273E+02  0.18762988014E+03  0.93715925618E+03  0.96395246888E+03  0.12499999208E+03 0.  0.
          2    1    1    2  501    0  0.39298104508E+02 -0.11880316949E+03 -0.24939169970E+03  0.27902464761E+03  0.00000000000E+00 0. -1.
          1    1    1    2  502    0 -0.28957849235E+02 -0.68826710653E+02  0.10000250964E+04  0.10028089881E+04  0.00000000000E+00 0. -1.
         22    1    3    3    0    0 -0.51351204567E+02  0.16241620229E+03  0.61258184105E+03  0.63582425320E+03  0.00000000000E+00 0. -1.
         22    1    3    3    0    0  0.41010949294E+02  0.25213677851E+02  0.32457741513E+03  0.32812821568E+03  0.00000000000E+00 0. -1.
</event>
<event>
 7    1  0.6058736E-006  0.6827434E+02  0.7818608E-02  0.1441619E+00
          2   -1    0    0  502    0  0.00000000000E+00  0.00000000000E+00  0.17915286284E+04  0.17915286284E+04  0.00000000000E+00 0. -1.
          1   -1    0    0  501    0 -0.00000000000E+00 -0.00000000000E+00 -0.40654424555E+03  0.40654424555E+03  0.00000000000E+00 0. -1.
         25    2    1    2    0    0  0.10534606812E+03  0.70059256733E+01  0.41743112275E+03  0.44835300348E+03  0.12499918570E+03 0.  0.
          2    1    1    2  501    0 -0.67704164233E+02 -0.65432937872E+01 -0.38786239772E+03  0.39378154872E+03  0.00000000000E+00 0. -1.
          1    1    1    2  502    0 -0.37641903885E+02 -0.46263188609E+00  0.13554156578E+04  0.13559383217E+04  0.00000000000E+00 0. -1.
         22    1    3    3    0    0  0.78761360354E+02 -0.54654485389E+02  0.26419726521E+03  0.28105277013E+03  0.00000000000E+00 0. -1.
         22    1    3    3    0    0  0.26584707764E+02  0.61660411063E+02  0.15323385755E+03  0.16730023335E+03  0.00000000000E+00 0. -1.
</event>
<event>
 7    1  0.6058736E-006  0.1307296E+03  0.7818608E-02  0.1342110E+00
          2   -1    0    0  502    0  0.00000000000E+00  0.00000000000E+00  0.18717235348E+04  0.18717235348E+04  0.00000000000E+00 0. -1.
          1   -1    0    0  501    0 -0.00000000000E+00 -0.00000000000E+00 -0.12285538063E+04  0.12285538063E+04  0.00000000000E+00 0. -1.
         25    2    1    2    0    0  0.59012565588E+02  0.14970658124E+03 -0.55486139234E+02  0.21118286630E+03  0.12499979203E+03 0.  0.
          2    1    1    2  501    0  0.13550650434E+02 -0.41531294190E+02 -0.10924175316E+04  0.10932906896E+04  0.00000000000E+00 0. -1.
          1    1    1    2  502    0 -0.72563216021E+02 -0.10817528705E+03  0.17910733993E+04  0.17958037852E+04  0.00000000000E+00 0. -1.
         22    1    3    3    0    0  0.49368915056E+02  0.12992057931E+03  0.12669975826E+02  0.13956064986E+03  0.00000000000E+00 0. -1.
         22    1    3    3    0    0  0.96436505316E+01  0.19786001935E+02 -0.68156115059E+02  0.71622216442E+02  0.00000000000E+00 0. -1.
</event>
<event>
 7    1  0.6058736E-006  0.4550244E+02  0.7818608E-02  0.1565139E+00
          2   -1    0    0  502    0  0.00000000000E+00  0.00000000000E+00  0.49111308607E+03  0.49111308607E+03  0.00000000000E+00 0. -1.
          1   -1    0    0  501    0 -0.00000000000E+00 -0.00000000000E+00 -0.16683218903E+03  0.16683218903E+03  0.00000000000E+00 0. -1.
         25    2    1    2    0    0  0.35190108783E+02 -0.48599749837E+02 -0.26697777466E+02  0.14119789051E+03  0.12499517400E+03 0.  0.
          2    1    1    2  501    0 -0.11666466987E+02  0.42784731021E+02 -0.76584771365E+02  0.88497835372E+02  0.00000000000E+00 0. -1.
          1    1    1    2  502    0 -0.23523641796E+02  0.58150188161E+01  0.42756344587E+03  0.42824954922E+03  0.00000000000E+00 0. -1.
         22    1    3    3    0    0  0.70047642289E+02 -0.43982899481E+02  0.17678693259E+02  0.84579571010E+02  0.00000000000E+00 0.  1.
         22    1    3    3    0    0 -0.34857533506E+02 -0.46168503558E+01 -0.44376470724E+02  0.56618319502E+02  0.00000000000E+00 0.  1.
</event>
<event>
 7    1  0.6058736E-006  0.9096769E+02  0.7818608E-02  0.1402277E+00
          2   -1    0    0  502    0  0.00000000000E+00  0.00000000000E+00  0.48145414362E+03  0.48145414362E+03  0.00000000000E+00 0. -1.
          1   -1    0    0  501    0 -0.00000000000E+00 -0.00000000000E+00 -0.37628725496E+03  0.37628725496E+03  0.00000000000E+00 0. -1.
         25    2    1    2    0    0 -0.97327907413E+02  0.14060733937E+02  0.84882330228E+02  0.18027838285E+03  0.12499943815E+03 0.  0.
          2    1    1    2  501    0  0.88013461028E+02  0.22992520592E+02 -0.32120757928E+03  0.33384028264E+03  0.00000000000E+00 0. -1.
          1    1    1    2  502    0  0.93144463851E+01 -0.37053254529E+02  0.34149213771E+03  0.34362273310E+03  0.00000000000E+00 0. -1.
         22    1    3    3    0    0 -0.31219256903E+02  0.43647962647E+02  0.93025669718E+02  0.10739442197E+03  0.00000000000E+00 0.  1.
         22    1    3    3    0    0 -0.66108650511E+02 -0.29587228710E+02 -0.81433394897E+01  0.72883960877E+02  0.00000000000E+00 0.  1.
</event>
<event>
 7    1  0.6058736E-006  0.1811530E+03  0.7818608E-02  0.1328650E+00
          2   -1    0    0  502    0  0.00000000000E+00  0.00000000000E+00  0.94148022400E+03  0.94148022400E+03  0.00000000000E+00 0. -1.
          1   -1    0    0  501    0 -0.00000000000E+00 -0.00000000000E+00 -0.33787518722E+03  0.33787518722E+03  0.00000000000E+00 0. -1.
         25    2    1    2    0    0 -0.95013999888E+02 -0.12819193411E+03  0.46053136472E+02  0.20786477392E+03  0.12500416278E+03 0.  0.
          2    1    1    2  501    0  0.91347913194E+02  0.16345621192E+03 -0.22240169009E+03  0.29073163951E+03  0.00000000000E+00 0. -1.
          1    1    1    2  502    0  0.36660866946E+01 -0.35264277812E+02  0.77995359039E+03  0.78075899779E+03  0.00000000000E+00 0. -1.
         22    1    3    3    0    0 -0.91123113016E+02 -0.46406309441E+02  0.68357675995E+02  0.12300300463E+03  0.00000000000E+00 0. -1.
         22    1    3    3    0    0 -0.38908868728E+01 -0.81785624665E+02 -0.22304539522E+02  0.84861769283E+02  0.00000000000E+00 0. -1.
</event>
<event>
 7    1  0.6058736E-006  0.7542175E+02  0.7818608E-02  0.1456094E+00
          2   -1    0    0  502    0  0.00000000000E+00  0.00000000000E+00  0.15269962895E+04  0.15269962895E+04  0.00000000000E+00 0. -1.
          1   -1    0    0  501    0 -0.00000000000E+00 -0.00000000000E+00 -0.62772970388E+02  0.62772970388E+02  0.00000000000E+00 0. -1.
         25    2    1    2    0    0  0.50147688015E+02  0.67558038852E+02  0.79174245268E+03  0.80595259031E+03  0.12499834888E+03 0.  0.
          2    1    1    2  501    0 -0.19945689590E+02 -0.72630255195E+02 -0.29703562807E+02  0.80964721616E+02  0.00000000000E+00 0. -1.
          1    1    1    2  502    0 -0.30201998425E+02  0.50722163431E+01  0.70218442922E+03  0.70285194795E+03  0.00000000000E+00 0. -1.
         22    1    3    3    0    0 -0.30727465354E+02  0.40211470882E+02  0.48233967555E+03  0.48498732162E+03  0.00000000000E+00 0.  1.
         22    1    3    3    0    0  0.80875153369E+02  0.27346567970E+02  0.30940277713E+03  0.32096526869E+03  0.00000000000E+00 0.  1.
</event>
<event>
 7    1  0.6058736E-006  0.4088448E+02  0.7818608E-02  0.1535169E+00
          2   -1    0    0  502    0  0.00000000000E+00  0.00000000000E+00  0.97155719492E+03  0.97155719492E+03  0.00000000000E+00 0. -1.
          1   -1    0    0  501    0 -0.00000000000E+00 -0.00000000000E+00 -0.12975307242E+02  0.12975307242E+02  0.00000000000E+00 0. -1.
         25    2    1    2    0    0  0.52825792731E+02  0.29646829221E+02  0.45596764244E+03  0.47665875802E+03  0.12501032673E+03 0.  0.
          2    1    1    2  501    0 -0.13488802907E+02 -0.29780325016E+02  0.18968592370E+03  0.19248263613E+03  0.00000000000E+00 0. -1.
          1    1    1    2  502    0 -0.39336989823E+02  0.13349579487E+00  0.31292832154E+03  0.31539110801E+03  0.00000000000E+00 0. -1.
         22    1    3    3    0    0  0.48706394653E+02  0.50618711025E+01  0.50207574530E+02  0.70133700596E+02  0.00000000000E+00 0.  1.
         22    1    3    3    0    0  0.41193980777E+01  0.24584958118E+02  0.40576006791E+03  0.40652505743E+03  0.00000000000E+00 0.  1.
</event>
<event>
 7    1  0.6058736E-006  0.5943730E+02  0.7818608E-02  0.1419137E+00
          2   -1    0    0  502    0  0.00000000000E+00  0.00000000000E+00  0.20023839022E+04  0.20023839022E+04  0.00000000000E+00 0. -1.
          1   -1    0    0  501    0 -0.00000000000E+00 -0.00000000000E+00 -0.67015234490E+03  0.67015234490E+03  0.00000000000E+00 0. -1.
         25    2    1    2    0    0  0.63914117151E+02  0.41660572367E+02  0.42892730769E+03  0.45323729172E+03  0.12499915864E+03 0.  0.
          2    1    1    2  501    0 -0.58706490169E+02  0.93463720390E+01 -0.65623255775E+03  0.65891955238E+03  0.00000000000E+00 0. -1.
          1    1    1    2  502    0 -0.52076269824E+01 -0.51006944406E+02  0.15595368074E+04  0.15603794030E+04  0.00000000000E+00 0. -1.
         22    1    3    3    0    0  0.66499856951E+02  0.60752850047E+02  0.15992597586E+03  0.18354688098E+03  0.00000000000E+00 0. -1.
         22    1    3    3    0    0 -0.25857397995E+01 -0.19092277679E+02  0.26900133184E+03  0.26969041074E+03  0.00000000000E+00 0. -1.
</event>
<event>
 7    1  0.6058736E-006  0.1601135E+03  0.7818608E-02  0.1297067E+00
          2   -1    0    0  502    0  0.00000000000E+00  0.00000000000E+00  0.20438127683E+02  0.20438127683E+02  0.00000000000E+00 0. -1.
          1   -1    0    0  501    0 -0.00000000000E+00 -0.00000000000E+00 -0.28237512215E+04  0.28237512215E+04  0.00000000000E+00 0. -1.
         25    2    1    2    0    0  0.14494362041E+03 -0.34486826548E+02 -0.15810352661E+04  0.15929521910E+04  0.12500470342E+03 0.  0.
          2    1    1    2  501    0  0.19986656984E+02  0.49475446880E+02 -0.72800031132E+03  0.72995324480E+03  0.00000000000E+00 0. -1.
          1    1    1    2  502    0 -0.16493027739E+03 -0.14988620332E+02 -0.49427751641E+03  0.52128391339E+03  0.00000000000E+00 0. -1.
         22    1    3    3    0    0  0.16573443059E+03 -0.37196919908E+02 -0.12853732627E+04  0.12965476994E+04  0.00000000000E+00 0.  1.
         22    1    3    3    0    0 -0.20790810187E+02  0.27100933594E+01 -0.29566200345E+03  0.29640449166E+03  0.00000000000E+00 0.  1.
</event>
<event>
 7    1  0.6058736E-006  0.8687093E+02  0.7818608E-02  0.1424488E+00
          2   -1    0    0  502    0  0.00000000000E+00  0.00000000000E+00  0.33591626100E+04  0.33591626100E+04  0.00000000000E+00 0. -1.
          1   -1    0    0  501    0 -0.00000000000E+00 -0.00000000000E+00 -0.26264454847E+02  0.26264454847E+02  0.00000000000E+00 0. -1.
         25    2    1    2    0    0 -0.53967674252E+02  0.10336113694E+02  0.18242696164E+04  0.18293726763E+04  0.12500164151E+03 0.  0.
          2    1    1    2  501    0  0.87629712293E+02 -0.11060804573E+02  0.59413891026E+02  0.10644866519E+03  0.00000000000E+00 0. -1.
          1    1    1    2  502    0 -0.33662038041E+02  0.72469087915E+00  0.14492146477E+04  0.14496057234E+04  0.00000000000E+00 0. -1.
         22    1    3    3    0    0  0.29969668828E+02  0.21444152766E+02  0.23714463091E+03  0.23999085130E+03  0.00000000000E+00 0.  1.
         22    1    3    3    0    0 -0.83937343079E+02 -0.11108039072E+02  0.15871249855E+04  0.15893818250E+04  0.00000000000E+00 0.  1.
</event>
<event>
 7    1  0.6058736E-006  0.4034748E+02  0.7818608E-02  0.1517824E+00
          2   -1    0    0  502    0  0.00000000000E+00  0.00000000000E+00  0.66567412144E+03  0.66567412144E+03  0.00000000000E+00 0. -1.
          1   -1    0    0  501    0 -0.00000000000E+00 -0.00000000000E+00 -0.92922639342E+03  0.92922639342E+03  0.00000000000E+00 0. -1.
         25    2    1    2    0    0  0.73486481511E+02 -0.13177521448E+01 -0.97453501843E+02  0.17470838161E+03  0.12499533651E+03 0.  0.
          2    1    1    2  501    0 -0.38417026671E+02 -0.10982926479E+02 -0.79209077755E+03  0.79309790851E+03  0.00000000000E+00 0. -1.
          1    1    1    2  502    0 -0.35069454839E+02  0.12300678624E+02  0.62599200741E+03  0.62709422473E+03  0.00000000000E+00 0. -1.
         22    1    3    3    0    0  0.77476755171E+02 -0.39557861651E+02 -0.21546940247E+02  0.89619990204E+02  0.00000000000E+00 0. -1.
         22    1    3    3    0    0 -0.39902736603E+01  0.38240109506E+02 -0.75906561597E+02  0.85088391408E+02  0.00000000000E+00 0. -1.
</event>
<event>
 7    1  0.6058736E-006  0.6674618E+02  0.7818608E-02  0.1377869E+00
          2   -1    0    0  502    0  0.00000000000E+00  0.00000000000E+00  0.83332885318E+03  0.83332885318E+03  0.00000000000E+00 0. -1.
          1   -1    0    0  501    0 -0.00000000000E+00 -0.00000000000E+00 -0.76215434912E+02  0.76215434912E+02  0.00000000000E+00 0. -1.
         25    2    1    2    0    0 -0.27116252483E+02  0.32722900228E+02  0.24978656673E+03  0.28253196676E+03  0.12499961590E+03 0.  0.
          2    1    1    2  501    0 -0.45246520551E+02 -0.44342974478E+02 -0.39919145500E+02  0.74880472655E+02  0.00000000000E+00 0. -1.
          1    1    1    2  502    0  0.72362773034E+02  0.11620074250E+02  0.54724599704E+03  0.55213184868E+03  0.00000000000E+00 0. -1.
         22    1    3    3    0    0  0.95187308093E+01 -0.40968369023E+02  0.13423823026E+03  0.14067308186E+03  0.00000000000E+00 0.  1.
         22    1    3    3    0    0 -0.36634983292E+02  0.73691269251E+02  0.11554833647E+03  0.14185888490E+03  0.00000000000E+00 0.  1.
</event>
<event>
 7    1  0.6058736E-006  0.6099833E+02  0.7818608E-02  0.1419709E+00
          2   -1    0    0  502    0  0.00000000000E+00  0.00000000000E+00  0.30335536878E+04  0.30335536878E+04  0.00000000000E+00 0. -1.
          1   -1    0    0  501    0 -0.00000000000E+00 -0.00000000000E+00 -0.40821750626E+03  0.40821750626E+03  0.00000000000E+00 0. -1.
         25    2    1    2    0    0  0.35504691667E+02  0.19343952852E+02  0.96435505654E+02  0.16296736118E+03  0.12499512958E+03 0.  0.
          2    1    1    2  501    0 -0.85196327232E+01 -0.61127955674E+02 -0.37219714380E+03  0.37727963762E+03  0.00000000000E+00 0. -1.
          1    1    1    2  502    0 -0.26985058944E+02  0.41784002823E+02  0.29010978197E+04  0.29015241952E+04  0.00000000000E+00 0. -1.
         22    1    3    3    0    0  0.70184763904E+02 -0.24540998939E+02  0.65275796042E+02  0.98939836578E+02  0.00000000000E+00 0.  1.
         22    1    3    3    0    0 -0.34680072237E+02  0.43884951790E+02  0.31159709612E+02  0.64027524606E+02  0.00000000000E+00 0.  1.
</event>
<event>
 7    1  0.6058736E-006  0.1093145E+03  0.7818608E-02  0.1329761E+00
          2   -1    0    0  502    0  0.00000000000E+00  0.00000000000E+00  0.40354101200E+04  0.40354101200E+04  0.00000000000E+00 0. -1.
          1   -1    0    0  501    0 -0.00000000000E+00 -0.00000000000E+00 -0.98204716864E+02  0.98204716864E+02  0.00000000000E+00 0. -1.
         25    2    1    2    0    0 -0.29464366805E+01  0.14613982394E+03  0.53277921251E+03  0.56643130852E+03  0.12500083343E+03 0.  0.
          2    1    1    2  501    0  0.38700988479E+02 -0.10024067220E+03 -0.45556297421E+02  0.11671047557E+03  0.00000000000E+00 0. -1.
          1    1    1    2  502    0 -0.35754551799E+02 -0.45899151743E+02  0.34499824880E+04  0.34504730527E+04  0.00000000000E+00 0. -1.
         22    1    3    3    0    0  0.23647390713E+02 -0.10513433429E+02  0.32617824034E+02  0.41637168669E+02  0.00000000000E+00 0.  1.
         22    1    3    3    0    0 -0.26593827394E+02  0.15665325737E+03  0.50016138847E+03  0.52479413985E+03  0.00000000000E+00 0.  1.
</event>
<event>
 7    1  0.6058736E-006  0.1008587E+03  0.7818608E-02  0.1338058E+00
          2   -1    0    0  502    0  0.00000000000E+00  0.00000000000E+00  0.14744646975E+03  0.14744646975E+03  0.00000000000E+00 0. -1.
          1   -1    0    0  501    0 -0.00000000000E+00 -0.00000000000E+00 -0.70784315773E+03  0.70784315773E+03  0.00000000000E+00 0. -1.
         25    2    1    2    0    0  0.12337926391E+03 -0.65417929486E+02 -0.48242551942E+03  0.51755306548E+03  0.12499938214E+03 0.  0.
          2    1    1    2  501    0 -0.67674370249E+02  0.47075093287E+02 -0.19230989369E+03  0.20923427064E+03  0.00000000000E+00 0. -1.
          1    1    1    2  502    0 -0.55704893662E+02  0.18342836199E+02  0.11433872514E+03  0.12850229136E+03  0.00000000000E+00 0. -1.
         22    1    3    3    0    0  0.96461634533E+01 -0.11859135257E+02 -0.27204416702E+03  0.27247333148E+03  0.00000000000E+00 0. -1.
         22    1    3    3    0    0  0.11373310046E+03 -0.53558794229E+02 -0.21038135241E+03  0.24507973400E+03  0.00000000000E+00 0. -1.
</event>
<event>
 7    1  0.6058736E-006  0.2330972E+03  0.7818608E-02  0.1201898E+00
          2   -1    0    0  502    0  0.00000000000E+00  0.00000000000E+00  0.20958750634E+04  0.20958750634E+04  0.00000000000E+00 0. -1.
          1   -1    0    0  501    0 -0.00000000000E+00 -0.00000000000E+00 -0.56138274318E+03  0.56138274318E+03  0.00000000000E+00 0. -1.
         25    2    1    2    0    0 -0.67478528976E+02 -0.28832487113E+03  0.93535389827E+03  0.98904041950E+03  0.12501781154E+03 0.  0.
          2    1    1    2  501    0 -0.14538893742E+02  0.93927968317E+02 -0.52038071074E+03  0.52898953371E+03  0.00000000000E+00 0. -1.
          1    1    1    2  502    0  0.82017422718E+02  0.19439690281E+03  0.11195191327E+04  0.11392278534E+04  0.00000000000E+00 0. -1.
         22    1    3    3    0    0  0.23783993376E+02 -0.11272079920E+03  0.45848011462E+03  0.47273213601E+03  0.00000000000E+00 0. -1.
         22    1    3    3    0    0 -0.91262522353E+02 -0.17560407193E+03  0.47687378365E+03  0.51630828349E+03  0.00000000000E+00 0. -1.
</event>
<event>
 7    1  0.6058736E-006  0.1787594E+03  0.7818608E-02  0.1382226E+00
          2   -1    0    0  502    0  0.00000000000E+00  0.00000000000E+00  0.13355030968E+04  0.13355030968E+04  0.00000000000E+00 0. -1.
          1   -1    0    0  501    0 -0.00000000000E+00 -0.00000000000E+00 -0.46071099974E+02  0.46071099974E+02  0.00000000000E+00 0. -1.
         25    2    1    2    0    0 -0.66397321097E+01 -0.18796622274E+03  0.44324448092E+03  0.49746006038E+03  0.12500181946E+03 0.  0.
          2    1    1    2  501    0 -0.18166138017E+02  0.13826162280E+02  0.32974617655E+01  0.23066091735E+02  0.00000000000E+00 0. -1.
          1    1    1    2  502    0  0.24805870127E+02  0.17414006046E+03  0.84289005410E+03  0.86104804462E+03  0.00000000000E+00 0. -1.
         22    1    3    3    0    0  0.25216128489E+02 -0.17464718394E+03  0.28275604251E+03  0.33329937229E+03  0.00000000000E+00 0.  1.
         22    1    3    3    0    0 -0.31855860599E+02 -0.13319038803E+02  0.16048843841E+03  0.16416068809E+03  0.00000000000E+00 0.  1.
</event>
<event>
 7    1  0.6058736E-006  0.3507387E+02  0.7818608E-02  0.1591919E+00
          2   -1    0    0  502    0  0.00000000000E+00  0.00000000000E+00  0.11217093341E+04  0.11217093341E+04  0.00000000000E+00 0. -1.
          1   -1    0    0  501    0 -0.00000000000E+00 -0.00000000000E+00 -0.83247267300E+02  0.83247267300E+02  0.00000000000E+00 0. -1.
         25    2    1    2    0    0 -0.32441946989E+02 -0.49612995721E+02  0.14751177342E+03  0.20223528906E+03  0.12500183829E+03 0.  0.
          2    1    1    2  501    0  0.20606686683E+02  0.16878631613E+02 -0.52372174503E+02  0.58756858351E+02  0.00000000000E+00 0. -1.
          1    1    1    2  502    0  0.11835260306E+02  0.32734364108E+02  0.94332246787E+03  0.94396445398E+03  0.00000000000E+00 0. -1.
         22    1    3    3    0    0  0.19359113223E+02  0.28053317821E+02  0.80201090486E+02  0.87143438196E+02  0.00000000000E+00 0. -1.
         22    1    3    3    0    0 -0.51801060212E+02 -0.77666313542E+02  0.67310682932E+02  0.11509185086E+03  0.00000000000E+00 0. -1.
</event>
<event>
 7    1  0.6058736E-006  0.1238355E+03  0.7818608E-02  0.1433439E+00
          2   -1    0    0  502    0  0.00000000000E+00  0.00000000000E+00  0.10745717725E+04  0.10745717725E+04  0.00000000000E+00 0. -1.
          1   -1    0    0  501    0 -0.00000000000E+00 -0.00000000000E+00 -0.13024369390E+04  0.13024369390E+04  0.00000000000E+00 0. -1.
         25    2    1    2    0    0  0.42578927073E+02  0.11751565682E+03  0.69558409945E+02  0.18996252592E+03  0.12499797691E+03 0.  0.
          2    1    1    2  501    0 -0.21588408698E+02  0.45744500461E+01 -0.12380753742E+04  0.12382720288E+04  0.00000000000E+00 0. -1.
          1    1    1    2  502    0 -0.20990518375E+02 -0.12209010687E+03  0.94065179776E+03  0.94877415684E+03  0.00000000000E+00 0. -1.
         22    1    3    3    0    0 -0.65537020220E+01 -0.24842809773E+02  0.15209541077E+02  0.29857098777E+02  0.00000000000E+00 0. -1.
         22    1    3    3    0    0  0.49132629095E+02  0.14235846660E+03  0.54348868869E+02  0.16010542714E+03  0.00000000000E+00 0. -1.
</event>
<event>
 7    1  0.6058736E-006  0.7674085E+02  0.7818608E-02  0.1466656E+00
          2   -1    0    0  502    0  0.00000000000E+00  0.00000000000E+00  0.20045055422E+03  0.20045055422E+03  0.00000000000E+00 0. -1.
          1   -1    0    0  501    0 -0.00000000000E+00 -0.00000000000E+00 -0.63707812339E+03  0.63707812339E+03  0.00000000000E+00 0. -1.
         25    2    1    2    0    0  0.51084131095E+02 -0.53533230825E+02 -0.25750607398E+03  0.29565125913E+03  0.12499957453E+03 0.  0.
          2    1    1    2  501    0  0.18571417785E+02  0.20793820292E+02 -0.35175804601E+03  0.35286116740E+03  0.00000000000E+00 0. -1.
          1    1    1    2  502    0 -0.69655548880E+02  0.32739410533E+02  0.17263655083E+03  0.18901625108E+03  0.00000000000E+00 0. -1.
         22    1    3    3    0    0  0.38824440344E+02 -0.91268777402E+02 -0.13958966754E+03  0.17123843663E+03  0.00000000000E+00 0. -1.
         22    1    3    3    0    0  0.12259690750E+02  0.37735546576E+02 -0.11791640644E+03  0.12441282249E+03  0.00000000000E+00 0. -1.
</event>
<event>
 7    1  0.6058736E-006  0.6128993E+02  0.7818608E-02  0.1440139E+00
          2   -1    0    0  502    0  0.00000000000E+00  0.00000000000E+00  0.16577691346E+04  0.16577691346E+04  0.00000000000E+00 0. -1.
          1   -1    0    0  501    0 -0.00000000000E+00 -0.00000000000E+00 -0.14648883723E+04  0.14648883723E+04  0.00000000000E+00 0. -1.
         25    2    1    2    0    0 -0.70465161784E+02 -0.69338351741E+02  0.39774300013E+03  0.42848333533E+03  0.12500131383E+03 0.  0.
          2    1    1    2  501    0  0.31562336458E+02  0.52475364602E+02 -0.14485100140E+04  0.14498038163E+04  0.00000000000E+00 0. -1.
          1    1    1    2  502    0  0.38902825326E+02  0.16862987140E+02  0.12436477761E+04  0.12443703553E+04  0.00000000000E+00 0. -1.
         22    1    3    3    0    0 -0.61569154137E+02 -0.10040600521E+03  0.36009643547E+03  0.37886880244E+03  0.00000000000E+00 0. -1.
         22    1    3    3    0    0 -0.88960076468E+01  0.31067653464E+02  0.37646564656E+02  0.49614532893E+02  0.00000000000E+00 0. -1.
</event>
<event>
 7    1  0.6058736E-006  0.1010910E+03  0.7818608E-02  0.1289548E+00
          2   -1    0    0  502    0  0.00000000000E+00  0.00000000000E+00  0.10327674807E+04  0.10327674807E+04  0.00000000000E+00 0. -1.
          1   -1    0    0  501    0 -0.00000000000E+00 -0.00000000000E+00 -0.63195595213E+03  0.63195595213E+03  0.00000000000E+00 0. -1.
         25    2    1    2    0    0  0.16015384787E+03 -0.65717212685E+02 -0.17491950961E+03  0.27602842382E+03  0.12500739531E+03 0.  0.
          2    1    1    2  501    0 -0.90409912174E+02 -0.65470947873E+01 -0.39881546731E+03  0.40898727808E+03  0.00000000000E+00 0. -1.
          1    1    1    2  502    0 -0.69743935697E+02  0.72264307472E+02  0.97454650548E+03  0.97970773093E+03  0.00000000000E+00 0. -1.
         22    1    3    3    0    0  0.67219755221E+02 -0.79666043107E+02 -0.40088999573E+02  0.11167946008E+03  0.00000000000E+00 0.  1.
         22    1    3    3    0    0  0.92934092651E+02  0.13948830422E+02 -0.13483051003E+03  0.16434896374E+03  0.00000000000E+00 0.  1.
</event>
<event>
 7    1  0.6331240E-006  0.1115847E+03  0.7818608E-02  0.1274751E+00
          2   -1    0    0  502    0  0.00000000000E+00  0.00000000000E+00  0.16977574992E+04  0.16977574992E+04  0.00000000000E+00 0. -1.
          1   -1    0    0  501    0 -0.00000000000E+00 -0.00000000000E+00 -0.48483007778E+03  0.48483007778E+03  0.00000000000E+00 0. -1.
         25    2    1    2    0    0 -0.16740542134E+02  0.10813174987E+02 -0.88595430211E+02  0.15450330695E+03  0.12499980440E+03 0.  0.
          2    1    1    2  501    0 -0.73719154014E+01 -0.11976144659E+03 -0.35144039776E+03  0.37135899397E+03  0.00000000000E+00 0. -1.
          1    1    1    2  502    0  0.24112457536E+02  0.10894827161E+03  0.16529632494E+04  0.16567252761E+04  0.00000000000E+00 0. -1.
         22    1    3    3    0    0 -0.31144742501E+02 -0.44124976803E+02 -0.80781315899E+02  0.97173193637E+02  0.00000000000E+00 0. -1.
         22    1    3    3    0    0  0.14404200367E+02  0.54938151790E+02 -0.78141143121E+01  0.57330113316E+02  0.00000000000E+00 0. -1.
</event>
<event>
 7    1  0.6058736E-006  0.4298328E+02  0.7818608E-02  0.1526023E+00
          2   -1    0    0  502    0  0.00000000000E+00  0.00000000000E+00  0.97687216307E+03  0.97687216307E+03  0.00000000000E+00 0. -1.
          1   -1    0    0  501    0 -0.00000000000E+00 -0.00000000000E+00 -0.87358767371E+02  0.87358767371E+02  0.00000000000E+00 0. -1.
         25    2    1    2    0    0 -0.48049525563E+01 -0.14430958088E+02  0.54101936228E+02  0.13705315851E+03  0.12500083453E+03 0.  0.
          2    1    1    2  501    0 -0.31831548998E+02 -0.88121519235E+01 -0.39331088483E+02  0.51359868131E+02  0.00000000000E+00 0. -1.
          1    1    1    2  502    0  0.36636501555E+02  0.23243110012E+02  0.87474254796E+03  0.87581790380E+03  0.00000000000E+00 0. -1.
         22    1    3    3    0    0 -0.58491930032E+01  0.89243054557E+01 -0.39324300842E+02  0.40746250421E+02  0.00000000000E+00 0. -1.
         22    1    3    3    0    0  0.10442404468E+01 -0.23355263544E+02  0.93426237070E+02  0.96306908093E+02  0.00000000000E+00 0. -1.
</event>
<event>
 7    1  0.6058736E-006  0.1178976E+03  0.7818608E-02  0.1329744E+00
          2   -1    0    0  502    0  0.00000000000E+00  0.00000000000E+00  0.16727664144E+04  0.16727664144E+04  0.00000000000E+00 0. -1.
          1   -1    0    0  501    0 -0.00000000000E+00 -0.00000000000E+00 -0.48027454775E+02  0.48027454775E+02  0.00000000000E+00 0. -1.
         25    2    1    2    0    0 -0.52132732869E+02 -0.46043325889E+02  0.99723220130E+03  0.10074398366E+04  0.12500060539E+03 0.  0.
          2    1    1    2  501    0  0.10100342275E+03  0.68906709252E+02  0.48020330838E+02  0.13136125061E+03  0.00000000000E+00 0. -1.
          1    1    1    2  502    0 -0.48870689883E+02 -0.22863383364E+02  0.57948642747E+03  0.58199278196E+03  0.00000000000E+00 0. -1.
         22    1    3    3    0    0  0.70518301474E+01 -0.39228008245E+02  0.92164021134E+02  0.10041300579E+03  0.00000000000E+00 0.  1.
         22    1    3    3    0    0 -0.59184563016E+02 -0.68153176437E+01  0.90506818017E+03  0.90702683081E+03  0.00000000000E+00 0.  1.
</event>
<event>
 7    1  0.6058736E-006  0.5979714E+02  0.7818608E-02  0.1494561E+00
          2   -1    0    0  502    0  0.00000000000E+00  0.00000000000E+00  0.21829920371E+03  0.21829920371E+03  0.00000000000E+00 0. -1.
          1   -1    0    0  501    0 -0.00000000000E+00 -0.00000000000E+00 -0.20188310490E+04  0.20188310490E+04  0.00000000000E+00 0. -1.
         25    2    1    2    0    0 -0.45692296522E+02  0.18348552530E+02 -0.95532262466E+03  0.96472457022E+03  0.12501089493E+03 0.  0.
          2    1    1    2  501    0  0.80962410511E+01  0.28245770586E+02 -0.10544033912E+04  0.10548127246E+04  0.00000000000E+00 0. -1.
          1    1    1    2  502    0  0.37596055471E+02 -0.46594323116E+02  0.20919417054E+03  0.21759295788E+03  0.00000000000E+00 0. -1.
         22    1    3    3    0    0 -0.40127264458E+02 -0.86900685650E+01 -0.89567493755E+02  0.98529440180E+02  0.00000000000E+00 0. -1.
         22    1    3    3    0    0 -0.55650320646E+01  0.27038621095E+02 -0.86575513090E+03  0.86619513004E+03  0.00000000000E+00 0. -1.
</event>
<event>
 7    1  0.6058736E-006  0.7171538E+02  0.7818608E-02  0.1470793E+00
          2   -1    0    0  502    0  0.00000000000E+00  0.00000000000E+00  0.40516420144E+03  0.40516420144E+03  0.00000000000E+00 0. -1.
          1   -1    0    0  501    0 -0.00000000000E+00 -0.00000000000E+00 -0.16741666133E+04  0.16741666133E+04  0.00000000000E+00 0. -1.
         25    2    1    2    0    0  0.44858234713E+02 -0.15982439100E+02  0.85358168002E+02  0.15867659236E+03  0.12499817814E+03 0.  0.
          2    1    1    2  501    0  0.21102137104E+02 -0.19835200151E+02 -0.16324025396E+04  0.16326594216E+04  0.00000000000E+00 0. -1.
          1    1    1    2  502    0 -0.65960371816E+02  0.35817639251E+02  0.27804195976E+03  0.28799480085E+03  0.00000000000E+00 0. -1.
         22    1    3    3    0    0  0.11832134660E+02  0.54578675790E+02  0.36485323116E+02  0.66708395758E+02  0.00000000000E+00 0.  1.
         22    1    3    3    0    0  0.33026100053E+02 -0.70561114890E+02  0.48872844886E+02  0.91968196603E+02  0.00000000000E+00 0.  1.
</event>
<event>
 7    1  0.6058736E-006  0.6270678E+02  0.7818608E-02  0.1508870E+00
          2   -1    0    0  502    0  0.00000000000E+00  0.00000000000E+00  0.64572327202E+02  0.64572327202E+02  0.00000000000E+00 0. -1.
          1   -1    0    0  501    0 -0.00000000000E+00 -0.00000000000E+00 -0.17800994847E+04  0.17800994847E+04  0.00000000000E+00 0. -1.
         25    2    1    2    0    0  0.51623474531E+02  0.67775086882E+02 -0.41906271563E+03  0.44552809922E+03  0.12499312798E+03 0.  0.
          2    1    1    2  501    0 -0.79016576417E+01 -0.24141466613E+02 -0.13290590397E+04  0.13293017632E+04  0.00000000000E+00 0. -1.
          1    1    1    2  502    0 -0.43721816889E+02 -0.43633620269E+02  0.32594597886E+02  0.69841949437E+02  0.00000000000E+00 0. -1.
         22    1    3    3    0    0 -0.17696331779E+02  0.31039772229E+02 -0.24696699107E+02  0.43434485898E+02  0.00000000000E+00 0.  1.
         22    1    3    3    0    0  0.69319806310E+02  0.36735314653E+02 -0.39436601652E+03  0.40209361332E+03  0.00000000000E+00 0.  1.
</event>
<event>
 7    1  0.6058736E-006  0.6961827E+02  0.7818608E-02  0.1363231E+00
          2   -1    0    0  502    0  0.00000000000E+00  0.00000000000E+00  0.11136864492E+04  0.11136864492E+04  0.00000000000E+00 0. -1.
          1   -1    0    0  501    0 -0.00000000000E+00 -0.00000000000E+00 -0.10093117327E+03  0.10093117327E+03  0.00000000000E+00 0. -1.
         25    2    1    2    0    0  0.79647422684E+02 -0.27308286472E+02  0.29234231785E+03  0.32890485689E+03  0.12499967851E+03 0.  0.
          2    1    1    2  501    0 -0.57685357077E+02 -0.38975676492E+02 -0.66163300376E+02  0.96043147052E+02  0.00000000000E+00 0. -1.
          1    1    1    2  502    0 -0.21962065607E+02  0.66283962964E+02  0.78657625842E+03  0.78966961850E+03  0.00000000000E+00 0. -1.
         22    1    3    3    0    0  0.74586103929E+02 -0.68383620206E+02  0.15211261983E+03  0.18269552683E+03  0.00000000000E+00 0.  1.
         22    1    3    3    0    0  0.50613187556E+01  0.41075333734E+02  0.14022969802E+03  0.14620933006E+03  0.00000000000E+00 0.  1.
</event>
<event>
 7    1  0.6058736E-006  0.2924099E+02  0.7818608E-02  0.1630391E+00
          2   -1    0    0  502    0  0.00000000000E+00  0.00000000000E+00  0.11390573051E+04  0.11390573051E+04  0.00000000000E+00 0. -1.
          1   -1    0    0  501    0 -0.00000000000E+00 -0.00000000000E+00 -0.51555162367E+02  0.51555162367E+02  0.00000000000E+00 0. -1.
         25    2    1    2    0    0  0.47628771363E+02  0.16598734216E+02  0.44813331565E+03  0.46796704106E+03  0.12500266032E+03 0.  0.
          2    1    1    2  501    0 -0.18951265094E+02 -0.16958704912E+02 -0.37422939189E+02  0.45246265023E+02  0.00000000000E+00 0. -1.
          1    1    1    2  502    0 -0.28677506268E+02  0.35997069636E+00  0.67679176628E+03  0.67739916139E+03  0.00000000000E+00 0. -1.
         22    1    3    3    0    0  0.64926614086E+02  0.42234658160E+02  0.41682370961E+03  0.42395900328E+03  0.00000000000E+00 0. -1.
         22    1    3    3    0    0 -0.17297842724E+02 -0.25635923944E+02  0.31309606035E+02  0.44008037782E+02  0.00000000000E+00 0. -1.
</event>
<event>
 7    1  0.6058736E-006  0.5362733E+02  0.7818608E-02  0.1434616E+00
          2   -1    0    0  502    0  0.00000000000E+00  0.00000000000E+00  0.39353832573E+03  0.39353832573E+03  0.00000000000E+00 0. -1.
          1   -1    0    0  501    0 -0.00000000000E+00 -0.00000000000E+00 -0.18089701109E+03  0.18089701109E+03  0.00000000000E+00 0. -1.
         25    2    1    2    0    0  0.16137616447E+01  0.24919724053E+02  0.41369496725E+02  0.13401652035E+03  0.12500158236E+03 0.  0.
          2    1    1    2  501    0  0.48761221566E+02 -0.28587970500E+02 -0.12641566007E+03  0.13847688578E+03  0.00000000000E+00 0. -1.
          1    1    1    2  502    0 -0.50374983211E+02  0.36682464465E+01  0.29768747797E+03  0.30194193069E+03  0.00000000000E+00 0. -1.
         22    1    3    3    0    0 -0.16594469737E+02 -0.36907906178E+02  0.54856508185E+02  0.68167488252E+02  0.00000000000E+00 0.  1.
         22    1    3    3    0    0  0.18208231381E+02  0.61827630231E+02 -0.13487011460E+02  0.65849032098E+02  0.00000000000E+00 0.  1.
</event>
<event>
 7    1  0.6058736E-006  0.7885729E+02  0.7818608E-02  0.1485329E+00
          2   -1    0    0  502    0  0.00000000000E+00  0.00000000000E+00  0.98975545889E+03  0.98975545889E+03  0.00000000000E+00 0. -1.
          1   -1    0    0  501    0 -0.00000000000E+00 -0.00000000000E+00 -0.16727776377E+04  0.16727776377E+04  0.00000000000E+00 0. -1.
         25    2    1    2    0    0 -0.10384255101E+02  0.57644812586E+02 -0.42443215911E+03  0.44631632042E+03  0.12499937205E+03 0.  0.
          2    1    1    2  501    0  0.65894149164E+01 -0.81101114248E+02 -0.12359211975E+04  0.12385967938E+04  0.00000000000E+00 0. -1.
          1    1    1    2  502    0  0.37948401844E+01  0.23456301662E+02  0.97733117780E+03  0.97761998240E+03  0.00000000000E+00 0. -1.
         22    1    3    3    0    0 -0.54098892130E+02  0.29310768432E+02 -0.35058787200E+03  0.35594615783E+03  0.00000000000E+00 0. -1.
         22    1    3    3    0    0  0.43714637029E+02  0.28334044154E+02 -0.73844287105E+02  0.90370162591E+02  0.00000000000E+00 0. -1.
</event>
<event>
 7    1  0.6058736E-006  0.2019465E+03  0.7818608E-02  0.1342902E+00
          2   -1    0    0  502    0  0.00000000000E+00  0.00000000000E+00  0.18201891622E+04  0.18201891622E+04  0.00000000000E+00 0. -1.
          1   -1    0    0  501    0 -0.00000000000E+00 -0.00000000000E+00 -0.16402560669E+04  0.16402560669E+04  0.00000000000E+00 0. -1.
         25    2    1    2    0    0  0.16144869263E+03 -0.93132020100E+02 -0.13554593688E+03  0.26217774503E+03  0.12500086184E+03 0.  0.
          2    1    1    2  501    0  0.69308813503E+00 -0.28079049319E+02 -0.14354247038E+04  0.14356994788E+04  0.00000000000E+00 0. -1.
          1    1    1    2  502    0 -0.16214178077E+03  0.12121106942E+03  0.17509037359E+04  0.17625680052E+04  0.00000000000E+00 0. -1.
         22    1    3    3    0    0  0.16043456779E+03 -0.69115497118E+02 -0.15320290546E+03  0.23235174354E+03  0.00000000000E+00 0.  1.
         22    1    3    3    0    0  0.10141248418E+01 -0.24016522982E+02  0.17656968579E+02  0.29826001488E+02  0.00000000000E+00 0.  1.
</event>
<event>
 7    1  0.6058736E-006  0.6724559E+02  0.7818608E-02  0.1411897E+00
          2   -1    0    0  502    0  0.00000000000E+00  0.00000000000E+00  0.17478996825E+04  0.17478996825E+04  0.00000000000E+00 0. -1.
          1   -1    0    0  501    0 -0.00000000000E+00 -0.00000000000E+00 -0.20640291322E+03  0.20640291322E+03  0.00000000000E+00 0. -1.
         25    2    1    2    0    0 -0.11324306997E+01  0.26249177467E+02  0.15964560282E+03  0.20444961585E+03  0.12499050045E+03 0.  0.
          2    1    1    2  501    0 -0.31897919168E+02 -0.60981928973E+02 -0.17718456954E+03  0.19008062656E+03  0.00000000000E+00 0. -1.
          1    1    1    2  502    0  0.33030349867E+02  0.34732751507E+02  0.15590357360E+04  0.15597723533E+04  0.00000000000E+00 0. -1.
         22    1    3    3    0    0 -0.32299479848E+02  0.16863776599E+02 -0.48557175066E+01  0.36758962882E+02  0.00000000000E+00 0.  1.
         22    1    3    3    0    0  0.31167049149E+02  0.93854008676E+01  0.16450132033E+03  0.16769065296E+03  0.00000000000E+00 0.  1.
</event>
<event>
 7    1  0.6058736E-006  0.2858350E+03  0.7818608E-02  0.1299711E+00
          2   -1    0    0  502    0  0.00000000000E+00  0.00000000000E+00  0.15326933135E+03  0.15326933135E+03  0.00000000000E+00 0. -1.
          1   -1    0    0  501    0 -0.00000000000E+00 -0.00000000000E+00 -0.22302381378E+04  0.22302381378E+04  0.00000000000E+00 0. -1.
         25    2    1    2    0    0  0.40030006448E+02 -0.27403757582E+03 -0.12014107363E+04  0.12392395036E+04  0.12501118201E+03 0.  0.
          2    1    1    2  501    0 -0.20612311329E+02  0.29580389525E+03 -0.98621687719E+03  0.10298293745E+04  0.00000000000E+00 0. -1.
          1    1    1    2  502    0 -0.19417695119E+02 -0.21766319432E+02  0.11065880701E+03  0.11443859102E+03  0.00000000000E+00 0. -1.
         22    1    3    3    0    0 -0.38238518274E+02 -0.69070206867E+02 -0.22397521897E+03  0.23748216032E+03  0.00000000000E+00 0. -1.
         22    1    3    3    0    0  0.78268524722E+02 -0.20496736895E+03 -0.97743551731E+03  0.10017573433E+04  0.00000000000E+00 0. -1.
</event>
<event>
 7    1  0.6265741E-006  0.8961820E+02  0.7818608E-02  0.1376497E+00
          2   -1    0    0  502    0  0.00000000000E+00  0.00000000000E+00  0.29543404137E+04  0.29543404137E+04  0.00000000000E+00 0. -1.
          1   -1    0    0  501    0 -0.00000000000E+00 -0.00000000000E+00 -0.11558402094E+04  0.11558402094E+04  0.00000000000E+00 0. -1.
         25    2    1    2    0    0 -0.71063621672E+02 -0.30119701165E+02 -0.58378154135E+02  0.15807967027E+03  0.12499575413E+03 0.  0.
          2    1    1    2  501    0  0.89473812003E+02 -0.13902790293E+02 -0.10454582580E+04  0.10493721074E+04  0.00000000000E+00 0. -1.
          1    1    1    2  502    0 -0.18410190332E+02  0.44022491458E+02  0.29023366165E+04  0.29027288454E+04  0.00000000000E+00 0. -1.
         22    1    3    3    0    0 -0.68120186453E+02  0.13127209177E+02  0.16728482200E+02  0.71361933409E+02  0.00000000000E+00 0.  1.
         22    1    3    3    0    0 -0.29434352192E+01 -0.43246910342E+02 -0.75106636335E+02  0.86717736862E+02  0.00000000000E+00 0.  1.
</event>
<event>
 7    1  0.6058736E-006  0.4916652E+02  0.7818608E-02  0.1515779E+00
          2   -1    0    0  502    0  0.00000000000E+00  0.00000000000E+00  0.69473009621E+03  0.69473009621E+03  0.00000000000E+00 0. -1.
          1   -1    0    0  501    0 -0.00000000000E+00 -0.00000000000E+00 -0.26401133354E+04  0.26401133354E+04  0.00000000000E+00 0. -1.
         25    2    1    2    0    0 -0.99113111230E+01  0.15801119867E+02  0.48514011134E+02  0.13537614379E+03  0.12500072622E+03 0.  0.
          2    1    1    2  501    0  0.19719334713E+02 -0.45123963543E+02 -0.25960521025E+04  0.25965191205E+04  0.00000000000E+00 0. -1.
          1    1    1    2  502    0 -0.98080235896E+01  0.29322843676E+02  0.60215485217E+03  0.60294816733E+03  0.00000000000E+00 0. -1.
         22    1    3    3    0    0  0.38886472377E+02 -0.35997289919E+02  0.33359839107E+02  0.62616623038E+02  0.00000000000E+00 0.  1.
         22    1    3    3    0    0 -0.48797783500E+02  0.51798409786E+02  0.15154172027E+02  0.72759520756E+02  0.00000000000E+00 0.  1.
</event>
<event>
 7    1  0.6058736E-006  0.4885329E+02  0.7818608E-02  0.1499146E+00
          2   -1    0    0  502    0  0.00000000000E+00  0.00000000000E+00  0.17514860214E+04  0.17514860214E+04  0.00000000000E+00 0. -1.
          1   -1    0    0  501    0 -0.00000000000E+00 -0.00000000000E+00 -0.32040269175E+03  0.32040269175E+03  0.00000000000E+00 0. -1.
         25    2    1    2    0    0  0.31109053462E+02 -0.35505210666E+02  0.90073601691E+03  0.91059213802E+03  0.12499710585E+03 0.  0.
          2    1    1    2  501    0 -0.31343016810E+02 -0.15225083691E+02 -0.31374855769E+03  0.31567759712E+03  0.00000000000E+00 0. -1.
          1    1    1    2  502    0  0.23396334755E+00  0.50730294357E+02  0.84409587045E+03  0.84561897804E+03  0.00000000000E+00 0. -1.
         22    1    3    3    0    0  0.77387594932E+02 -0.91660310769E+01  0.61709792563E+03  0.62199895964E+03  0.00000000000E+00 0. -1.
         22    1    3    3    0    0 -0.46278541470E+02 -0.26339179589E+02  0.28363809128E+03  0.28859317838E+03  0.00000000000E+00 0. -1.
</event>
<event>
 7    1  0.6058736E-006  0.1096806E+03  0.7818608E-02  0.1332692E+00
          2   -1    0    0  502    0  0.00000000000E+00  0.00000000000E+00  0.10317098155E+04  0.10317098155E+04  0.00000000000E+00 0. -1.
          1   -1    0    0  501    0 -0.00000000000E+00 -0.00000000000E+00 -0.16907996448E+03  0.16907996448E+03  0.00000000000E+00 0. -1.
         25    2    1    2    0    0  0.20001251942E+02  0.79308289784E+02  0.60902559142E+03  0.62707544774E+03  0.12498636424E+03 0.  0.
          2    1    1    2  501    0  0.29295278028E+02 -0.10694446901E+03 -0.13857851014E+03  0.17748052355E+03  0.00000000000E+00 0. -1.
          1    1    1    2  502    0 -0.49296529971E+02  0.27636179226E+02  0.39218276972E+03  0.39623380868E+03  0.00000000000E+00 0. -1.
         22    1    3    3    0    0 -0.27604532702E+01  0.96796177592E+02  0.57244418233E+03  0.58057683556E+03  0.00000000000E+00 0. -1.
         22    1    3    3    0    0  0.22761705213E+02 -0.17487887808E+02  0.36581409084E+02  0.46498612181E+02  0.00000000000E+00 0. -1.
</event>
<event>
 7    1  0.6058736E-006  0.1530927E+03  0.7818608E-02  0.1207053E+00
          2   -1    0    0  502    0  0.00000000000E+00  0.00000000000E+00  0.24610972247E+04  0.24610972247E+04  0.00000000000E+00 0. -1.
          1   -1    0    0  501    0 -0.00000000000E+00 -0.00000000000E+00 -0.11126821984E+04  0.11126821984E+04  0.00000000000E+00 0. -1.
         25    2    1    2    0    0 -0.30297892488E+02 -0.10500381073E+03 -0.44990619779E+01  0.16609876146E+03  0.12499917777E+03 0.  0.
          2    1    1    2  501    0 -0.12046748942E+03  0.65026154251E+02 -0.10202514637E+04  0.10293949028E+04  0.00000000000E+00 0. -1.
          1    1    1    2  502    0  0.15076538191E+03  0.39977656479E+02  0.23731655520E+04  0.23782857588E+04  0.00000000000E+00 0. -1.
         22    1    3    3    0    0  0.41226193324E+02 -0.17993380728E+02  0.22468242472E+02  0.50281037040E+02  0.00000000000E+00 0. -1.
         22    1    3    3    0    0 -0.71524085813E+02 -0.87010430002E+02 -0.26967304450E+02  0.11581772442E+03  0.00000000000E+00 0. -1.
</event>
<event>
 7    1  0.6058736E-006  0.1555336E+03  0.7818608E-02  0.1278976E+00
          2   -1    0    0  502    0  0.00000000000E+00  0.00000000000E+00  0.14464586272E+04  0.14464586272E+04  0.00000000000E+00 0. -1.
          1   -1    0    0  501    0 -0.00000000000E+00 -0.00000000000E+00 -0.36740197525E+03  0.36740197525E+03  0.00000000000E+00 0. -1.
         25    2    1    2    0    0  0.15026528508E+03  0.14599311470E+02  0.96791142315E+02  0.21860036218E+03  0.12499918928E+03 0.  0.
          2    1    1    2  501    0 -0.14233020249E+02  0.63533183941E+02 -0.29819795434E+03  0.30522297473E+03  0.00000000000E+00 0. -1.
          1    1    1    2  502    0 -0.13603226483E+03 -0.78132495411E+02  0.12804634639E+04  0.12900372655E+04  0.00000000000E+00 0. -1.
         22    1    3    3    0    0  0.68456691502E+01  0.17456884451E+02  0.70260336308E+02  0.72719466850E+02  0.00000000000E+00 0.  1.
         22    1    3    3    0    0  0.14341961593E+03 -0.28575729802E+01  0.26530806007E+02  0.14588089533E+03  0.00000000000E+00 0.  1.
</event>
<event>
 7    1  0.6058736E-006  0.6388983E+02  0.7818608E-02  0.1521645E+00
          2   -1    0    0  502    0  0.00000000000E+00  0.00000000000E+00  0.46578284870E+03  0.46578284870E+03  0.00000000000E+00 0. -1.
          1   -1    0    0  501    0 -0.00000000000E+00 -0.00000000000E+00 -0.23206479417E+04  0.23206479417E+04  0.00000000000E+00 0. -1.
         25    2    1    2    0    0 -0.71576781894E+02  0.48111419703E+02  0.17592771517E+02  0.15288082621E+03  0.12500038801E+03 0.  0.
          2    1    1    2  501    0  0.54896401993E+02 -0.32454290866E+02 -0.22522083269E+04  0.22531110145E+04  0.00000000000E+00 0. -1.
          1    1    1    2  502    0  0.16680379901E+02 -0.15657128837E+02  0.37975046238E+03  0.38043894968E+03  0.00000000000E+00 0. -1.
         22    1    3    3    0    0  0.29756566934E+02 -0.37125569209E+01 -0.16292410816E+02  0.34127393759E+02  0.00000000000E+00 0. -1.
         22    1    3    3    0    0 -0.10133334883E+03  0.51823976624E+02  0.33885182333E+02  0.11875343245E+03  0.00000000000E+00 0. -1.
</event>
<event>
 7    1  0.6058736E-006  0.9077676E+02  0.7818608E-02  0.1316472E+00
          2   -1    0    0  502    0  0.00000000000E+00  0.00000000000E+00  0.13747063984E+04  0.13747063984E+04  0.00000000000E+00 0. -1.
          1   -1    0    0  501    0 -0.00000000000E+00 -0.00000000000E+00 -0.21053302365E+03  0.21053302365E+03  0.00000000000E+00 0. -1.
         25    2    1    2    0    0  0.92498181377E+02  0.15787640884E+02 -0.19786705920E+02  0.15754575580E+03  0.12499595304E+03 0.  0.
          2    1    1    2  501    0 -0.50971449788E+02 -0.82816837252E+02 -0.10106434719E+03  0.14025234222E+03  0.00000000000E+00 0. -1.
          1    1    1    2  502    0 -0.41526731589E+02  0.67029196368E+02  0.12850244278E+04  0.12874413240E+04  0.00000000000E+00 0. -1.
         22    1    3    3    0    0  0.22005957596E+02 -0.29800701692E+02 -0.55162630142E+02  0.66447420982E+02  0.00000000000E+00 0. -1.
         22    1    3    3    0    0  0.70492223781E+02  0.45588342576E+02  0.35375924222E+02  0.91098334820E+02  0.00000000000E+00 0. -1.
</event>
<event>
 7    1  0.6058736E-006  0.8494838E+02  0.7818608E-02  0.1373710E+00
          2   -1    0    0  502    0  0.00000000000E+00  0.00000000000E+00  0.21933019909E+04  0.21933019909E+04  0.00000000000E+00 0. -1.
          1   -1    0    0  501    0 -0.00000000000E+00 -0.00000000000E+00 -0.34324296203E+03  0.34324296203E+03  0.00000000000E+00 0. -1.
         25    2    1    2    0    0  0.10964996534E+03 -0.53154586337E+02 -0.13940959541E+03  0.22339715178E+03  0.12499090841E+03 0.  0.
          2    1    1    2  501    0 -0.50881592210E+02 -0.79965420330E+01 -0.15688274940E+03  0.16512140433E+03  0.00000000000E+00 0. -1.
          1    1    1    2  502    0 -0.58768373130E+02  0.61151128371E+02  0.21463513736E+04  0.21480263968E+04  0.00000000000E+00 0. -1.
         22    1    3    3    0    0  0.12628867353E+02  0.37492743015E+02 -0.47967505519E+02  0.62177774607E+02  0.00000000000E+00 0.  1.
         22    1    3    3    0    0  0.97021097987E+02 -0.90647329352E+02 -0.91442089890E+02  0.16121937717E+03  0.00000000000E+00 0.  1.
</event>
<event>
 7    1  0.6058736E-006  0.2823460E+03  0.7818608E-02  0.1178229E+00
          2   -1    0    0  502    0  0.00000000000E+00  0.00000000000E+00  0.80197950018E+03  0.80197950018E+03  0.00000000000E+00 0. -1.
          1   -1    0    0  501    0 -0.00000000000E+00 -0.00000000000E+00 -0.81391947708E+03  0.81391947708E+03  0.00000000000E+00 0. -1.
         25    2    1    2    0    0  0.58248725657E+02 -0.21724282613E+03 -0.67002025644E+02  0.26589927003E+03  0.12500316323E+03 0.  0.
          2    1    1    2  501    0 -0.64626325019E+01  0.30502284810E+03 -0.60741409116E+03  0.67972978574E+03  0.00000000000E+00 0. -1.
          1    1    1    2  502    0 -0.51786093155E+02 -0.87780021975E+02  0.66247613990E+03  0.67026992148E+03  0.00000000000E+00 0. -1.
         22    1    3    3    0    0  0.17717658828E+02 -0.21524450436E+03 -0.48765250818E+02  0.22140948891E+03  0.00000000000E+00 0. -1.
         22    1    3    3    0    0  0.40531066828E+02 -0.19983217667E+01 -0.18236774826E+02  0.44489781121E+02  0.00000000000E+00 0. -1.
</event>
<event>
 7    1  0.6058736E-006  0.4553809E+02  0.7818608E-02  0.1568971E+00
          2   -1    0    0  502    0  0.00000000000E+00  0.00000000000E+00  0.13557107287E+04  0.13557107287E+04  0.00000000000E+00 0. -1.
          1   -1    0    0  501    0 -0.00000000000E+00 -0.00000000000E+00 -0.38141009376E+02  0.38141009376E+02  0.00000000000E+00 0. -1.
         25    2    1    2    0    0 -0.58646334334E+01 -0.65627378805E+02  0.81461474585E+03  0.82678141790E+03  0.12501592723E+03 0.  0.
          2    1    1    2  501    0  0.57190949311E+01  0.22934751438E+02 -0.26721761727E+02  0.35675810013E+02  0.00000000000E+00 0. -1.
          1    1    1    2  502    0  0.14553850224E+00  0.42692627367E+02  0.52967673522E+03  0.53139451018E+03  0.00000000000E+00 0. -1.
         22    1    3    3    0    0  0.21263453299E+02  0.95146491879E+01  0.29386694475E+02  0.37499877434E+02  0.00000000000E+00 0. -1.
         22    1    3    3    0    0 -0.27128086733E+02 -0.75142027992E+02  0.78522805137E+03  0.78928154047E+03  0.00000000000E+00 0. -1.
</event>
<event>
 7    1  0.6058736E-006  0.6715633E+02  0.7818608E-02  0.1404972E+00
          2   -1    0    0  502    0  0.00000000000E+00  0.00000000000E+00  0.17761032013E+03  0.17761032013E+03  0.00000000000E+00 0. -1.
          1   -1    0    0  501    0 -0.00000000000E+00 -0.00000000000E+00 -0.54629388172E+03  0.54629388172E+03  0.00000000000E+00 0. -1.
         25    2    1    2    0    0 -0.17651217551E+02 -0.58756691606E+01 -0.97858685034E+01  0.12675349491E+03  0.12499838511E+03 0.  0.
          2    1    1    2  501    0  0.65252485707E+02  0.23228784306E+02 -0.46998152852E+03  0.47505799695E+03  0.00000000000E+00 0. -1.
          1    1    1    2  502    0 -0.47601268156E+02 -0.17353115145E+02  0.11108383544E+03  0.12209270998E+03  0.00000000000E+00 0. -1.
         22    1    3    3    0    0 -0.18391740890E+02 -0.27749331792E+02  0.51698476709E+02  0.61489950739E+02  0.00000000000E+00 0.  1.
         22    1    3    3    0    0  0.74052333838E+00  0.21873662632E+02 -0.61484345213E+02  0.65263544173E+02  0.00000000000E+00 0.  1.
</event>
<event>
 7    1  0.6058736E-006  0.1175704E+03  0.7818608E-02  0.1319345E+00
          2   -1    0    0  502    0  0.00000000000E+00  0.00000000000E+00  0.11562481195E+04  0.11562481195E+04  0.00000000000E+00 0. -1.
          1   -1    0    0  501    0 -0.00000000000E+00 -0.00000000000E+00 -0.24969733454E+03  0.24969733454E+03  0.00000000000E+00 0. -1.
         25    2    1    2    0    0 -0.82368907371E+02 -0.14668981240E+03  0.24754055298E+02  0.21104664917E+03  0.12500154763E+03 0.  0.
          2    1    1    2  501    0  0.58590177097E+02  0.92330087465E+02 -0.13648609498E+03  0.17488884478E+03  0.00000000000E+00 0. -1.
          1    1    1    2  502    0  0.23778730274E+02  0.54359724939E+02  0.10182828246E+04  0.10200099601E+04  0.00000000000E+00 0. -1.
         22    1    3    3    0    0 -0.58834093835E+02 -0.16093767183E+03  0.44671927690E+02  0.17708180577E+03  0.00000000000E+00 0.  1.
         22    1    3    3    0    0 -0.23534813536E+02  0.14247859430E+02 -0.19917872392E+02  0.33964843399E+02  0.00000000000E+00 0.  1.
</event>
<event>
 7    1  0.6058736E-006  0.9545514E+02  0.7818608E-02  0.1347901E+00
          2   -1    0    0  502    0  0.00000000000E+00  0.00000000000E+00  0.22871059549E+03  0.22871059549E+03  0.00000000000E+00 0. -1.
          1   -1    0    0  501    0 -0.00000000000E+00 -0.00000000000E+00 -0.67409116219E+03  0.67409116219E+03  0.00000000000E+00 0. -1.
         25    2    1    2    0    0  0.64943692368E+02 -0.12527501477E+02 -0.23056130276E+03  0.27047744827E+03  0.12499965689E+03 0.  0.
          2    1    1    2  501    0  0.24217161102E+02  0.51516254071E+02 -0.41015739258E+03  0.41408873688E+03  0.00000000000E+00 0. -1.
          1    1    1    2  502    0 -0.89160853471E+02 -0.38988752593E+02  0.19533812863E+03  0.21823557253E+03  0.00000000000E+00 0. -1.
         22    1    3    3    0    0 -0.31771831127E+02  0.17627354667E+02 -0.91311260352E+02  0.98274712682E+02  0.00000000000E+00 0.  1.
         22    1    3    3    0    0  0.96715523495E+02 -0.30154856144E+02 -0.13925004240E+03  0.17220273559E+03  0.00000000000E+00 0.  1.
</event>
<event>
 7    1  0.6058736E-006  0.6190294E+02  0.7818608E-02  0.1425732E+00
          2   -1    0    0  502    0  0.00000000000E+00  0.00000000000E+00  0.78579143461E+03  0.78579143461E+03  0.00000000000E+00 0. -1.
          1   -1    0    0  501    0 -0.00000000000E+00 -0.00000000000E+00 -0.37059525430E+02  0.37059525430E+02  0.00000000000E+00 0. -1.
         25    2    1    2    0    0 -0.18609012819E+02  0.96924154159E+02  0.40349596391E+03  0.43379033886E+03  0.12499791271E+03 0.  0.
          2    1    1    2  501    0 -0.67701135876E+01 -0.46311163844E+02  0.84643548764E+01  0.47562628586E+02  0.00000000000E+00 0. -1.
          1    1    1    2  502    0  0.25379126407E+02 -0.50612990315E+02  0.33677159040E+03  0.34149799259E+03  0.00000000000E+00 0. -1.
         22    1    3    3    0    0 -0.39290101008E+02  0.11625397019E+03  0.37061442715E+03  0.39040203795E+03  0.00000000000E+00 0.  1.
         22    1    3    3    0    0  0.20681088189E+02 -0.19329816033E+02  0.32881536752E+02  0.43388300909E+02  0.00000000000E+00 0.  1.
</event>
<event>
 7    1  0.6058736E-006  0.8533187E+02  0.7818608E-02  0.1367673E+00
          2   -1    0    0  502    0  0.00000000000E+00  0.00000000000E+00  0.70595747111E+03  0.70595747111E+03  0.00000000000E+00 0. -1.
          1   -1    0    0  501    0 -0.00000000000E+00 -0.00000000000E+00 -0.32937896807E+04  0.32937896807E+04  0.00000000000E+00 0. -1.
         25    2    1    2    0    0 -0.13515289726E+03 -0.24256338241E+02 -0.54604814061E+03  0.57675672124E+03  0.12500027221E+03 0.  0.
          2    1    1    2  501    0  0.50182767707E+02  0.19667752281E+02 -0.27294989276E+04  0.27300310487E+04  0.00000000000E+00 0. -1.
          1    1    1    2  502    0  0.84970129551E+02  0.45885859598E+01  0.68771485871E+03  0.69295938187E+03  0.00000000000E+00 0. -1.
         22    1    3    3    0    0 -0.15801073663E+03 -0.11239298785E+02 -0.44552984187E+03  0.47285362928E+03  0.00000000000E+00 0.  1.
         22    1    3    3    0    0  0.22857839376E+02 -0.13017039456E+02 -0.10051829874E+03  0.10390309196E+03  0.00000000000E+00 0.  1.
</event>
<event>
 7    1  0.6058736E-006  0.3608852E+02  0.7818608E-02  0.1581937E+00
          2   -1    0    0  502    0  0.00000000000E+00  0.00000000000E+00  0.62491080900E+03  0.62491080900E+03  0.00000000000E+00 0. -1.
          1   -1    0    0  501    0 -0.00000000000E+00 -0.00000000000E+00 -0.49581164578E+03  0.49581164578E+03  0.00000000000E+00 0. -1.
         25    2    1    2    0    0  0.11191946999E+02  0.52596453784E+02 -0.12001381128E+03  0.18143537515E+03  0.12499533524E+03 0.  0.
          2    1    1    2  501    0  0.94920986826E+01 -0.34446106404E+02 -0.34384222866E+03  0.34569366844E+03  0.00000000000E+00 0. -1.
          1    1    1    2  502    0 -0.20684045682E+02 -0.18150347380E+02  0.59295520316E+03  0.59359341119E+03  0.00000000000E+00 0. -1.
         22    1    3    3    0    0  0.60093893883E+02  0.61523135794E+02 -0.82319834602E+02  0.11905010495E+03  0.00000000000E+00 0.  1.
         22    1    3    3    0    0 -0.48901946884E+02 -0.89266820107E+01 -0.37693976673E+02  0.62385270202E+02  0.00000000000E+00 0.  1.
</event>
<event>
 7    1  0.6058736E-006  0.2219430E+03  0.7818608E-02  0.1161825E+00
          2   -1    0    0  502    0  0.00000000000E+00  0.00000000000E+00  0.74241653573E+03  0.74241653573E+03  0.00000000000E+00 0. -1.
          1   -1    0    0  501    0 -0.00000000000E+00 -0.00000000000E+00 -0.40393363220E+03  0.40393363220E+03  0.00000000000E+00 0. -1.
         25    2    1    2    0    0 -0.94751561091E+02 -0.11646925007E+03 -0.45911548132E+02  0.20068845599E+03  0.12500016630E+03 0.  0.
          2    1    1    2  501    0  0.14597539098E+03  0.26425407622E+03 -0.18574442875E+03  0.35445736610E+03  0.00000000000E+00 0. -1.
          1    1    1    2  502    0 -0.51223829893E+02 -0.14778482614E+03  0.57013888042E+03  0.59120434585E+03  0.00000000000E+00 0. -1.
         22    1    3    3    0    0 -0.79490965365E+02 -0.45304411305E+01 -0.35688656138E+02  0.87252613992E+02  0.00000000000E+00 0. -1.
         22    1    3    3    0    0 -0.15260595726E+02 -0.11193880894E+03 -0.10222891994E+02  0.11343584200E+03  0.00000000000E+00 0. -1.
</event>
<event>
 7    1  0.6058736E-006  0.1219214E+03  0.7818608E-02  0.1425962E+00
          2   -1    0    0  502    0  0.00000000000E+00  0.00000000000E+00  0.91365631701E+03  0.91365631701E+03  0.00000000000E+00 0. -1.
          1   -1    0    0  501    0 -0.00000000000E+00 -0.00000000000E+00 -0.48880902523E+03  0.48880902523E+03  0.00000000000E+00 0. -1.
         25    2    1    2    0    0 -0.97699964486E+02 -0.34393216482E+02  0.16623629102E+03  0.23235077971E+03  0.12499681588E+03 0.  0.
          2    1    1    2  501    0  0.10980018745E+03  0.54796802406E+02 -0.44728853054E+03  0.46381655886E+03  0.00000000000E+00 0. -1.
          1    1    1    2  502    0 -0.12100222967E+02 -0.20403585924E+02  0.70589953129E+03  0.70629800367E+03  0.00000000000E+00 0. -1.
         22    1    3    3    0    0 -0.52578959820E+02  0.43385234626E+02  0.98436816614E+02  0.11973567749E+03  0.00000000000E+00 0. -1.
         22    1    3    3    0    0 -0.45121004666E+02 -0.77778451108E+02  0.67799474405E+02  0.11261510222E+03  0.00000000000E+00 0. -1.
</event>
<event>
 7    1  0.6058736E-006  0.7632155E+02  0.7818608E-02  0.1477185E+00
          2   -1    0    0  502    0  0.00000000000E+00  0.00000000000E+00  0.56694151442E+03  0.56694151442E+03  0.00000000000E+00 0. -1.
          1   -1    0    0  501    0 -0.00000000000E+00 -0.00000000000E+00 -0.31425789139E+03  0.31425789139E+03  0.00000000000E+00 0. -1.
         25    2    1    2    0    0 -0.24778357761E+02  0.68181749708E+02  0.63371075933E+02  0.15780821590E+03  0.12499928693E+03 0.  0.
          2    1    1    2  501    0  0.21640290240E+00 -0.76714480981E+02 -0.26114702437E+03  0.27218178991E+03  0.00000000000E+00 0. -1.
          1    1    1    2  502    0  0.24561954859E+02  0.85327312723E+01  0.45045957147E+03  0.45120940001E+03  0.00000000000E+00 0. -1.
         22    1    3    3    0    0 -0.13954562574E+02 -0.32082864675E+02 -0.58748508120E+01  0.35476103146E+02  0.00000000000E+00 0. -1.
         22    1    3    3    0    0 -0.10823795187E+02  0.10026461438E+03  0.69245926745E+02  0.12233211275E+03  0.00000000000E+00 0. -1.
</event>
<event>
 7    1  0.6058736E-006  0.3776856E+03  0.7818608E-02  0.1154975E+00
          2   -1    0    0  502    0  0.00000000000E+00  0.00000000000E+00  0.12766224006E+04  0.12766224006E+04  0.00000000000E+00 0. -1.
          1   -1    0    0  501    0 -0.00000000000E+00 -0.00000000000E+00 -0.79964282879E+03  0.79964282879E+03  0.00000000000E+00 0. -1.
         25    2    1    2    0    0 -0.21004126126E+03  0.32461788350E+03 -0.50544369399E+03  0.64853194007E+03  0.12500499099E+03 0.  0.
          2    1    1    2  501    0 -0.69938219604E+02 -0.70862863625E+02 -0.17985547837E+03  0.20557454391E+03  0.00000000000E+00 0. -1.
          1    1    1    2  502    0  0.27997948086E+03 -0.25375501988E+03  0.11622787442E+04  0.12221587454E+04  0.00000000000E+00 0. -1.
         22    1    3    3    0    0 -0.14848604940E+03  0.14665260969E+03 -0.33415272605E+03  0.39397098767E+03  0.00000000000E+00 0.  1.
         22    1    3    3    0    0 -0.61555211855E+02  0.17796527381E+03 -0.17129096794E+03  0.25456095240E+03  0.00000000000E+00 0.  1.
</event>
<event>
 7    1  0.6058736E-006  0.8912904E+02  0.7818608E-02  0.1433391E+00
          2   -1    0    0  502    0  0.00000000000E+00  0.00000000000E+00  0.48013435581E+03  0.48013435581E+03  0.00000000000E+00 0. -1.
          1   -1    0    0  501    0 -0.00000000000E+00 -0.00000000000E+00 -0.46294225748E+03  0.46294225748E+03  0.00000000000E+00 0. -1.
         25    2    1    2    0    0  0.39623491022E+02  0.46916796267E+02 -0.18010850603E+03  0.22768148161E+03  0.12501430442E+03 0.  0.
          2    1    1    2  501    0  0.67507497149E+01  0.29919841961E+02 -0.25370219133E+03  0.25554954793E+03  0.00000000000E+00 0. -1.
          1    1    1    2  502    0 -0.46374240737E+02 -0.76836638228E+02  0.45100279568E+03  0.45984558375E+03  0.00000000000E+00 0. -1.
         22    1    3    3    0    0  0.79461652446E+02  0.23619961133E+01 -0.10097700853E+03  0.12851493877E+03  0.00000000000E+00 0.  1.
         22    1    3    3    0    0 -0.39838161423E+02  0.44554800154E+02 -0.79131497503E+02  0.99166542843E+02  0.00000000000E+00 0.  1.
</event>
<event>
 7    1  0.6058736E-006  0.1391313E+03  0.7818608E-02  0.1314653E+00
          2   -1    0    0  502    0  0.00000000000E+00  0.00000000000E+00  0.20849218626E+04  0.20849218626E+04  0.00000000000E+00 0. -1.
          1   -1    0    0  501    0 -0.00000000000E+00 -0.00000000000E+00 -0.17180100769E+04  0.17180100769E+04  0.00000000000E+00 0. -1.
         25    2    1    2    0    0  0.14107842292E+03  0.10507155456E+03  0.49605845381E+02  0.22142382147E+03  0.12499846331E+03 0.  0.
          2    1    1    2  501    0 -0.14163487270E+02 -0.50340419541E+02 -0.16292311951E+04  0.16300702590E+04  0.00000000000E+00 0. -1.
          1    1    1    2  502    0 -0.12691493565E+03 -0.54731135017E+02  0.19465371354E+04  0.19514378590E+04  0.00000000000E+00 0. -1.
         22    1    3    3    0    0  0.21712707157E+02  0.84840577178E+02 -0.68445148016E+01  0.87841974994E+02  0.00000000000E+00 0.  1.
         22    1    3    3    0    0  0.11936571576E+03  0.20230977379E+02  0.56450360182E+02  0.13358184648E+03  0.00000000000E+00 0.  1.
</event>
<event>
 7    1  0.6058736E-006  0.3169391E+02  0.7818608E-02  0.1602679E+00
          2   -1    0    0  502    0  0.00000000000E+00  0.00000000000E+00  0.11233235348E+04  0.11233235348E+04  0.00000000000E+00 0. -1.
          1   -1    0    0  501    0 -0.00000000000E+00 -0.00000000000E+00 -0.12460170344E+04  0.12460170344E+04  0.00000000000E+00 0. -1.
         25    2    1    2    0    0  0.20368821184E+01  0.15287568360E+02 -0.54156804063E+03  0.55601992009E+03  0.12499740107E+03 0.  0.
          2    1    1    2  501    0 -0.27363132245E+02  0.37836759012E+01 -0.69672416048E+03  0.69727154897E+03  0.00000000000E+00 0. -1.
          1    1    1    2  502    0  0.25326250127E+02 -0.19071244261E+02  0.11155987015E+04  0.11160491002E+04  0.00000000000E+00 0. -1.
         22    1    3    3    0    0  0.52676691936E+02 -0.77779239614E+01 -0.12666684757E+03  0.13740385820E+03  0.00000000000E+00 0.  1.
         22    1    3    3    0    0 -0.50639809818E+02  0.23065492321E+02 -0.41490119306E+03  0.41861606189E+03  0.00000000000E+00 0.  1.
</event>
<event>
 7    1  0.6058736E-006  0.4642017E+02  0.7818608E-02  0.1474832E+00
          2   -1    0    0  502    0  0.00000000000E+00  0.00000000000E+00  0.27450198578E+03  0.27450198578E+03  0.00000000000E+00 0. -1.
          1   -1    0    0  501    0 -0.00000000000E+00 -0.00000000000E+00 -0.55389982525E+03  0.55389982525E+03  0.00000000000E+00 0. -1.
         25    2    1    2    0    0 -0.26103183207E+02  0.20992992377E+02  0.27488864845E+02  0.13228739590E+03  0.12498894160E+03 0.  0.
          2    1    1    2  501    0  0.42747815904E+02  0.19165666580E+02 -0.49795977135E+03  0.50015860727E+03  0.00000000000E+00 0. -1.
          1    1    1    2  502    0 -0.16644632697E+02 -0.40158658957E+02  0.19107306704E+03  0.19595580786E+03  0.00000000000E+00 0. -1.
         22    1    3    3    0    0  0.31391753637E+01  0.50858640458E+00  0.73768099055E+02  0.73836613683E+02  0.00000000000E+00 0.  1.
         22    1    3    3    0    0 -0.29242358571E+02  0.20484405972E+02 -0.46279234210E+02  0.58450782218E+02  0.00000000000E+00 0.  1.
</event>
<event>
 7    1  0.6058736E-006  0.3342075E+02  0.7818608E-02  0.1569529E+00
          2   -1    0    0  502    0  0.00000000000E+00  0.00000000000E+00  0.22601219828E+04  0.22601219828E+04  0.00000000000E+00 0. -1.
          1   -1    0    0  501    0 -0.00000000000E+00 -0.00000000000E+00 -0.10376846733E+03  0.10376846733E+03  0.00000000000E+00 0. -1.
         25    2    1    2    0    0  0.23527008940E+02 -0.60073553453E+02  0.20068299402E+03  0.24507160082E+03  0.12499629380E+03 0.  0.
          2    1    1    2  501    0 -0.80234036453E+01  0.31971652013E+02 -0.78112393612E+02  0.84782707991E+02  0.00000000000E+00 0. -1.
          1    1    1    2  502    0 -0.15503605295E+02  0.28101901440E+02  0.20337829150E+04  0.20340361413E+04  0.00000000000E+00 0. -1.
         22    1    3    3    0    0 -0.48016837151E+02 -0.17708827773E+02  0.43144649700E+02  0.66937881867E+02  0.00000000000E+00 0.  1.
         22    1    3    3    0    0  0.71543846091E+02 -0.42364725680E+02  0.15753834432E+03  0.17813371895E+03  0.00000000000E+00 0.  1.
</event>
<event>
 7    1  0.6058736E-006  0.1297337E+03  0.7818608E-02  0.1375461E+00
          2   -1    0    0  502    0  0.00000000000E+00  0.00000000000E+00  0.14013168529E+03  0.14013168529E+03  0.00000000000E+00 0. -1.
          1   -1    0    0  501    0 -0.00000000000E+00 -0.00000000000E+00 -0.21884622531E+04  0.21884622531E+04  0.00000000000E+00 0. -1.
         25    2    1    2    0    0  0.10587063571E+03  0.11387553175E+03 -0.27399725125E+03  0.33893236824E+03  0.12499771322E+03 0.  0.
          2    1    1    2  501    0 -0.98926195439E+02 -0.81365229747E+02 -0.18771956982E+04  0.18815606241E+04  0.00000000000E+00 0. -1.
          1    1    1    2  502    0 -0.69444402674E+01 -0.32510302000E+02  0.10286238163E+03  0.10810094607E+03  0.00000000000E+00 0. -1.
         22    1    3    3    0    0  0.13230482163E+02  0.99904811102E+02 -0.10393046784E+03  0.14476725833E+03  0.00000000000E+00 0. -1.
         22    1    3    3    0    0  0.92640153543E+02  0.13970720645E+02 -0.17006678342E+03  0.19416510991E+03  0.00000000000E+00 0. -1.
</event>
<event>
 7    1  0.6058736E-006  0.1005604E+03  0.7818608E-02  0.1352232E+00
          2   -1    0    0  502    0  0.00000000000E+00  0.00000000000E+00  0.80061369207E+03  0.80061369207E+03  0.00000000000E+00 0. -1.
          1   -1    0    0  501    0 -0.00000000000E+00 -0.00000000000E+00 -0.12943557758E+03  0.12943557758E+03  0.00000000000E+00 0. -1.
         25    2    1    2    0    0  0.11567469732E+03 -0.75128568003E+02  0.47663060135E+02  0.19214866188E+03  0.12499761450E+03 0.  0.
          2    1    1    2  501    0 -0.20560033251E+02  0.47844086245E+02 -0.40863570810E+02  0.66193677759E+02  0.00000000000E+00 0. -1.
          1    1    1    2  502    0 -0.95114664065E+02  0.27284481759E+02  0.66437862516E+03  0.67170693002E+03  0.00000000000E+00 0. -1.
         22    1    3    3    0    0  0.10994459454E+03 -0.38404491791E+02  0.81291850652E+02  0.14202494091E+03  0.00000000000E+00 0. -1.
         22    1    3    3    0    0  0.57301027720E+01 -0.36724076213E+02 -0.33628790518E+02  0.50123720963E+02  0.00000000000E+00 0. -1.
</event>
<event>
 7    1  0.6058736E-006  0.2060719E+03  0.7818608E-02  0.1224970E+00
          2   -1    0    0  502    0  0.00000000000E+00  0.00000000000E+00  0.25516713472E+03  0.25516713472E+03  0.00000000000E+00 0. -1.
          1   -1    0    0  501    0 -0.00000000000E+00 -0.00000000000E+00 -0.21418888985E+04  0.21418888985E+04  0.00000000000E+00 0. -1.
         25    2    1    2    0    0 -0.99820434259E+02  0.90815067694E+02 -0.14045252335E+03  0.23144258457E+03  0.12500905175E+03 0.  0.
          2    1    1    2  501    0  0.17834742233E+03 -0.12107552904E+03 -0.19412839548E+04  0.19532154208E+04  0.00000000000E+00 0. -1.
          1    1    1    2  502    0 -0.78526988075E+02  0.30260461343E+02  0.19501471443E+03  0.21239802782E+03  0.00000000000E+00 0. -1.
         22    1    3    3    0    0 -0.11515603242E+03  0.90799888249E+02 -0.75961957858E+02  0.16515371794E+03  0.00000000000E+00 0. -1.
         22    1    3    3    0    0  0.15335598159E+02  0.15179444733E-01 -0.64490565490E+02  0.66288866626E+02  0.00000000000E+00 0. -1.
</event>
<event>
 7    1  0.6058736E-006  0.1369754E+03  0.7818608E-02  0.1283510E+00
          2   -1    0    0  502    0  0.00000000000E+00  0.00000000000E+00  0.41857311612E+03  0.41857311612E+03  0.00000000000E+00 0. -1.
          1   -1    0    0  501    0 -0.00000000000E+00 -0.00000000000E+00 -0.23419013650E+03  0.23419013650E+03  0.00000000000E+00 0. -1.
         25    2    1    2    0    0 -0.13499827583E+03 -0.75797919530E+02 -0.10067375949E+03  0.22300066157E+03  0.12499692048E+03 0.  0.
          2    1    1    2  501    0  0.59556943662E+02 -0.38307600895E+02 -0.36973193621E+02  0.79884409438E+02  0.00000000000E+00 0. -1.
          1    1    1    2  502    0  0.75441332170E+02  0.11410552043E+03  0.32202993273E+03  0.34987818160E+03  0.00000000000E+00 0. -1.
         22    1    3    3    0    0  0.20179412718E+02 -0.12187407212E+02 -0.36461836165E+02  0.43418971530E+02  0.00000000000E+00 0. -1.
         22    1    3    3    0    0 -0.15517768855E+03 -0.63610512319E+02 -0.64211923321E+02  0.17958169004E+03  0.00000000000E+00 0. -1.
</event>
<event>
 7    1  0.6058736E-006  0.1297535E+03  0.7818608E-02  0.1236926E+00
          2   -1    0    0  502    0  0.00000000000E+00  0.00000000000E+00  0.92646926943E+03  0.92646926943E+03  0.00000000000E+00 0. -1.
          1   -1    0    0  501    0 -0.00000000000E+00 -0.00000000000E+00 -0.92134720936E+03  0.92134720936E+03  0.00000000000E+00 0. -1.
         25    2    1    2    0    0 -0.93233184159E+02 -0.14086867170E+03  0.57346447862E+03  0.61075543331E+03  0.12499712708E+03 0.  0.
          2    1    1    2  501    0  0.12685272822E+03  0.27595634371E+02 -0.88739070150E+03  0.89683632331E+03  0.00000000000E+00 0. -1.
          1    1    1    2  502    0 -0.33619544061E+02  0.11327303733E+03  0.31904828295E+03  0.34022472218E+03  0.00000000000E+00 0. -1.
         22    1    3    3    0    0 -0.86476599244E+02 -0.10203887606E+03  0.54739810940E+03  0.56350228448E+03  0.00000000000E+00 0. -1.
         22    1    3    3    0    0 -0.67565849144E+01 -0.38829795641E+02  0.26066369222E+02  0.47253148822E+02  0.00000000000E+00 0. -1.
</event>
<event>
 7    1  0.6058736E-006  0.1467217E+03  0.7818608E-02  0.1360095E+00
          2   -1    0    0  502    0  0.00000000000E+00  0.00000000000E+00  0.94492819245E+03  0.94492819245E+03  0.00000000000E+00 0. -1.
          1   -1    0    0  501    0 -0.00000000000E+00 -0.00000000000E+00 -0.12327758265E+03  0.12327758265E+03  0.00000000000E+00 0. -1.
         25    2    1    2    0    0 -0.77489171713E+02 -0.12526305839E+03  0.19724687189E+03  0.27609167109E+03  0.12499950738E+03 0.  0.
          2    1    1    2  501    0  0.10377066300E+03  0.10465782389E+03 -0.18325832617E+02  0.14851749642E+03  0.00000000000E+00 0. -1.
          1    1    1    2  502    0 -0.26281491290E+02  0.20605234501E+02  0.64272957053E+03  0.64359660759E+03  0.00000000000E+00 0. -1.
         22    1    3    3    0    0  0.97416533213E+01 -0.57207557222E+02  0.13993502277E+03  0.15149064331E+03  0.00000000000E+00 0.  1.
         22    1    3    3    0    0 -0.87230825034E+02 -0.68055501166E+02  0.57311849125E+02  0.12460102779E+03  0.00000000000E+00 0.  1.
</event>
<event>
 7    1  0.6058736E-006  0.7386117E+02  0.7818608E-02  0.1384288E+00
          2   -1    0    0  502    0  0.00000000000E+00  0.00000000000E+00  0.10288931742E+04  0.10288931742E+04  0.00000000000E+00 0. -1.
          1   -1    0    0  501    0 -0.00000000000E+00 -0.00000000000E+00 -0.16601480967E+04  0.16601480967E+04  0.00000000000E+00 0. -1.
         25    2    1    2    0    0 -0.75985019933E+02  0.96331164614E+02  0.31163445125E+03  0.35748357505E+03  0.12500023476E+03 0.  0.
          2    1    1    2  501    0  0.24760464931E+02 -0.48365154985E+02 -0.16349979172E+04  0.16359005037E+04  0.00000000000E+00 0. -1.
          1    1    1    2  502    0  0.51224555001E+02 -0.47966009628E+02  0.69210854337E+03  0.69565719210E+03  0.00000000000E+00 0. -1.
         22    1    3    3    0    0  0.18207526949E+02  0.72681751185E+02  0.16968652025E+03  0.18549303531E+03  0.00000000000E+00 0. -1.
         22    1    3    3    0    0 -0.94192546882E+02  0.23649413429E+02  0.14194793100E+03  0.17199053974E+03  0.00000000000E+00 0. -1.
</event>
<event>
 7    1  0.6058736E-006  0.7153566E+02  0.7818608E-02  0.1366267E+00
          2   -1    0    0  502    0  0.00000000000E+00  0.00000000000E+00  0.13515202257E+04  0.13515202257E+04  0.00000000000E+00 0. -1.
          1   -1    0    0  501    0 -0.00000000000E+00 -0.00000000000E+00 -0.15553283764E+04  0.15553283764E+04  0.00000000000E+00 0. -1.
         25    2    1    2    0    0  0.90114696897E+02  0.23034580179E+02 -0.25689586297E+02  0.15791199079E+03  0.12499996604E+03 0.  0.
          2    1    1    2  501    0 -0.62079825836E+02  0.35664512110E+02 -0.14618279387E+04  0.14635801258E+04  0.00000000000E+00 0. -1.
          1    1    1    2  502    0 -0.28034871061E+02 -0.58699092289E+02  0.12837093743E+04  0.12853564856E+04  0.00000000000E+00 0. -1.
         22    1    3    3    0    0  0.54232095335E+02 -0.50383120063E+02 -0.14520765902E+02  0.75434949421E+02  0.00000000000E+00 0. -1.
         22    1    3    3    0    0  0.35882601562E+02  0.73417700242E+02 -0.11168820395E+02  0.82477041367E+02  0.00000000000E+00 0. -1.
</event>
<event>
 7    1  0.6058736E-006  0.7486720E+02  0.7818608E-02  0.1466242E+00
          2   -1    0    0  502    0  0.00000000000E+00  0.00000000000E+00  0.10301296503E+04  0.10301296503E+04  0.00000000000E+00 0. -1.
          1   -1    0    0  501    0 -0.00000000000E+00 -0.00000000000E+00 -0.63911250188E+03  0.63911250188E+03  0.00000000000E+00 0. -1.
         25    2    1    2    0    0 -0.75274907825E+02 -0.44698039838E+02 -0.12201516701E+03  0.19538048691E+03  0.12498642795E+03 0.  0.
          2    1    1    2  501    0  0.72401651905E+02  0.16179640299E+02 -0.47734201903E+03  0.48307264784E+03  0.00000000000E+00 0. -1.
          1    1    1    2  502    0  0.28732559195E+01  0.28518399540E+02  0.99037433446E+03  0.99078901744E+03  0.00000000000E+00 0. -1.
         22    1    3    3    0    0  0.32942850266E+02 -0.18706587702E+02 -0.14290250228E+02  0.40489246210E+02  0.00000000000E+00 0. -1.
         22    1    3    3    0    0 -0.10821775809E+03 -0.25991452137E+02 -0.10772491678E+03  0.15489124070E+03  0.00000000000E+00 0. -1.
</event>
<event>
 7    1  0.6058736E-006  0.1148453E+03  0.7818608E-02  0.1419118E+00
          2   -1    0    0  502    0  0.00000000000E+00  0.00000000000E+00  0.76350617812E+03  0.76350617812E+03  0.00000000000E+00 0. -1.
          1   -1    0    0  501    0 -0.00000000000E+00 -0.00000000000E+00 -0.36313056549E+03  0.36313056549E+03  0.00000000000E+00 0. -1.
         25    2    1    2    0    0 -0.89523806975E+02 -0.38713936403E+02 -0.17694437639E+03  0.23757990531E+03  0.12498647200E+03 0.  0.
          2    1    1    2  501    0 -0.22918647977E+02  0.13381966028E+02 -0.15016777199E+03  0.15249492183E+03  0.00000000000E+00 0. -1.
          1    1    1    2  502    0  0.11244245495E+03  0.25331970375E+02  0.72748776100E+03  0.73656191648E+03  0.00000000000E+00 0. -1.
         22    1    3    3    0    0  0.16720669206E+02 -0.35468615678E+02 -0.11377967003E+02  0.40829665807E+02  0.00000000000E+00 0.  1.
         22    1    3    3    0    0 -0.10624447618E+03 -0.32453207249E+01 -0.16556640939E+03  0.19675023950E+03  0.00000000000E+00 0.  1.
</event>
<event>
 7    1  0.6058736E-006  0.1023469E+03  0.7818608E-02  0.1387162E+00
          2   -1    0    0  502    0  0.00000000000E+00  0.00000000000E+00  0.22330453396E+03  0.22330453396E+03  0.00000000000E+00 0. -1.
          1   -1    0    0  501    0 -0.00000000000E+00 -0.00000000000E+00 -0.98464043237E+03  0.98464043237E+03  0.00000000000E+00 0. -1.
         25    2    1    2    0    0 -0.74589063252E+02 -0.52398800298E+02 -0.14889115615E+02  0.15542267949E+03  0.12500144361E+03 0.  0.
          2    1    1    2  501    0  0.10025734265E+03  0.23958052855E+02 -0.89407827863E+03  0.90000082854E+03  0.00000000000E+00 0. -1.
          1    1    1    2  502    0 -0.25668279395E+02  0.28440747444E+02  0.14763149583E+03  0.15252145830E+03  0.00000000000E+00 0. -1.
         22    1    3    3    0    0 -0.76458976296E+02 -0.46180815400E+02 -0.61444819147E+02  0.10841636669E+03  0.00000000000E+00 0. -1.
         22    1    3    3    0    0  0.18699130444E+01 -0.62179848983E+01  0.46555703532E+02  0.47006312792E+02  0.00000000000E+00 0. -1.
</event>
<event>
 7    1  0.6058736E-006  0.1225022E+03  0.7818608E-02  0.1378490E+00
          2   -1    0    0  502    0  0.00000000000E+00  0.00000000000E+00  0.57863506344E+03  0.57863506344E+03  0.00000000000E+00 0. -1.
          1   -1    0    0  501    0 -0.00000000000E+00 -0.00000000000E+00 -0.75704245803E+03  0.75704245803E+03  0.00000000000E+00 0. -1.
         25    2    1    2    0    0  0.55130054989E+02  0.75187604554E+02 -0.14970745523E+03  0.21616940748E+03  0.12499756692E+03 0.  0.
          2    1    1    2  501    0  0.31936572334E+02  0.12630010671E+02 -0.56656764776E+03  0.56760757686E+03  0.00000000000E+00 0. -1.
          1    1    1    2  502    0 -0.87066627324E+02 -0.87817615225E+02  0.53786770840E+03  0.55190053713E+03  0.00000000000E+00 0. -1.
         22    1    3    3    0    0  0.50946420077E+02  0.24427429926E+02  0.15970463032E+01  0.56522452250E+02  0.00000000000E+00 0. -1.
         22    1    3    3    0    0  0.41836349122E+01  0.50760174628E+02 -0.15130450154E+03  0.15964695523E+03  0.00000000000E+00 0. -1.
</event>
<event>
 7    1  0.6058736E-006  0.4552851E+02  0.7818608E-02  0.1523453E+00
          2   -1    0    0  502    0  0.00000000000E+00  0.00000000000E+00  0.21650733840E+04  0.21650733840E+04  0.00000000000E+00 0. -1.
          1   -1    0    0  501    0 -0.00000000000E+00 -0.00000000000E+00 -0.11174530048E+03  0.11174530048E+03  0.00000000000E+00 0. -1.
         25    2    1    2    0    0 -0.49953719932E+02 -0.37791960468E+02  0.11737330956E+03  0.18257965430E+03  0.12504091312E+03 0.  0.
          2    1    1    2  501    0  0.31497250158E+02 -0.37470706010E+01 -0.75696848907E+02  0.82073931550E+02  0.00000000000E+00 0. -1.
          1    1    1    2  502    0  0.18456469774E+02  0.41539031069E+02  0.20116516229E+04  0.20121650987E+04  0.00000000000E+00 0. -1.
         22    1    3    3    0    0  0.82464906625E+01 -0.34035047262E+02 -0.14870730201E+02  0.38046388359E+02  0.00000000000E+00 0.  1.
         22    1    3    3    0    0 -0.58200210594E+02 -0.37569132058E+01  0.13224403976E+03  0.14453326594E+03  0.00000000000E+00 0.  1.
</event>
<event>
 7    1  0.6058736E-006  0.5815036E+02  0.7818608E-02  0.1452295E+00
          2   -1    0    0  502    0  0.00000000000E+00  0.00000000000E+00  0.28499036930E+03  0.28499036930E+03  0.00000000000E+00 0. -1.
          1   -1    0    0  501    0 -0.00000000000E+00 -0.00000000000E+00 -0.71988975906E+02  0.71988975906E+02  0.00000000000E+00 0. -1.
         25    2    1    2    0    0  0.86930296017E+01  0.22264913085E+02  0.68508279952E+02  0.14453164512E+03  0.12499886759E+03 0.  0.
          2    1    1    2  501    0  0.26795797255E+02  0.30822413334E+02 -0.12707022484E+02  0.42772705487E+02  0.00000000000E+00 0. -1.
          1    1    1    2  502    0 -0.35488826857E+02 -0.53087326418E+02  0.15720013593E+03  0.16967499460E+03  0.00000000000E+00 0. -1.
         22    1    3    3    0    0 -0.49800398268E+02 -0.21002192398E+02  0.35302719927E+02  0.64555819160E+02  0.00000000000E+00 0. -1.
         22    1    3    3    0    0  0.58493427870E+02  0.43267105483E+02  0.33205560025E+02  0.79975825956E+02  0.00000000000E+00 0. -1.
</event>
<event>
 7    1  0.6058736E-006  0.1481598E+03  0.7818608E-02  0.1296310E+00
          2   -1    0    0  502    0  0.00000000000E+00  0.00000000000E+00  0.49671556202E+03  0.49671556202E+03  0.00000000000E+00 0. -1.
          1   -1    0    0  501    0 -0.00000000000E+00 -0.00000000000E+00 -0.41947320589E+03  0.41947320589E+03  0.00000000000E+00 0. -1.
         25    2    1    2    0    0  0.28601927466E+02  0.93239037809E+02 -0.14119093150E+03  0.21230029370E+03  0.12499978856E+03 0.  0.
          2    1    1    2  501    0 -0.90505444993E+01  0.57361472407E+02 -0.22646141403E+03  0.23378841484E+03  0.00000000000E+00 0. -1.
          1    1    1    2  502    0 -0.19551382967E+02 -0.15060051022E+03  0.44489470166E+03  0.47010005937E+03  0.00000000000E+00 0. -1.
         22    1    3    3    0    0  0.70086622814E+02  0.93211791460E+02 -0.97009045280E+02  0.15169485038E+03  0.00000000000E+00 0.  1.
         22    1    3    3    0    0 -0.41484695348E+02  0.27246348724E-01 -0.44181886224E+02  0.60605443326E+02  0.00000000000E+00 0.  1.
</event>
<event>
 7    1  0.6058736E-006  0.5757134E+02  0.7818608E-02  0.1417631E+00
          2   -1    0    0  502    0  0.00000000000E+00  0.00000000000E+00  0.21375330113E+04  0.21375330113E+04  0.00000000000E+00 0. -1.
          1   -1    0    0  501    0 -0.00000000000E+00 -0.00000000000E+00 -0.97237098344E+02  0.97237098344E+02  0.00000000000E+00 0. -1.
         25    2    1    2    0    0  0.42051936599E+01 -0.72956210117E+02  0.39125970076E+03  0.41719117825E+03  0.12499613403E+03 0.  0.
          2    1    1    2  501    0 -0.43790752397E+02  0.30824971379E+02 -0.75230083486E+02  0.92343783317E+02  0.00000000000E+00 0. -1.
          1    1    1    2  502    0  0.39585558737E+02  0.42131238739E+02  0.17242662956E+04  0.17252351480E+04  0.00000000000E+00 0. -1.
         22    1    3    3    0    0  0.17626444761E+02  0.29531525346E+02  0.16344889659E+03  0.16702797472E+03  0.00000000000E+00 0.  1.
         22    1    3    3    0    0 -0.13421251101E+02 -0.10248773546E+03  0.22781080418E+03  0.25016320353E+03  0.00000000000E+00 0.  1.
</event>
<event>
 7    1  0.6058736E-006  0.1169959E+03  0.7818608E-02  0.1415591E+00
          2   -1    0    0  502    0  0.00000000000E+00  0.00000000000E+00  0.78212693875E+03  0.78212693875E+03  0.00000000000E+00 0. -1.
          1   -1    0    0  501    0 -0.00000000000E+00 -0.00000000000E+00 -0.71082265285E+03  0.71082265285E+03  0.00000000000E+00 0. -1.
         25    2    1    2    0    0 -0.12882799077E+03 -0.49527098609E+02  0.60491901542E+01  0.18630892685E+03  0.12499935529E+03 0.  0.
          2    1    1    2  501    0  0.26364202655E+02 -0.46466180803E+01 -0.61550375089E+03  0.61608565119E+03  0.00000000000E+00 0. -1.
          1    1    1    2  502    0  0.10246378811E+03  0.54173716689E+02  0.68075884665E+03  0.69055501355E+03  0.00000000000E+00 0. -1.
         22    1    3    3    0    0 -0.87676207038E+02 -0.56682586557E+02  0.58171237082E+02  0.11951537860E+03  0.00000000000E+00 0. -1.
         22    1    3    3    0    0 -0.41151783727E+02  0.71554879485E+01 -0.52122046928E+02  0.66793548249E+02  0.00000000000E+00 0. -1.
</event>
<event>
 7    1  0.6058736E-006  0.4843861E+02  0.7818608E-02  0.1537859E+00
          2   -1    0    0  502    0  0.00000000000E+00  0.00000000000E+00  0.32569332193E+04  0.32569332193E+04  0.00000000000E+00 0. -1.
          1   -1    0    0  501    0 -0.00000000000E+00 -0.00000000000E+00 -0.16049911982E+04  0.16049911982E+04  0.00000000000E+00 0. -1.
         25    2    1    2    0    0 -0.72387814231E+02  0.21364854880E+02  0.16005873258E+02  0.14689353855E+03  0.12500028407E+03 0.  0.
          2    1    1    2  501    0  0.26046842400E+02 -0.75283520361E+01 -0.15392438325E+04  0.15394826047E+04  0.00000000000E+00 0. -1.
          1    1    1    2  502    0  0.46340971830E+02 -0.13836502844E+02  0.31751799803E+04  0.31755482742E+04  0.00000000000E+00 0. -1.
         22    1    3    3    0    0  0.12950950576E+01  0.61106723578E+02 -0.24362634406E+01  0.61168981659E+02  0.00000000000E+00 0.  1.
         22    1    3    3    0    0 -0.73682909288E+02 -0.39741868698E+02  0.18442136698E+02  0.85724556895E+02  0.00000000000E+00 0.  1.
</event>
<event>
 7    1  0.6058736E-006  0.2175663E+03  0.7818608E-02  0.1264985E+00
          2   -1    0    0  502    0  0.00000000000E+00  0.00000000000E+00  0.35156322947E+04  0.35156322947E+04  0.00000000000E+00 0. -1.
          1   -1    0    0  501    0 -0.00000000000E+00 -0.00000000000E+00 -0.10455129140E+04  0.10455129140E+04  0.00000000000E+00 0. -1.
         25    2    1    2    0    0  0.82246270361E+02 -0.15017043959E+03  0.22051281306E+04  0.22152938065E+04  0.12498386679E+03 0.  0.
          2    1    1    2  501    0 -0.78223855226E+02  0.20328225973E+03 -0.10284761900E+04  0.10512877446E+04  0.00000000000E+00 0. -1.
          1    1    1    2  502    0 -0.40224151346E+01 -0.53111820144E+02  0.12934674400E+04  0.12945636576E+04  0.00000000000E+00 0. -1.
         22    1    3    3    0    0  0.10657387226E+03 -0.87168171408E+02  0.11938168078E+04  0.12017299410E+04  0.00000000000E+00 0.  1.
         22    1    3    3    0    0 -0.24327601895E+02 -0.63002268178E+02  0.10113113228E+04  0.10135638656E+04  0.00000000000E+00 0.  1.
</event>
<event>
 7    1  0.6058736E-006  0.3717067E+02  0.7818608E-02  0.1556447E+00
          2   -1    0    0  502    0  0.00000000000E+00  0.00000000000E+00  0.10860585284E+04  0.10860585284E+04  0.00000000000E+00 0. -1.
          1   -1    0    0  501    0 -0.00000000000E+00 -0.00000000000E+00 -0.23587008520E+02  0.23587008520E+02  0.00000000000E+00 0. -1.
         25    2    1    2    0    0  0.78514415583E+01 -0.12688839927E+02  0.50041921543E+03  0.51601253631E+03  0.12500757843E+03 0.  0.
          2    1    1    2  501    0 -0.38185351095E+02  0.48050198000E+01  0.87820501687E+01  0.39475735062E+02  0.00000000000E+00 0. -1.
          1    1    1    2  502    0  0.30333909537E+02  0.78838201270E+01  0.55327025431E+03  0.55415726558E+03  0.00000000000E+00 0. -1.
         22    1    3    3    0    0 -0.25044337707E+02 -0.59862447894E+02  0.32472869613E+03  0.33114869410E+03  0.00000000000E+00 0.  1.
         22    1    3    3    0    0  0.32895779265E+02  0.47173607967E+02  0.17569051930E+03  0.18486384220E+03  0.00000000000E+00 0.  1.
</event>
<event>
 7    1  0.6058736E-006  0.8257388E+02  0.7818608E-02  0.1367245E+00
          2   -1    0    0  502    0  0.00000000000E+00  0.00000000000E+00  0.66030850144E+03  0.66030850144E+03  0.00000000000E+00 0. -1.
          1   -1    0    0  501    0 -0.00000000000E+00 -0.00000000000E+00 -0.21564359549E+04  0.21564359549E+04  0.00000000000E+00 0. -1.
         25    2    1    2    0    0 -0.11838003808E+03  0.15878134534E+02  0.34374989713E+03  0.38478117520E+03  0.12500644958E+03 0.  0.
          2    1    1    2  501    0  0.52189329675E+02  0.20021133789E+02 -0.21307597115E+04  0.21314927914E+04  0.00000000000E+00 0. -1.
          1    1    1    2  502    0  0.66190708407E+02 -0.35899268322E+02  0.29088236085E+03  0.30047048973E+03  0.00000000000E+00 0. -1.
         22    1    3    3    0    0 -0.70518166573E+02 -0.11739798759E+02  0.31397612027E+03  0.32201186126E+03  0.00000000000E+00 0. -1.
         22    1    3    3    0    0 -0.47861871508E+02  0.27617933293E+02  0.29773776862E+02  0.62769313938E+02  0.00000000000E+00 0. -1.
</event>
<event>
 7    1  0.6058736E-006  0.3458430E+03  0.7818608E-02  0.1261113E+00
          2   -1    0    0  502    0  0.00000000000E+00  0.00000000000E+00  0.21765938526E+04  0.21765938526E+04  0.00000000000E+00 0. -1.
          1   -1    0    0  501    0 -0.00000000000E+00 -0.00000000000E+00 -0.10682957510E+04  0.10682957510E+04  0.00000000000E+00 0. -1.
         25    2    1    2    0    0  0.15137310484E+03  0.34333874482E+03  0.67472052023E+02  0.40121312242E+03  0.12499672491E+03 0.  0.
          2    1    1    2  501    0 -0.14627940811E+03 -0.30891241216E+03 -0.86886102594E+03  0.93367233333E+03  0.00000000000E+00 0. -1.
          1    1    1    2  502    0 -0.50936967240E+01 -0.34426332662E+02  0.19096870755E+04  0.19100041478E+04  0.00000000000E+00 0. -1.
         22    1    3    3    0    0  0.13713474828E+03  0.19549757714E+03  0.17736815920E+01  0.23880617203E+03  0.00000000000E+00 0.  1.
         22    1    3    3    0    0  0.14238356555E+02  0.14784116768E+03  0.65698370431E+02  0.16240695039E+03  0.00000000000E+00 0.  1.
</event>
<event>
 7    1  0.6058736E-006  0.9755294E+02  0.7818608E-02  0.1330314E+00
          2   -1    0    0  502    0  0.00000000000E+00  0.00000000000E+00  0.22371166706E+03  0.22371166706E+03  0.00000000000E+00 0. -1.
          1   -1    0    0  501    0 -0.00000000000E+00 -0.00000000000E+00 -0.67894008976E+03  0.67894008976E+03  0.00000000000E+00 0. -1.
         25    2    1    2    0    0 -0.37196058423E+02  0.12059001059E+03 -0.74900508173E+02  0.19277365597E+03  0.12500439550E+03 0.  0.
          2    1    1    2  501    0  0.71180677207E+02 -0.65322260144E+02 -0.53421099262E+03  0.54287666290E+03  0.00000000000E+00 0. -1.
          1    1    1    2  502    0 -0.33984618784E+02 -0.55267750445E+02  0.15388307809E+03  0.16700143795E+03  0.00000000000E+00 0. -1.
         22    1    3    3    0    0 -0.25156409078E+02  0.11435518187E+03 -0.10656871569E+03  0.15832512025E+03  0.00000000000E+00 0. -1.
         22    1    3    3    0    0 -0.12039649345E+02  0.62348287233E+01  0.31668207521E+02  0.34448535719E+02  0.00000000000E+00 0. -1.
</event>
<event>
 7    1  0.6058736E-006  0.6447035E+02  0.7818608E-02  0.1471190E+00
          2   -1    0    0  502    0  0.00000000000E+00  0.00000000000E+00  0.11472228982E+03  0.11472228982E+03  0.00000000000E+00 0. -1.
          1   -1    0    0  501    0 -0.00000000000E+00 -0.00000000000E+00 -0.14792931633E+04  0.14792931633E+04  0.00000000000E+00 0. -1.
         25    2    1    2    0    0 -0.34168298834E+02 -0.11169355498E+02 -0.24405255012E+03  0.27654904613E+03  0.12500200219E+03 0.  0.
          2    1    1    2  501    0  0.56556448226E+02  0.34207034467E+02 -0.12154504442E+04  0.12172462919E+04  0.00000000000E+00 0. -1.
          1    1    1    2  502    0 -0.22388149392E+02 -0.23037678969E+02  0.94932120835E+02  0.10022011501E+03  0.00000000000E+00 0. -1.
         22    1    3    3    0    0  0.27532024134E+02 -0.46989469521E+02 -0.14151853287E+03  0.15163613601E+03  0.00000000000E+00 0.  1.
         22    1    3    3    0    0 -0.61700322968E+02  0.35820114023E+02 -0.10253401724E+03  0.12491291012E+03  0.00000000000E+00 0.  1.
</event>
<event>
 7    1  0.6058736E-006  0.9732096E+02  0.7818608E-02  0.1411018E+00
          2   -1    0    0  502    0  0.00000000000E+00  0.00000000000E+00  0.21050111764E+03  0.21050111764E+03  0.00000000000E+00 0. -1.
          1   -1    0    0  501    0 -0.00000000000E+00 -0.00000000000E+00 -0.69045638297E+03  0.69045638297E+03  0.00000000000E+00 0. -1.
         25    2    1    2    0    0 -0.28044010659E+02 -0.86844261814E+02 -0.16684211305E+03  0.22757080334E+03  0.12499514992E+03 0.  0.
          2    1    1    2  501    0 -0.29951129342E+01  0.99031627069E+02 -0.48667138549E+03  0.49665407611E+03  0.00000000000E+00 0. -1.
          1    1    1    2  502    0  0.31039123593E+02 -0.12187365255E+02  0.17355823322E+03  0.17673262116E+03  0.00000000000E+00 0. -1.
         22    1    3    3    0    0  0.64388942004E+01 -0.24718240711E+01 -0.12850424772E+03  0.12868920295E+03  0.00000000000E+00 0.  1.
         22    1    3    3    0    0 -0.34482904859E+02 -0.84372437743E+02 -0.38337865325E+02  0.98881600391E+02  0.00000000000E+00 0.  1.
</event>
<event>
 7    1  0.6058736E-006  0.8445500E+02  0.7818608E-02  0.1346920E+00
          2   -1    0    0  502    0  0.00000000000E+00  0.00000000000E+00  0.26526574590E+04  0.26526574590E+04  0.00000000000E+00 0. -1.
          1   -1    0    0  501    0 -0.00000000000E+00 -0.00000000000E+00 -0.32170952448E+02  0.32170952448E+02  0.00000000000E+00 0. -1.
         25    2    1    2    0    0  0.34212593139E+02 -0.61828354009E+01  0.37838106933E+03  0.40000819763E+03  0.12500238222E+03 0.  0.
          2    1    1    2  501    0 -0.98296551106E+02  0.16323694323E+02  0.98087234077E+02  0.13982052941E+03  0.00000000000E+00 0. -1.
          1    1    1    2  502    0  0.64083957967E+02 -0.10140858923E+02  0.21440182031E+04  0.21449996844E+04  0.00000000000E+00 0. -1.
         22    1    3    3    0    0  0.67511298780E+02  0.34831304978E+02  0.24645901826E+03  0.25790122712E+03  0.00000000000E+00 0.  1.
         22    1    3    3    0    0 -0.33298705642E+02 -0.41014140379E+02  0.13192205107E+03  0.14210697051E+03  0.00000000000E+00 0.  1.
</event>
<event>
 7    1  0.6058736E-006  0.2075096E+03  0.7818608E-02  0.1160867E+00
          2   -1    0    0  502    0  0.00000000000E+00  0.00000000000E+00  0.23621763689E+04  0.23621763689E+04  0.00000000000E+00 0. -1.
          1   -1    0    0  501    0 -0.00000000000E+00 -0.00000000000E+00 -0.36617716124E+03  0.36617716124E+03  0.00000000000E+00 0. -1.
         25    2    1    2    0    0  0.52285282469E+02 -0.34345474561E+03  0.10099622808E+04  0.10753348083E+04  0.12500491311E+03 0.  0.
          2    1    1    2  501    0 -0.41147928031E+01  0.16911160400E+03 -0.30532319519E+03  0.34905288947E+03  0.00000000000E+00 0. -1.
          1    1    1    2  502    0 -0.48170489666E+02  0.17434314161E+03  0.12913601221E+04  0.13039658324E+04  0.00000000000E+00 0. -1.
         22    1    3    3    0    0  0.36166855819E+02 -0.25852724887E+02  0.68948713403E+02  0.82038588017E+02  0.00000000000E+00 0. -1.
         22    1    3    3    0    0  0.16118426651E+02 -0.31760202073E+03  0.94101356738E+03  0.99329622029E+03  0.00000000000E+00 0. -1.
</event>
<event>
 7    1  0.6058736E-006  0.8116565E+02  0.7818608E-02  0.1335463E+00
          2   -1    0    0  502    0  0.00000000000E+00  0.00000000000E+00  0.36232259730E+03  0.36232259730E+03  0.00000000000E+00 0. -1.
          1   -1    0    0  501    0 -0.00000000000E+00 -0.00000000000E+00 -0.18586386065E+04  0.18586386065E+04  0.00000000000E+00 0. -1.
         25    2    1    2    0    0 -0.37660638111E+02  0.39588629280E+01  0.13781237779E+03  0.18987334190E+03  0.12500255290E+03 0.  0.
          2    1    1    2  501    0 -0.28459744066E+02 -0.76012533540E+02 -0.18196021807E+04  0.18214115290E+04  0.00000000000E+00 0. -1.
          1    1    1    2  502    0  0.66120382177E+02  0.72053670612E+02  0.18547379371E+03  0.20967633281E+03  0.00000000000E+00 0. -1.
         22    1    3    3    0    0 -0.27152375451E+02  0.62774815120E+02  0.55047570516E+02  0.87796149834E+02  0.00000000000E+00 0.  1.
         22    1    3    3    0    0 -0.10508262660E+02 -0.58815952192E+02  0.82764807278E+02  0.10207719207E+03  0.00000000000E+00 0.  1.
</event>
<event>
 7    1  0.6058736E-006  0.1192429E+03  0.7818608E-02  0.1279010E+00
          2   -1    0    0  502    0  0.00000000000E+00  0.00000000000E+00  0.14736273872E+04  0.14736273872E+04  0.00000000000E+00 0. -1.
          1   -1    0    0  501    0 -0.00000000000E+00 -0.00000000000E+00 -0.81546991088E+03  0.81546991088E+03  0.00000000000E+00 0. -1.
         25    2    1    2    0    0  0.13690131146E+03 -0.44525398284E+02  0.12673717767E+04  0.12816316780E+04  0.12499622986E+03 0.  0.
          2    1    1    2  501    0 -0.69879397837E+02  0.96633885594E+02 -0.79463533419E+03  0.80353379047E+03  0.00000000000E+00 0. -1.
          1    1    1    2  502    0 -0.67021913619E+02 -0.52108487310E+02  0.18542103380E+03  0.20393182962E+03  0.00000000000E+00 0. -1.
         22    1    3    3    0    0  0.13162576837E+02 -0.65409915850E+01  0.68035419595E+03  0.68051294620E+03  0.00000000000E+00 0. -1.
         22    1    3    3    0    0  0.12373873462E+03 -0.37984406699E+02  0.58701758077E+03  0.60111873180E+03  0.00000000000E+00 0. -1.
</event>
<event>
 7    1  0.6058736E-006  0.2173551E+03  0.7818608E-02  0.1193237E+00
          2   -1    0    0  502    0  0.00000000000E+00  0.00000000000E+00  0.14127499263E+03  0.14127499263E+03  0.00000000000E+00 0. -1.
          1   -1    0    0  501    0 -0.00000000000E+00 -0.00000000000E+00 -0.91520479076E+03  0.91520479076E+03  0.00000000000E+00 0. -1.
         25    2    1    2    0    0  0.13220014335E+03  0.14077924863E+03 -0.80011564443E+02  0.24356210207E+03  0.12499988949E+03 0.  0.
          2    1    1    2  501    0  0.11194966724E+03  0.41517485211E+01 -0.34694120719E+03  0.36457943751E+03  0.00000000000E+00 0. -1.
          1    1    1    2  502    0 -0.24414981059E+03 -0.14493099715E+03 -0.34697702650E+03  0.44833824382E+03  0.00000000000E+00 0. -1.
         22    1    3    3    0    0  0.96618751036E+02  0.14290289012E+02 -0.23075525513E+02  0.10035873300E+03  0.00000000000E+00 0.  1.
         22    1    3    3    0    0  0.35581392315E+02  0.12648895962E+03 -0.56936038929E+02  0.14320336907E+03  0.00000000000E+00 0.  1.
</event>
<event>
 7    1  0.6058736E-006  0.2967060E+02  0.7818608E-02  0.1669579E+00
          2   -1    0    0  502    0  0.00000000000E+00  0.00000000000E+00  0.10065104532E+04  0.10065104532E+04  0.00000000000E+00 0. -1.
          1   -1    0    0  501    0 -0.00000000000E+00 -0.00000000000E+00 -0.16202730435E+04  0.16202730435E+04  0.00000000000E+00 0. -1.
         25    2    1    2    0    0  0.25434493184E+02  0.26757406702E+01  0.15274284330E+02  0.12849746663E+03  0.12499688851E+03 0.  0.
          2    1    1    2  501    0 -0.24083332920E+02  0.17365800453E+02 -0.15634125505E+04  0.15636944654E+04  0.00000000000E+00 0. -1.
          1    1    1    2  502    0 -0.13511602643E+01 -0.20041541123E+02  0.93437567594E+03  0.93459156469E+03  0.00000000000E+00 0. -1.
         22    1    3    3    0    0  0.15221738988E+02 -0.64189172732E+01  0.70085453838E+02  0.72006073886E+02  0.00000000000E+00 0.  1.
         22    1    3    3    0    0  0.10212754196E+02  0.90946579434E+01 -0.54811169508E+02  0.56491392744E+02  0.00000000000E+00 0.  1.
</event>
<event>
 7    1  0.6058736E-006  0.1895534E+03  0.7818608E-02  0.1191962E+00
          2   -1    0    0  502    0  0.00000000000E+00  0.00000000000E+00  0.26501497506E+04  0.26501497506E+04  0.00000000000E+00 0. -1.
          1   -1    0    0  501    0 -0.00000000000E+00 -0.00000000000E+00 -0.34082278971E+03  0.34082278971E+03  0.00000000000E+00 0. -1.
         25    2    1    2    0    0 -0.28477250479E+02  0.88321806910E+02  0.23903342943E+03  0.28526275555E+03  0.12500465571E+03 0.  0.
          2    1    1    2  501    0 -0.10947352636E+03  0.70613759979E+02 -0.29949186548E+03  0.32659781622E+03  0.00000000000E+00 0. -1.
          1    1    1    2  502    0  0.13795077683E+03 -0.15893556689E+03  0.23697853969E+04  0.23791119685E+04  0.00000000000E+00 0. -1.
         22    1    3    3    0    0  0.47457770099E+02  0.35153135113E+02  0.12542638057E+03  0.13863534829E+03  0.00000000000E+00 0. -1.
         22    1    3    3    0    0 -0.75935020578E+02  0.53168671797E+02  0.11360704885E+03  0.14662740726E+03  0.00000000000E+00 0. -1.
</event>
<event>
 7    1  0.6058736E-006  0.8155998E+02  0.7818608E-02  0.1420585E+00
          2   -1    0    0  502    0  0.00000000000E+00  0.00000000000E+00  0.56727311366E+03  0.56727311366E+03  0.00000000000E+00 0. -1.
          1   -1    0    0  501    0 -0.00000000000E+00 -0.00000000000E+00 -0.21876608783E+03  0.21876608783E+03  0.00000000000E+00 0. -1.
         25    2    1    2    0    0  0.55845336392E+02 -0.10309007161E+03  0.39503409774E+03  0.43060706720E+03  0.12499697390E+03 0.  0.
          2    1    1    2  501    0 -0.33751152402E+02  0.73472333085E+02 -0.19041786667E+03  0.20687263706E+03  0.00000000000E+00 0. -1.
          1    1    1    2  502    0 -0.22094183990E+02  0.29617738527E+02  0.14389079476E+03  0.14855949723E+03  0.00000000000E+00 0. -1.
         22    1    3    3    0    0 -0.22551118447E+02 -0.57068410929E+01  0.91845809037E+01  0.25009548274E+02  0.00000000000E+00 0. -1.
         22    1    3    3    0    0  0.78396454839E+02 -0.97383230520E+02  0.38584951683E+03  0.40559751892E+03  0.00000000000E+00 0. -1.
</event>
<event>
 7    1  0.6058736E-006  0.9284727E+02  0.7818608E-02  0.1341563E+00
          2   -1    0    0  502    0  0.00000000000E+00  0.00000000000E+00  0.29631529628E+02  0.29631529628E+02  0.00000000000E+00 0. -1.
          1   -1    0    0  501    0 -0.00000000000E+00 -0.00000000000E+00 -0.11710647346E+04  0.11710647346E+04  0.00000000000E+00 0. -1.
         25    2    1    2    0    0 -0.60132774960E+02  0.52432610508E+01 -0.35111841390E+03  0.37756250561E+03  0.12500345057E+03 0.  0.
          2    1    1    2  501    0 -0.42905336222E+02  0.44481272750E+02 -0.58366005165E+03  0.58692291436E+03  0.00000000000E+00 0. -1.
          1    1    1    2  502    0  0.10303811118E+03 -0.49724533801E+02 -0.20665473937E+03  0.23621084421E+03  0.00000000000E+00 0. -1.
         22    1    3    3    0    0 -0.20651943398E+01 -0.11214055391E+02 -0.29477595085E+03  0.29499640890E+03  0.00000000000E+00 0. -1.
         22    1    3    3    0    0 -0.58067580620E+02  0.16457316441E+02 -0.56342463051E+02  0.82566096712E+02  0.00000000000E+00 0. -1.
</event>
<event>
 7    1  0.7440769E-006  0.8803806E+02  0.7818608E-02  0.1350412E+00
          2   -1    0    0  502    0  0.00000000000E+00  0.00000000000E+00  0.26035223349E+04  0.26035223349E+04  0.00000000000E+00 0. -1.
          1   -1    0    0  501    0 -0.00000000000E+00 -0.00000000000E+00 -0.23193976848E+04  0.23193976848E+04  0.00000000000E+00 0. -1.
         25    2    1    2    0    0 -0.60116904921E+02  0.87134468404E+02 -0.18720761724E+03  0.24875444163E+03  0.12500248971E+03 0.  0.
          2    1    1    2  501    0 -0.28655188845E+00 -0.88052484998E+02 -0.21001393574E+04  0.21019844535E+04  0.00000000000E+00 0. -1.
          1    1    1    2  502    0  0.60403456809E+02  0.91801659357E+00  0.25714716248E+04  0.25721811245E+04  0.00000000000E+00 0. -1.
         22    1    3    3    0    0 -0.22122478359E+02 -0.24567965792E+02 -0.77038225423E+01  0.33946102481E+02  0.00000000000E+00 0.  1.
         22    1    3    3    0    0 -0.37994426561E+02  0.11170243420E+03 -0.17950379470E+03  0.21480833915E+03  0.00000000000E+00 0.  1.
</event>
<event>
 7    1  0.6058736E-006  0.2864475E+03  0.7818608E-02  0.1119615E+00
          2   -1    0    0  502    0  0.00000000000E+00  0.00000000000E+00  0.24166096641E+04  0.24166096641E+04  0.00000000000E+00 0. -1.
          1   -1    0    0  501    0 -0.00000000000E+00 -0.00000000000E+00 -0.10128298935E+04  0.10128298935E+04  0.00000000000E+00 0. -1.
         25    2    1    2    0    0  0.10518318262E+03 -0.19194110264E+03  0.32943370741E+03  0.41480465251E+03  0.12502577084E+03 0.  0.
          2    1    1    2  501    0  0.18878940016E+03  0.70524568651E+02 -0.94710772760E+03  0.96831203652E+03  0.00000000000E+00 0. -1.
          1    1    1    2  502    0 -0.29397258279E+03  0.12141653399E+03  0.20214537907E+04  0.20463228685E+04  0.00000000000E+00 0. -1.
         22    1    3    3    0    0  0.81541019235E+02 -0.20782308132E+03  0.28503173356E+03  0.36205311776E+03  0.00000000000E+00 0. -1.
         22    1    3    3    0    0  0.23642163390E+02  0.15881978674E+02  0.44401973850E+02  0.52751534747E+02  0.00000000000E+00 0. -1.
</event>
<event>
 7    1  0.6058736E-006  0.1532266E+03  0.7818608E-02  0.1227957E+00
          2   -1    0    0  502    0  0.00000000000E+00  0.00000000000E+00  0.10548407380E+04  0.10548407380E+04  0.00000000000E+00 0. -1.
          1   -1    0    0  501    0 -0.00000000000E+00 -0.00000000000E+00 -0.70580997054E+03  0.70580997054E+03  0.00000000000E+00 0. -1.
         25    2    1    2    0    0 -0.35599062760E+01  0.50358609696E+02 -0.11765028180E+03  0.17891837422E+03  0.12498613252E+03 0.  0.
          2    1    1    2  501    0 -0.49268980277E+02  0.98038813387E+02 -0.54597859687E+03  0.55689466651E+03  0.00000000000E+00 0. -1.
          1    1    1    2  502    0  0.52828886553E+02 -0.14839742308E+03  0.10126596462E+04  0.10248376678E+04  0.00000000000E+00 0. -1.
         22    1    3    3    0    0  0.13106052562E+02  0.80979153094E+02 -0.34945167663E+02  0.89165893662E+02  0.00000000000E+00 0. -1.
         22    1    3    3    0    0 -0.16665958837E+02 -0.30620543398E+02 -0.82705114142E+02  0.89752480563E+02  0.00000000000E+00 0. -1.
</event>
<event>
 7    1  0.6058736E-006  0.1139949E+03  0.7818608E-02  0.1343377E+00
          2   -1    0    0  502    0  0.00000000000E+00  0.00000000000E+00  0.55557337069E+02  0.55557337069E+02  0.00000000000E+00 0. -1.
          1   -1    0    0  501    0 -0.00000000000E+00 -0.00000000000E+00 -0.26453382721E+04  0.26453382721E+04  0.00000000000E+00 0. -1.
         25    2    1    2    0    0 -0.92946877468E+02 -0.59969217256E+02 -0.98265492429E+03  0.99673040628E+03  0.12500149413E+03 0.  0.
          2    1    1    2  501    0  0.32257224709E+02 -0.37618710817E+02 -0.15866639284E+04  0.15874375948E+04  0.00000000000E+00 0. -1.
          1    1    1    2  502    0  0.60689652759E+02  0.97587928074E+02 -0.20462082348E+02  0.11672760801E+03  0.00000000000E+00 0. -1.
         22    1    3    3    0    0 -0.38368450992E+02 -0.91646522630E+02 -0.70683989765E+03  0.71378838885E+03  0.00000000000E+00 0. -1.
         22    1    3    3    0    0 -0.54578426476E+02  0.31677305374E+02 -0.27581502664E+03  0.28294201744E+03  0.00000000000E+00 0. -1.
</event>
<event>
 7    1  0.6058736E-006  0.8050368E+02  0.7818608E-02  0.1370074E+00
          2   -1    0    0  502    0  0.00000000000E+00  0.00000000000E+00  0.12488818591E+04  0.12488818591E+04  0.00000000000E+00 0. -1.
          1   -1    0    0  501    0 -0.00000000000E+00 -0.00000000000E+00 -0.29562907425E+04  0.29562907425E+04  0.00000000000E+00 0. -1.
         25    2    1    2    0    0  0.14267066514E+02 -0.77118431012E+02  0.55428191182E+03  0.57358945848E+03  0.12500251006E+03 0.  0.
          2    1    1    2  501    0  0.51195985722E+02  0.22706944717E+02 -0.29437248402E+04  0.29442575583E+04  0.00000000000E+00 0. -1.
          1    1    1    2  502    0 -0.65463052236E+02  0.54411486295E+02  0.68203404500E+03  0.68732558485E+03  0.00000000000E+00 0. -1.
         22    1    3    3    0    0 -0.18200301974E+02  0.23352453583E+02  0.47860881184E+02  0.56278344219E+02  0.00000000000E+00 0. -1.
         22    1    3    3    0    0  0.32467368488E+02 -0.10047088460E+03  0.50642103064E+03  0.51731111426E+03  0.00000000000E+00 0. -1.
</event>
<event>
 7    1  0.6058736E-006  0.5416278E+02  0.7818608E-02  0.1507368E+00
          2   -1    0    0  502    0  0.00000000000E+00  0.00000000000E+00  0.11033448189E+04  0.11033448189E+04  0.00000000000E+00 0. -1.
          1   -1    0    0  501    0 -0.00000000000E+00 -0.00000000000E+00 -0.15389452469E+03  0.15389452469E+03  0.00000000000E+00 0. -1.
         25    2    1    2    0    0  0.28710267451E+02 -0.36532031996E+02  0.81557696305E+02  0.15631819390E+03  0.12499940439E+03 0.  0.
          2    1    1    2  501    0 -0.51936878271E+02  0.18005397723E+02 -0.10979263406E+03  0.12278459254E+03  0.00000000000E+00 0. -1.
          1    1    1    2  502    0  0.23226610820E+02  0.18526634273E+02  0.97768523201E+03  0.97813655720E+03  0.00000000000E+00 0. -1.
         22    1    3    3    0    0  0.10845202435E+02 -0.39089333165E+02  0.11300213680E+03  0.12006280567E+03  0.00000000000E+00 0.  1.
         22    1    3    3    0    0  0.17865065016E+02  0.25573011692E+01 -0.31444440499E+02  0.36255388229E+02  0.00000000000E+00 0.  1.
</event>
<event>
 7    1  0.6058736E-006  0.7833346E+02  0.7818608E-02  0.1369682E+00
          2   -1    0    0  502    0  0.00000000000E+00  0.00000000000E+00  0.51318648036E+02  0.51318648036E+02  0.00000000000E+00 0. -1.
          1   -1    0    0  501    0 -0.00000000000E+00 -0.00000000000E+00 -0.10038449733E+04  0.10038449733E+04  0.00000000000E+00 0. -1.
         25    2    1    2    0    0 -0.55632521383E+02  0.20467727462E+02 -0.99835611901E+02  0.17060429779E+03  0.12499908687E+03 0.  0.
          2    1    1    2  501    0 -0.54707133035E+02 -0.18480657515E+02 -0.65986681219E+03  0.66238856794E+03  0.00000000000E+00 0. -1.
          1    1    1    2  502    0  0.11033965442E+03 -0.19870699467E+01 -0.19282390121E+03  0.22217075564E+03  0.00000000000E+00 0. -1.
         22    1    3    3    0    0 -0.72664143776E+02 -0.12979459248E+02 -0.10930497655E+03  0.13189435944E+03  0.00000000000E+00 0.  1.
         22    1    3    3    0    0  0.17031622393E+02  0.33447186710E+02  0.94693646530E+01  0.38709938350E+02  0.00000000000E+00 0.  1.
</event>
<event>
 7    1  0.6058736E-006  0.8507702E+02  0.7818608E-02  0.1480884E+00
          2   -1    0    0  502    0  0.00000000000E+00  0.00000000000E+00  0.31252678784E+04  0.31252678784E+04  0.00000000000E+00 0. -1.
          1   -1    0    0  501    0 -0.00000000000E+00 -0.00000000000E+00 -0.11729136694E+04  0.11729136694E+04  0.00000000000E+00 0. -1.
         25    2    1    2    0    0  0.60409352654E+02  0.35274890641E+02  0.11983573837E+04  0.12068881587E+04  0.12500000265E+03 0.  0.
          2    1    1    2  501    0  0.82795747681E+01  0.21161575692E+02 -0.11675100115E+04  0.11677311294E+04  0.00000000000E+00 0. -1.
          1    1    1    2  502    0 -0.68688927422E+02 -0.56436466334E+02  0.19215068367E+04  0.19235622597E+04  0.00000000000E+00 0. -1.
         22    1    3    3    0    0  0.34364028142E+02  0.81513295985E+02  0.83561261818E+03  0.84028194763E+03  0.00000000000E+00 0.  1.
         22    1    3    3    0    0  0.26045324512E+02 -0.46238405344E+02  0.36274476556E+03  0.36660621107E+03  0.00000000000E+00 0.  1.
</event>
<event>
 7    1  0.6058736E-006  0.8663259E+02  0.7818608E-02  0.1449969E+00
          2   -1    0    0  502    0  0.00000000000E+00  0.00000000000E+00  0.10119938772E+04  0.10119938772E+04  0.00000000000E+00 0. -1.
          1   -1    0    0  501    0 -0.00000000000E+00 -0.00000000000E+00 -0.13312924019E+04  0.13312924019E+04  0.00000000000E+00 0. -1.
         25    2    1    2    0    0 -0.13045316558E+02  0.63479595185E+02 -0.40067826294E+03  0.42469777493E+03  0.12500116139E+03 0.  0.
          2    1    1    2  501    0  0.64473107931E+01 -0.90574969583E+02 -0.91616504312E+03  0.92065399536E+03  0.00000000000E+00 0. -1.
          1    1    1    2  502    0  0.65980057648E+01  0.27095374397E+02  0.99754478139E+03  0.99793450881E+03  0.00000000000E+00 0. -1.
         22    1    3    3    0    0  0.21474428164E+02  0.87251697736E+02 -0.19381535378E+03  0.21363146113E+03  0.00000000000E+00 0.  1.
         22    1    3    3    0    0 -0.34519744722E+02 -0.23772102550E+02 -0.20686290916E+03  0.21106631380E+03  0.00000000000E+00 0.  1.
</event>
<event>
 7    1  0.6058736E-006  0.1214612E+03  0.7818608E-02  0.1321103E+00
          2   -1    0    0  502    0  0.00000000000E+00  0.00000000000E+00  0.17226687037E+03  0.17226687037E+03  0.00000000000E+00 0. -1.
          1   -1    0    0  501    0 -0.00000000000E+00 -0.00000000000E+00 -0.15583098617E+04  0.15583098617E+04  0.00000000000E+00 0. -1.
         25    2    1    2    0    0  0.43921144872E+02 -0.63552477702E+02 -0.82345522300E+02  0.16844105755E+03  0.12499448162E+03 0.  0.
          2    1    1    2  501    0 -0.35181512702E+02  0.11941089151E+03 -0.14238837923E+04  0.14293151345E+04  0.00000000000E+00 0. -1.
          1    1    1    2  502    0 -0.87396321693E+01 -0.55858413812E+02  0.12018632322E+03  0.13282054003E+03  0.00000000000E+00 0. -1.
         22    1    3    3    0    0  0.35906196527E+02 -0.28230280123E+02  0.27133149336E+02  0.53126372526E+02  0.00000000000E+00 0. -1.
         22    1    3    3    0    0  0.80149483443E+01 -0.35322197579E+02 -0.10947867164E+03  0.11531468502E+03  0.00000000000E+00 0. -1.
</event>
<event>
 7    1  0.6058736E-006  0.1816525E+03  0.7818608E-02  0.1196968E+00
          2   -1    0    0  502    0  0.00000000000E+00  0.00000000000E+00  0.41552592991E+03  0.41552592991E+03  0.00000000000E+00 0. -1.
          1   -1    0    0  501    0 -0.00000000000E+00 -0.00000000000E+00 -0.21111400367E+03  0.21111400367E+03  0.00000000000E+00 0. -1.
         25    2    1    2    0    0 -0.19047143337E+03 -0.76200042249E+02  0.22868842186E+03  0.33167706277E+03  0.12500186520E+03 0.  0.
          2    1    1    2  501    0  0.32682738869E+02  0.12445964226E+03 -0.42647215328E+01  0.12874995853E+03  0.00000000000E+00 0. -1.
          1    1    1    2  502    0  0.15778869450E+03 -0.48259600007E+02 -0.20011774088E+02  0.16621291228E+03  0.00000000000E+00 0. -1.
         22    1    3    3    0    0 -0.99606463058E+02 -0.91830494297E+02  0.18591058664E+03  0.23003702613E+03  0.00000000000E+00 0.  1.
         22    1    3    3    0    0 -0.90864970315E+02  0.15630452047E+02  0.42777835221E+02  0.10164003664E+03  0.00000000000E+00 0.  1.
</event>
<event>
 7    1  0.6058736E-006  0.5594460E+02  0.7818608E-02  0.1446267E+00
          2   -1    0    0  502    0  0.00000000000E+00  0.00000000000E+00  0.10940452346E+04  0.10940452346E+04  0.00000000000E+00 0. -1.
          1   -1    0    0  501    0 -0.00000000000E+00 -0.00000000000E+00 -0.99926854401E+03  0.99926854401E+03  0.00000000000E+00 0. -1.
         25    2    1    2    0    0  0.64393606566E+02  0.72821281516E+02  0.38709324910E+01  0.15839776184E+03  0.12500156491E+03 0.  0.
          2    1    1    2  501    0 -0.19756996202E+02 -0.39741575528E+02 -0.92070835855E+03  0.92177742065E+03  0.00000000000E+00 0. -1.
          1    1    1    2  502    0 -0.44636610364E+02 -0.33079705988E+02  0.10116141166E+04  0.10131385961E+04  0.00000000000E+00 0. -1.
         22    1    3    3    0    0 -0.10096338457E+02 -0.25395548233E+02 -0.18652756092E+02  0.33087690009E+02  0.00000000000E+00 0.  1.
         22    1    3    3    0    0  0.74489945023E+02  0.98216829750E+02  0.22523688583E+02  0.12531007183E+03  0.00000000000E+00 0.  1.
</event>
<event>
 7    1  0.6058736E-006  0.2686634E+03  0.7818608E-02  0.1262812E+00
          2   -1    0    0  502    0  0.00000000000E+00  0.00000000000E+00  0.20549331185E+04  0.20549331185E+04  0.00000000000E+00 0. -1.
          1   -1    0    0  501    0 -0.00000000000E+00 -0.00000000000E+00 -0.12440200853E+04  0.12440200853E+04  0.00000000000E+00 0. -1.
         25    2    1    2    0    0  0.11189399758E+03  0.29121909632E+03 -0.63470445696E+03  0.71819473959E+03  0.12500043015E+03 0.  0.
          2    1    1    2  501    0 -0.12350478165E+02 -0.42292549408E+02 -0.55777260800E+03  0.55951003234E+03  0.00000000000E+00 0. -1.
          1    1    1    2  502    0 -0.99543519411E+02 -0.24892654692E+03  0.20033900982E+04  0.20212484319E+04  0.00000000000E+00 0. -1.
         22    1    3    3    0    0  0.13042994480E+03  0.28199982252E+03 -0.55718377283E+03  0.63795738659E+03  0.00000000000E+00 0. -1.
         22    1    3    3    0    0 -0.18535947221E+02  0.92192738053E+01 -0.77520684125E+02  0.80237352998E+02  0.00000000000E+00 0. -1.
</event>
<event>
 7    1  0.6058736E-006  0.2731853E+02  0.7818608E-02  0.1654182E+00
          2   -1    0    0  502    0  0.00000000000E+00  0.00000000000E+00  0.75406074559E+01  0.75406074559E+01  0.00000000000E+00 0. -1.
          1   -1    0    0  501    0 -0.00000000000E+00 -0.00000000000E+00 -0.18301250705E+04  0.18301250705E+04  0.00000000000E+00 0. -1.
         25    2    1    2    0    0  0.83281773810E+01 -0.53157782567E+01 -0.12018350087E+04  0.12083610753E+04  0.12502593398E+03 0.  0.
          2    1    1    2  501    0  0.17920802011E+02  0.15612614418E+02 -0.57548984646E+03  0.57598044433E+03  0.00000000000E+00 0. -1.
          1    1    1    2  502    0 -0.26248979392E+02 -0.10296836161E+02 -0.45259607933E+02  0.53324158356E+02  0.00000000000E+00 0. -1.
         22    1    3    3    0    0 -0.44747549976E+02 -0.28463910143E+02 -0.86187137524E+03  0.86350147936E+03  0.00000000000E+00 0.  1.
         22    1    3    3    0    0  0.53075727357E+02  0.23148131886E+02 -0.33996363343E+03  0.34485959592E+03  0.00000000000E+00 0.  1.
</event>
<event>
 7    1  0.6058736E-006  0.4706557E+02  0.7818608E-02  0.1501848E+00
          2   -1    0    0  502    0  0.00000000000E+00  0.00000000000E+00  0.34577289693E+04  0.34577289693E+04  0.00000000000E+00 0. -1.
          1   -1    0    0  501    0 -0.00000000000E+00 -0.00000000000E+00 -0.11988593113E+02  0.11988593113E+02  0.00000000000E+00 0. -1.
         25    2    1    2    0    0 -0.57951918433E+02 -0.41633744476E+02  0.10165411393E+04  0.10266803864E+04  0.12499973721E+03 0.  0.
          2    1    1    2  501    0  0.22497629724E+02  0.39758669619E+02  0.70103821126E+02  0.83674613172E+02  0.00000000000E+00 0. -1.
          1    1    1    2  502    0  0.35454288709E+02  0.18750748571E+01  0.23590954158E+04  0.23593625629E+04  0.00000000000E+00 0. -1.
         22    1    3    3    0    0 -0.56589309198E+02  0.38178153686E+01  0.17606695639E+03  0.18497702226E+03  0.00000000000E+00 0. -1.
         22    1    3    3    0    0 -0.13626092347E+01 -0.45451559845E+02  0.84047418292E+03  0.84170336411E+03  0.00000000000E+00 0. -1.
</event>
<event>
 7    1  0.6058736E-006  0.4805822E+02  0.7818608E-02  0.1520664E+00
          2   -1    0    0  502    0  0.00000000000E+00  0.00000000000E+00  0.19684109624E+03  0.19684109624E+03  0.00000000000E+00 0. -1.
          1   -1    0    0  501    0 -0.00000000000E+00 -0.00000000000E+00 -0.38375695476E+03  0.38375695476E+03  0.00000000000E+00 0. -1.
         25    2    1    2    0    0  0.29739579390E+00  0.21652684159E+02  0.19681102057E+02  0.12837564808E+03  0.12499613620E+03 0.  0.
          2    1    1    2  501    0  0.20238459365E+02 -0.44357024462E+02 -0.32565850864E+03  0.32928802758E+03  0.00000000000E+00 0. -1.
          1    1    1    2  502    0 -0.20535855158E+02  0.22704340303E+02  0.11906154806E+03  0.12293437535E+03  0.00000000000E+00 0. -1.
         22    1    3    3    0    0  0.18883944545E+02 -0.28329964782E+02 -0.37185041427E+02  0.50417433216E+02  0.00000000000E+00 0. -1.
         22    1    3    3    0    0 -0.18586548751E+02  0.49982648941E+02  0.56866143484E+02  0.77958214862E+02  0.00000000000E+00 0. -1.
</event>
<event>
 7    1  0.6058736E-006  0.5538513E+02  0.7818608E-02  0.1480088E+00
          2   -1    0    0  502    0  0.00000000000E+00  0.00000000000E+00  0.21579048460E+03  0.21579048460E+03  0.00000000000E+00 0. -1.
          1   -1    0    0  501    0 -0.00000000000E+00 -0.00000000000E+00 -0.74904701686E+03  0.74904701686E+03  0.00000000000E+00 0. -1.
         25    2    1    2    0    0  0.16151629125E+02 -0.35805859506E+02  0.12371322925E+02  0.13160564570E+03  0.12499624654E+03 0.  0.
          2    1    1    2  501    0  0.34233162602E+02  0.77630181138E+01 -0.68318051971E+03  0.68408171762E+03  0.00000000000E+00 0. -1.
          1    1    1    2  502    0 -0.50384791727E+02  0.28042841392E+02  0.13755266453E+03  0.14915013815E+03  0.00000000000E+00 0. -1.
         22    1    3    3    0    0 -0.11366059118E+02 -0.73073521240E+02 -0.18127360527E+02  0.76141499893E+02  0.00000000000E+00 0.  1.
         22    1    3    3    0    0  0.27517688244E+02  0.37267661733E+02  0.30498683452E+02  0.55464145803E+02  0.00000000000E+00 0.  1.
</event>
<event>
 7    1  0.6058736E-006  0.3650758E+03  0.7818608E-02  0.1158267E+00
          2   -1    0    0  502    0  0.00000000000E+00  0.00000000000E+00  0.13112030303E+04  0.13112030303E+04  0.00000000000E+00 0. -1.
          1   -1    0    0  501    0 -0.00000000000E+00 -0.00000000000E+00 -0.16595978522E+04  0.16595978522E+04  0.00000000000E+00 0. -1.
         25    2    1    2    0    0 -0.42598033408E+02 -0.33138441156E+03 -0.55826374277E+03  0.66250627047E+03  0.12500372492E+03 0.  0.
          2    1    1    2  501    0  0.13538913449E+03  0.36620291004E+03 -0.10108135796E+04  0.10835953496E+04  0.00000000000E+00 0. -1.
          1    1    1    2  502    0 -0.92791101077E+02 -0.34818498478E+02  0.12206825005E+04  0.12246992624E+04  0.00000000000E+00 0. -1.
         22    1    3    3    0    0 -0.48613208695E+01 -0.31509723250E+03 -0.50441174032E+03  0.59476138252E+03  0.00000000000E+00 0. -1.
         22    1    3    3    0    0 -0.37736712539E+02 -0.16287179064E+02 -0.53852002450E+02  0.67744887947E+02  0.00000000000E+00 0. -1.
</event>
<event>
 7    1  0.6058736E-006  0.6203064E+02  0.7818608E-02  0.1449274E+00
          2   -1    0    0  502    0  0.00000000000E+00  0.00000000000E+00  0.61587337655E+03  0.61587337655E+03  0.00000000000E+00 0. -1.
          1   -1    0    0  501    0 -0.00000000000E+00 -0.00000000000E+00 -0.40600217077E+04  0.40600217077E+04  0.00000000000E+00 0. -1.
         25    2    1    2    0    0  0.11820982984E+02  0.19720893623E+02  0.66239481352E+02  0.14332202074E+03  0.12499953382E+03 0.  0.
          2    1    1    2  501    0 -0.30163836058E+02 -0.54305115342E+02 -0.40204905145E+04  0.40209703903E+04  0.00000000000E+00 0. -1.
          1    1    1    2  502    0  0.18342853074E+02  0.34584221719E+02  0.51010270199E+03  0.51160267321E+03  0.00000000000E+00 0. -1.
         22    1    3    3    0    0  0.43057223344E+02  0.61409478829E+02  0.39620077309E+02  0.84822161597E+02  0.00000000000E+00 0.  1.
         22    1    3    3    0    0 -0.31236240360E+02 -0.41688585205E+02  0.26619404043E+02  0.58499859144E+02  0.00000000000E+00 0.  1.
</event>
<event>
 7    1  0.6058736E-006  0.9616498E+02  0.7818608E-02  0.1353823E+00
          2   -1    0    0  502    0  0.00000000000E+00  0.00000000000E+00  0.71475094950E+03  0.71475094950E+03  0.00000000000E+00 0. -1.
          1   -1    0    0  501    0 -0.00000000000E+00 -0.00000000000E+00 -0.10681208239E+03  0.10681208239E+03  0.00000000000E+00 0. -1.
         25    2    1    2    0    0 -0.76063339054E+02  0.23968102363E+02  0.63278463237E+02  0.16121276528E+03  0.12500116120E+03 0.  0.
          2    1    1    2  501    0  0.13319669948E+02  0.52046470019E+02 -0.40290517649E+02  0.67153365227E+02  0.00000000000E+00 0. -1.
          1    1    1    2  502    0  0.62743669106E+02 -0.76014572382E+02  0.58495092152E+03  0.59319690138E+03  0.00000000000E+00 0. -1.
         22    1    3    3    0    0  0.26711500850E+02 -0.12412612011E+02  0.40094803080E+02  0.49751084899E+02  0.00000000000E+00 0. -1.
         22    1    3    3    0    0 -0.10277483990E+03  0.36380714374E+02  0.23183660157E+02  0.11146168038E+03  0.00000000000E+00 0. -1.
</event>
<event>
 7    1  0.6058736E-006  0.1305645E+03  0.7818608E-02  0.1252626E+00
          2   -1    0    0  502    0  0.00000000000E+00  0.00000000000E+00  0.72528831527E+03  0.72528831527E+03  0.00000000000E+00 0. -1.
          1   -1    0    0  501    0 -0.00000000000E+00 -0.00000000000E+00 -0.29946154089E+04  0.29946154089E+04  0.00000000000E+00 0. -1.
         25    2    1    2    0    0 -0.75528842482E+02  0.19332458540E+03 -0.16988466164E+03  0.29591342699E+03  0.12499982659E+03 0.  0.
          2    1    1    2  501    0 -0.14036454161E+01 -0.12905990904E+03 -0.27564044366E+04  0.27594245503E+04  0.00000000000E+00 0. -1.
          1    1    1    2  502    0  0.76932487899E+02 -0.64264676363E+02  0.65696200468E+03  0.66456574687E+03  0.00000000000E+00 0. -1.
         22    1    3    3    0    0 -0.20697426387E+02  0.80593264210E+01  0.16335164764E+02  0.27571249686E+02  0.00000000000E+00 0. -1.
         22    1    3    3    0    0 -0.54831416096E+02  0.18526525898E+03 -0.18621982640E+03  0.26834217731E+03  0.00000000000E+00 0. -1.
</event>
<event>
 7    1  0.6058736E-006  0.1574766E+03  0.7818608E-02  0.1317834E+00
          2   -1    0    0  502    0  0.00000000000E+00  0.00000000000E+00  0.15313345148E+03  0.15313345148E+03  0.00000000000E+00 0. -1.
          1   -1    0    0  501    0 -0.00000000000E+00 -0.00000000000E+00 -0.49378269503E+03  0.49378269503E+03  0.00000000000E+00 0. -1.
         25    2    1    2    0    0  0.12712475538E+03 -0.48972411542E+02 -0.14318183851E+03  0.23384995292E+03  0.12500304428E+03 0.  0.
          2    1    1    2  501    0  0.36936719270E+02  0.25529606992E+02 -0.23820908923E+03  0.24240390314E+03  0.00000000000E+00 0. -1.
          1    1    1    2  502    0 -0.16406147465E+03  0.23442804550E+02  0.40741684198E+02  0.17066229044E+03  0.00000000000E+00 0. -1.
         22    1    3    3    0    0  0.29212475240E+02  0.31868352164E+02 -0.10244137485E+01  0.43243612277E+02  0.00000000000E+00 0.  1.
         22    1    3    3    0    0  0.97912280137E+02 -0.80840763706E+02 -0.14215742476E+03  0.19060634064E+03  0.00000000000E+00 0.  1.
</event>
<event>
 7    1  0.6058736E-006  0.1382166E+03  0.7818608E-02  0.1337153E+00
          2   -1    0    0  502    0  0.00000000000E+00  0.00000000000E+00  0.67864381594E+03  0.67864381594E+03  0.00000000000E+00 0. -1.
          1   -1    0    0  501    0 -0.00000000000E+00 -0.00000000000E+00 -0.21242521780E+04  0.21242521780E+04  0.00000000000E+00 0. -1.
         25    2    1    2    0    0 -0.49056757975E+02 -0.92415175575E+02 -0.50293598008E+03  0.52869297344E+03  0.12499811969E+03 0.  0.
          2    1    1    2  501    0  0.77075611311E+02  0.12520930692E+03 -0.16043739560E+04  0.16110970831E+04  0.00000000000E+00 0. -1.
          1    1    1    2  502    0 -0.28018853336E+02 -0.32794131341E+02  0.66170157402E+03  0.66310593743E+03  0.00000000000E+00 0. -1.
         22    1    3    3    0    0 -0.60897533296E+02 -0.49912742329E+02 -0.12194898593E+03  0.14515972781E+03  0.00000000000E+00 0. -1.
         22    1    3    3    0    0  0.11840775321E+02 -0.42502433246E+02 -0.38098699415E+03  0.38353324563E+03  0.00000000000E+00 0. -1.
</event>
<event>
 7    1  0.6058736E-006  0.5531195E+02  0.7818608E-02  0.1424131E+00
          2   -1    0    0  502    0  0.00000000000E+00  0.00000000000E+00  0.36267184526E+02  0.36267184526E+02  0.00000000000E+00 0. -1.
          1   -1    0    0  501    0 -0.00000000000E+00 -0.00000000000E+00 -0.14170348633E+04  0.14170348633E+04  0.00000000000E+00 0. -1.
         25    2    1    2    0    0 -0.87527728821E+02  0.37408658170E+01 -0.29550136410E+03  0.33259791128E+03  0.12500086806E+03 0.  0.
          2    1    1    2  501    0  0.46100767572E+02  0.29356808866E+02 -0.10609717562E+04  0.10623785439E+04  0.00000000000E+00 0. -1.
          1    1    1    2  502    0  0.41426961249E+02 -0.33097674683E+02 -0.24294558435E+02  0.58325592644E+02  0.00000000000E+00 0. -1.
         22    1    3    3    0    0 -0.80519721715E+02  0.14052318597E+02 -0.30573241224E+03  0.31646990558E+03  0.00000000000E+00 0.  1.
         22    1    3    3    0    0 -0.70080071065E+01 -0.10311452780E+02  0.10231048139E+02  0.16128005706E+02  0.00000000000E+00 0.  1.
</event>
<event>
 7    1  0.6058736E-006  0.7195794E+02  0.7818608E-02  0.1423643E+00
          2   -1    0    0  502    0  0.00000000000E+00  0.00000000000E+00  0.20620994879E+03  0.20620994879E+03  0.00000000000E+00 0. -1.
          1   -1    0    0  501    0 -0.00000000000E+00 -0.00000000000E+00 -0.12360446470E+04  0.12360446470E+04  0.00000000000E+00 0. -1.
         25    2    1    2    0    0 -0.33843281772E+02  0.63948348076E+02 -0.28492889461E+03  0.31944322070E+03  0.12499894930E+03 0.  0.
          2    1    1    2  501    0  0.63446547282E+02 -0.35710653077E+02 -0.93020488845E+03  0.93304975730E+03  0.00000000000E+00 0. -1.
          1    1    1    2  502    0 -0.29603265510E+02 -0.28237694999E+02  0.18529908484E+03  0.18976161780E+03  0.00000000000E+00 0. -1.
         22    1    3    3    0    0 -0.33485009416E+02 -0.98092589594E+01 -0.21497293527E+03  0.21778620323E+03  0.00000000000E+00 0. -1.
         22    1    3    3    0    0 -0.35827235615E+00  0.73757607035E+02 -0.69955959336E+02  0.10165701747E+03  0.00000000000E+00 0. -1.
</event>
<event>
 7    1  0.6058736E-006  0.6550663E+02  0.7818608E-02  0.1526166E+00
          2   -1    0    0  502    0  0.00000000000E+00  0.00000000000E+00  0.43044787162E+03  0.43044787162E+03  0.00000000000E+00 0. -1.
          1   -1    0    0  501    0 -0.00000000000E+00 -0.00000000000E+00 -0.27106533918E+03  0.27106533918E+03  0.00000000000E+00 0. -1.
         25    2    1    2    0    0  0.23551298317E+02 -0.77005182066E+02 -0.50151729466E+02  0.15692138557E+03  0.12499865425E+03 0.  0.
          2    1    1    2  501    0 -0.65459921439E+01  0.63602727084E+02 -0.16110062694E+03  0.17332503831E+03  0.00000000000E+00 0. -1.
          1    1    1    2  502    0 -0.17005306174E+02  0.13402454982E+02  0.37063488884E+03  0.37126678691E+03  0.00000000000E+00 0. -1.
         22    1    3    3    0    0 -0.32667039643E+02  0.10510628850E+02 -0.39555011626E+02  0.52366093444E+02  0.00000000000E+00 0.  1.
         22    1    3    3    0    0  0.56218337961E+02 -0.87515810915E+02 -0.10596717840E+02  0.10455529213E+03  0.00000000000E+00 0.  1.
</event>
<event>
 7    1  0.6058736E-006  0.7409690E+02  0.7818608E-02  0.1350792E+00
          2   -1    0    0  502    0  0.00000000000E+00  0.00000000000E+00  0.16112594232E+04  0.16112594232E+04  0.00000000000E+00 0. -1.
          1   -1    0    0  501    0 -0.00000000000E+00 -0.00000000000E+00 -0.40264244037E+03  0.40264244037E+03  0.00000000000E+00 0. -1.
         25    2    1    2    0    0  0.87582586441E+02 -0.73562034935E+02 -0.32757788529E+02  0.17256858290E+03  0.12499904265E+03 0.  0.
          2    1    1    2  501    0 -0.16080983330E+02  0.71100060982E+02 -0.29470584146E+03  0.30358746629E+03  0.00000000000E+00 0. -1.
          1    1    1    2  502    0 -0.71501603111E+02  0.24619739526E+01  0.15360806128E+04  0.15377458143E+04  0.00000000000E+00 0. -1.
         22    1    3    3    0    0  0.18916084185E+02 -0.95140091630E+02 -0.12565734454E+02  0.97812846593E+02  0.00000000000E+00 0. -1.
         22    1    3    3    0    0  0.68666502257E+02  0.21578056696E+02 -0.20192054075E+02  0.74755736306E+02  0.00000000000E+00 0. -1.
</event>
<event>
 7    1  0.6058736E-006  0.9278368E+02  0.7818608E-02  0.1309575E+00
          2   -1    0    0  502    0  0.00000000000E+00  0.00000000000E+00  0.15027517570E+04  0.15027517570E+04  0.00000000000E+00 0. -1.
          1   -1    0    0  501    0 -0.00000000000E+00 -0.00000000000E+00 -0.20646648046E+04  0.20646648046E+04  0.00000000000E+00 0. -1.
         25    2    1    2    0    0 -0.68565650980E+02 -0.86886876806E+02 -0.35904474700E+02  0.17076401988E+03  0.12498256409E+03 0.  0.
          2    1    1    2  501    0  0.92667228025E+02  0.84006061417E+01 -0.19590513082E+04  0.19612597517E+04  0.00000000000E+00 0. -1.
          1    1    1    2  502    0 -0.24101577045E+02  0.78486270664E+02  0.14330427353E+04  0.14353927901E+04  0.00000000000E+00 0. -1.
         22    1    3    3    0    0 -0.83085563230E+02 -0.44498439789E+02  0.22745724260E+02  0.96957155141E+02  0.00000000000E+00 0. -1.
         22    1    3    3    0    0  0.14519912250E+02 -0.42388437017E+02 -0.58650198960E+02  0.73806864739E+02  0.00000000000E+00 0. -1.
</event>
<event>
 7    1  0.6058736E-006  0.5592533E+02  0.7818608E-02  0.1439259E+00
          2   -1    0    0  502    0  0.00000000000E+00  0.00000000000E+00  0.86605752431E+03  0.86605752431E+03  0.00000000000E+00 0. -1.
          1   -1    0    0  501    0 -0.00000000000E+00 -0.00000000000E+00 -0.65134947739E+03  0.65134947739E+03  0.00000000000E+00 0. -1.
         25    2    1    2    0    0  0.13728433440E+02  0.24440947318E+01  0.24117161006E+03  0.27199857299E+03  0.12500013891E+03 0.  0.
          2    1    1    2  501    0  0.45940409216E+02 -0.87919411651E+01 -0.63359486022E+03  0.63531902720E+03  0.00000000000E+00 0. -1.
          1    1    1    2  502    0 -0.59668842656E+02  0.63478464333E+01  0.60713129708E+03  0.61008940151E+03  0.00000000000E+00 0. -1.
         22    1    3    3    0    0  0.40234171813E+02  0.47866191598E+02  0.74696238511E+02  0.97414007859E+02  0.00000000000E+00 0. -1.
         22    1    3    3    0    0 -0.26505738373E+02 -0.45422096866E+02  0.16647537155E+03  0.17458456514E+03  0.00000000000E+00 0. -1.
</event>
<event>
 7    1  0.6058736E-006  0.4483469E+02  0.7818608E-02  0.1494744E+00
          2   -1    0    0  502    0  0.00000000000E+00  0.00000000000E+00  0.87029830602E+03  0.87029830602E+03  0.00000000000E+00 0. -1.
          1   -1    0    0  501    0 -0.00000000000E+00 -0.00000000000E+00 -0.28984792375E+03  0.28984792375E+03  0.00000000000E+00 0. -1.
         25    2    1    2    0    0  0.52434998010E+02  0.86174251066E+01 -0.10262973676E+03  0.17023980845E+03  0.12500016192E+03 0.  0.
          2    1    1    2  501    0 -0.16502397512E+02 -0.35490184230E+02 -0.15030344162E+03  0.15531582941E+03  0.00000000000E+00 0. -1.
          1    1    1    2  502    0 -0.35932600499E+02  0.26872759124E+02  0.83338356065E+03  0.83459059193E+03  0.00000000000E+00 0. -1.
         22    1    3    3    0    0  0.13524037338E+02  0.32973620653E+02  0.18891839504E+02  0.40336842275E+02  0.00000000000E+00 0. -1.
         22    1    3    3    0    0  0.38910960672E+02 -0.24356195546E+02 -0.12152157626E+03  0.12990296617E+03  0.00000000000E+00 0. -1.
</event>
<event>
 7    1  0.6058736E-006  0.1007143E+03  0.7818608E-02  0.1285056E+00
          2   -1    0    0  502    0  0.00000000000E+00  0.00000000000E+00  0.12402943050E+03  0.12402943050E+03  0.00000000000E+00 0. -1.
          1   -1    0    0  501    0 -0.00000000000E+00 -0.00000000000E+00 -0.18838992594E+04  0.18838992594E+04  0.00000000000E+00 0. -1.
         25    2    1    2    0    0 -0.36382095253E+02 -0.54514218237E+02 -0.69447454798E+03  0.70867253992E+03  0.12500565668E+03 0.  0.
          2    1    1    2  501    0  0.88443287691E+02 -0.34438723162E+02 -0.11572870626E+04  0.11611725048E+04  0.00000000000E+00 0. -1.
          1    1    1    2  502    0 -0.52061192438E+02  0.88952941399E+02  0.91891781609E+02  0.13808364519E+03  0.00000000000E+00 0. -1.
         22    1    3    3    0    0 -0.54096683676E+02 -0.18405885173E+02 -0.12126628076E+03  0.13405498366E+03  0.00000000000E+00 0. -1.
         22    1    3    3    0    0  0.17714588423E+02 -0.36108333064E+02 -0.57320826721E+03  0.57461755626E+03  0.00000000000E+00 0. -1.
</event>
<event>
 7    1  0.6058736E-006  0.5988306E+02  0.7818608E-02  0.1544287E+00
          2   -1    0    0  502    0  0.00000000000E+00  0.00000000000E+00  0.94160905667E+03  0.94160905667E+03  0.00000000000E+00 0. -1.
          1   -1    0    0  501    0 -0.00000000000E+00 -0.00000000000E+00 -0.15040626536E+03  0.15040626536E+03  0.00000000000E+00 0. -1.
         25    2    1    2    0    0 -0.43405259257E+02 -0.45682622602E+02  0.37073595464E+03  0.39628575284E+03  0.12500532509E+03 0.  0.
          2    1    1    2  501    0  0.53376415010E+02  0.27162308781E+02 -0.13090604123E+03  0.14395563319E+03  0.00000000000E+00 0. -1.
          1    1    1    2  502    0 -0.99711557527E+01  0.18520313821E+02  0.55137287790E+03  0.55177393601E+03  0.00000000000E+00 0. -1.
         22    1    3    3    0    0 -0.42678874294E+02  0.37494237520E+02  0.14980027311E+03  0.16021056764E+03  0.00000000000E+00 0.  1.
         22    1    3    3    0    0 -0.72638496287E+00 -0.83176860122E+02  0.22093568153E+03  0.23607518520E+03  0.00000000000E+00 0.  1.
</event>
<event>
 7    1  0.6058736E-006  0.6188179E+02  0.7818608E-02  0.1531964E+00
          2   -1    0    0  502    0  0.00000000000E+00  0.00000000000E+00  0.13007701022E+04  0.13007701022E+04  0.00000000000E+00 0. -1.
          1   -1    0    0  501    0 -0.00000000000E+00 -0.00000000000E+00 -0.40049791808E+03  0.40049791808E+03  0.00000000000E+00 0. -1.
         25    2    1    2    0    0 -0.19175796493E+02 -0.65495368344E+02 -0.24581886028E+03  0.28409382352E+03  0.12500013618E+03 0.  0.
          2    1    1    2  501    0 -0.23067092720E+01  0.60485544693E+02 -0.12868364890E+03  0.14220866190E+03  0.00000000000E+00 0. -1.
          1    1    1    2  502    0  0.21482505765E+02  0.50098236510E+01  0.12747746933E+04  0.12749655349E+04  0.00000000000E+00 0. -1.
         22    1    3    3    0    0 -0.53962655365E+02  0.14897365873E+01 -0.16455806995E+03  0.17318644830E+03  0.00000000000E+00 0.  1.
         22    1    3    3    0    0  0.34786858873E+02 -0.66985104931E+02 -0.81260790338E+02  0.11090737522E+03  0.00000000000E+00 0.  1.
</event>
<event>
 7    1  0.6058736E-006  0.6271180E+02  0.7818608E-02  0.1424983E+00
          2   -1    0    0  502    0  0.00000000000E+00  0.00000000000E+00  0.93625494287E+03  0.93625494287E+03  0.00000000000E+00 0. -1.
          1   -1    0    0  501    0 -0.00000000000E+00 -0.00000000000E+00 -0.69841150837E+03  0.69841150837E+03  0.00000000000E+00 0. -1.
         25    2    1    2    0    0  0.99206171451E+02  0.35956098675E+02 -0.34264613396E+00  0.16358479870E+03  0.12500065389E+03 0.  0.
          2    1    1    2  501    0 -0.46350062930E+02 -0.32604906538E+01 -0.61443950194E+03  0.61619384992E+03  0.00000000000E+00 0. -1.
          1    1    1    2  502    0 -0.52856108521E+02 -0.32695608021E+02  0.85262558258E+03  0.85488780261E+03  0.00000000000E+00 0. -1.
         22    1    3    3    0    0  0.16235847193E+02 -0.43932759656E+01  0.53965767095E+02  0.56526167622E+02  0.00000000000E+00 0. -1.
         22    1    3    3    0    0  0.82970324258E+02  0.40349374641E+02 -0.54308413229E+02  0.10705863108E+03  0.00000000000E+00 0. -1.
</event>
<event>
 7    1  0.6058736E-006  0.5200367E+02  0.7818608E-02  0.1544528E+00
          2   -1    0    0  502    0  0.00000000000E+00  0.00000000000E+00  0.51840794577E+03  0.51840794577E+03  0.00000000000E+00 0. -1.
          1   -1    0    0  501    0 -0.00000000000E+00 -0.00000000000E+00 -0.10620724665E+04  0.10620724665E+04  0.00000000000E+00 0. -1.
         25    2    1    2    0    0 -0.19013815366E+02 -0.29648371574E+02 -0.56033874940E+03  0.57519156706E+03  0.12500109449E+03 0.  0.
          2    1    1    2  501    0  0.15657761910E+02  0.53597545367E+02 -0.49244249255E+03  0.49559809407E+03  0.00000000000E+00 0. -1.
          1    1    1    2  502    0  0.33560534565E+01 -0.23949173793E+02  0.50911672120E+03  0.50969075116E+03  0.00000000000E+00 0. -1.
         22    1    3    3    0    0  0.96311179957E+01 -0.14285611664E+02 -0.53137684618E+03  0.53165608225E+03  0.00000000000E+00 0.  1.
         22    1    3    3    0    0 -0.28644933362E+02 -0.15362759910E+02 -0.28961903213E+02  0.43535484804E+02  0.00000000000E+00 0.  1.
</event>
<event>
 7    1  0.6058736E-006  0.5640428E+02  0.7818608E-02  0.1478782E+00
          2   -1    0    0  502    0  0.00000000000E+00  0.00000000000E+00  0.63769639987E+03  0.63769639987E+03  0.00000000000E+00 0. -1.
          1   -1    0    0  501    0 -0.00000000000E+00 -0.00000000000E+00 -0.27617053727E+03  0.27617053727E+03  0.00000000000E+00 0. -1.
         25    2    1    2    0    0 -0.75877892349E+02 -0.28201973654E+02  0.21160834122E+03  0.25875854870E+03  0.12500036235E+03 0.  0.
          2    1    1    2  501    0  0.42223410068E+02  0.37008875787E+02 -0.24870843323E+03  0.25496736655E+03  0.00000000000E+00 0. -1.
          1    1    1    2  502    0  0.33654482281E+02 -0.88069021331E+01  0.39862595462E+03  0.40014102189E+03  0.00000000000E+00 0. -1.
         22    1    3    3    0    0 -0.10225247587E+03  0.74516083386E+01  0.12687193097E+03  0.16311830724E+03  0.00000000000E+00 0. -1.
         22    1    3    3    0    0  0.26374583522E+02 -0.35653581993E+02  0.84736410253E+02  0.95640241465E+02  0.00000000000E+00 0. -1.
</event>
<event>
 7    1  0.6058736E-006  0.2576464E+03  0.7818608E-02  0.1164347E+00
          2   -1    0    0  502    0  0.00000000000E+00  0.00000000000E+00  0.14088430094E+03  0.14088430094E+03  0.00000000000E+00 0. -1.
          1   -1    0    0  501    0 -0.00000000000E+00 -0.00000000000E+00 -0.91241893340E+03  0.91241893340E+03  0.00000000000E+00 0. -1.
         25    2    1    2    0    0 -0.15256761342E+03 -0.23140324307E+03 -0.20924122508E+03  0.36909473875E+03  0.12499879331E+03 0.  0.
          2    1    1    2  501    0  0.24296802779E+02  0.25730404842E+03 -0.35632389295E+03  0.44018453476E+03  0.00000000000E+00 0. -1.
          1    1    1    2  502    0  0.12827081065E+03 -0.25900805345E+02 -0.20596951443E+03  0.24402396082E+03  0.00000000000E+00 0. -1.
         22    1    3    3    0    0 -0.11574199526E+03 -0.22409500518E+03 -0.21461131179E+03  0.33116883302E+03  0.00000000000E+00 0.  1.
         22    1    3    3    0    0 -0.36825618168E+02 -0.73082378931E+01  0.53700867094E+01  0.37925905735E+02  0.00000000000E+00 0.  1.
</event>
<event>
 7    1  0.6058736E-006  0.8727218E+02  0.7818608E-02  0.1331017E+00
          2   -1    0    0  502    0  0.00000000000E+00  0.00000000000E+00  0.89345849467E+03  0.89345849467E+03  0.00000000000E+00 0. -1.
          1   -1    0    0  501    0 -0.00000000000E+00 -0.00000000000E+00 -0.13322681206E+04  0.13322681206E+04  0.00000000000E+00 0. -1.
         25    2    1    2    0    0 -0.62251280853E+02 -0.82862664920E+02  0.65617409420E+02  0.17513404590E+03  0.12499938563E+03 0.  0.
          2    1    1    2  501    0  0.86142585122E+02  0.14860781492E+02 -0.12743292228E+04  0.12773239040E+04  0.00000000000E+00 0. -1.
          1    1    1    2  502    0 -0.23891304269E+02  0.68001883428E+02  0.76990218744E+03  0.77326866534E+03  0.00000000000E+00 0. -1.
         22    1    3    3    0    0 -0.79090965345E+02 -0.82101663482E+02  0.90171059431E+02  0.14535089922E+03  0.00000000000E+00 0.  1.
         22    1    3    3    0    0  0.16839684492E+02 -0.76100143742E+00 -0.24553650011E+02  0.29783146675E+02  0.00000000000E+00 0.  1.
</event>
<event>
 7    1  0.6058736E-006  0.6956897E+02  0.7818608E-02  0.1447585E+00
          2   -1    0    0  502    0  0.00000000000E+00  0.00000000000E+00  0.64784570119E+03  0.64784570119E+03  0.00000000000E+00 0. -1.
          1   -1    0    0  501    0 -0.00000000000E+00 -0.00000000000E+00 -0.20984850221E+03  0.20984850221E+03  0.00000000000E+00 0. -1.
         25    2    1    2    0    0 -0.13190275511E+02  0.41257031070E+02  0.21218788752E+03  0.25005021520E+03  0.12500113812E+03 0.  0.
          2    1    1    2  501    0  0.12019322589E+02  0.33237065289E+02 -0.18590911738E+03  0.18923891394E+03  0.00000000000E+00 0. -1.
          1    1    1    2  502    0  0.11709529225E+01 -0.74494096358E+02  0.41171842883E+03  0.41840507426E+03  0.00000000000E+00 0. -1.
         22    1    3    3    0    0  0.34685357282E+02  0.66513980501E+02  0.95668302578E+02  0.12157141000E+03  0.00000000000E+00 0. -1.
         22    1    3    3    0    0 -0.47875632793E+02 -0.25256949432E+02  0.11651958495E+03  0.12847880520E+03  0.00000000000E+00 0. -1.
</event>
<event>
 7    1  0.6058736E-006  0.6040125E+02  0.7818608E-02  0.1418739E+00
          2   -1    0    0  502    0  0.00000000000E+00  0.00000000000E+00  0.14567187891E+04  0.14567187891E+04  0.00000000000E+00 0. -1.
          1   -1    0    0  501    0 -0.00000000000E+00 -0.00000000000E+00 -0.40090841167E+03  0.40090841167E+03  0.00000000000E+00 0. -1.
         25    2    1    2    0    0 -0.92276043064E+02  0.56932583404E+02  0.41314283043E+03  0.44504877842E+03  0.12500091865E+03 0.  0.
          2    1    1    2  501    0  0.56196054565E+02 -0.21443357453E+02 -0.38197758688E+03  0.38668422648E+03  0.00000000000E+00 0. -1.
          1    1    1    2  502    0  0.36079988499E+02 -0.35489225952E+02  0.10246451339E+04  0.10258941958E+04  0.00000000000E+00 0. -1.
         22    1    3    3    0    0 -0.94996287519E+02  0.51329467228E+02  0.16724825908E+03  0.19907533502E+03  0.00000000000E+00 0.  1.
         22    1    3    3    0    0  0.27202444549E+01  0.56031161763E+01  0.24589457134E+03  0.24597344340E+03  0.00000000000E+00 0.  1.
</event>
<event>
 7    1  0.6058736E-006  0.3453259E+02  0.7818608E-02  0.1607946E+00
          2   -1    0    0  502    0  0.00000000000E+00  0.00000000000E+00  0.15527315677E+03  0.15527315677E+03  0.00000000000E+00 0. -1.
          1   -1    0    0  501    0 -0.00000000000E+00 -0.00000000000E+00 -0.38755097420E+03  0.38755097420E+03  0.00000000000E+00 0. -1.
         25    2    1    2    0    0 -0.18838288120E+02  0.47145858809E+02 -0.38662283083E+02  0.14034264476E+03  0.12499469070E+03 0.  0.
          2    1    1    2  501    0  0.20823243706E+02 -0.13036324736E+02 -0.29472908085E+03  0.29575122035E+03  0.00000000000E+00 0. -1.
          1    1    1    2  502    0 -0.19849555857E+01 -0.34109534073E+02  0.10111354650E+03  0.10673026586E+03  0.00000000000E+00 0. -1.
         22    1    3    3    0    0  0.38317566758E+02 -0.22107406459E+02 -0.20383608642E+02  0.48707954626E+02  0.00000000000E+00 0. -1.
         22    1    3    3    0    0 -0.57155854878E+02  0.69253265268E+02 -0.18278674441E+02  0.91634690136E+02  0.00000000000E+00 0. -1.
</event>
<event>
 7    1  0.6058736E-006  0.5947868E+02  0.7818608E-02  0.1434134E+00
          2   -1    0    0  502    0  0.00000000000E+00  0.00000000000E+00  0.30238191187E+04  0.30238191187E+04  0.00000000000E+00 0. -1.
          1   -1    0    0  501    0 -0.00000000000E+00 -0.00000000000E+00 -0.21087946301E+03  0.21087946301E+03  0.00000000000E+00 0. -1.
         25    2    1    2    0    0 -0.23161849672E+02  0.10184119476E+03  0.11037401168E+04  0.11156953273E+04  0.12500287112E+03 0.  0.
          2    1    1    2  501    0  0.18377679036E+02 -0.56386981118E+02 -0.20033130887E+03  0.20892549878E+03  0.00000000000E+00 0. -1.
          1    1    1    2  502    0  0.47841706360E+01 -0.45454213642E+02  0.19095308478E+04  0.19100777557E+04  0.00000000000E+00 0. -1.
         22    1    3    3    0    0  0.19524849957E+01  0.30141309286E+02  0.44785073295E+02  0.54018640423E+02  0.00000000000E+00 0.  1.
         22    1    3    3    0    0 -0.25114334668E+02  0.71699885474E+02  0.10589550435E+04  0.10616766869E+04  0.00000000000E+00 0.  1.
</event>
<event>
 7    1  0.6058736E-006  0.1819902E+03  0.7818608E-02  0.1173287E+00
          2   -1    0    0  502    0  0.00000000000E+00  0.00000000000E+00  0.18142816800E+04  0.18142816800E+04  0.00000000000E+00 0. -1.
          1   -1    0    0  501    0 -0.00000000000E+00 -0.00000000000E+00 -0.80695702236E+03  0.80695702236E+03  0.00000000000E+00 0. -1.
         25    2    1    2    0    0 -0.16503091417E+03  0.78427585253E+02  0.18686348962E+02  0.22216879644E+03  0.12499482275E+03 0.  0.
          2    1    1    2  501    0  0.16699898975E+03  0.88779092875E+02 -0.68830164446E+03  0.71381338155E+03  0.00000000000E+00 0. -1.
          1    1    1    2  502    0 -0.19680755772E+01 -0.16720667813E+03  0.16769399531E+04  0.16852565244E+04  0.00000000000E+00 0. -1.
         22    1    3    3    0    0 -0.96919197518E+02  0.62465086669E+02 -0.48577757482E+02  0.12512000808E+03  0.00000000000E+00 0. -1.
         22    1    3    3    0    0 -0.68111716656E+02  0.15962498585E+02  0.67264106444E+02  0.97048788363E+02  0.00000000000E+00 0. -1.
</event>
<event>
 7    1  0.6058736E-006  0.3885711E+02  0.7818608E-02  0.1528460E+00
          2   -1    0    0  502    0  0.00000000000E+00  0.00000000000E+00  0.53701566276E+02  0.53701566276E+02  0.00000000000E+00 0. -1.
          1   -1    0    0  501    0 -0.00000000000E+00 -0.00000000000E+00 -0.20310663422E+04  0.20310663422E+04  0.00000000000E+00 0. -1.
         25    2    1    2    0    0  0.93005379450E+01 -0.45923106015E+02 -0.34623450164E+03  0.37107822233E+03  0.12500114115E+03 0.  0.
          2    1    1    2  501    0  0.24477019340E+02  0.26332049305E+02 -0.16629378705E+04  0.16633264450E+04  0.00000000000E+00 0. -1.
          1    1    1    2  502    0 -0.33777557285E+02  0.19591056710E+02  0.31807596269E+02  0.50363241154E+02  0.00000000000E+00 0. -1.
         22    1    3    3    0    0 -0.41047716557E+02 -0.65378228183E+02 -0.23663394222E+03  0.24890731280E+03  0.00000000000E+00 0. -1.
         22    1    3    3    0    0  0.50348254502E+02  0.19455122168E+02 -0.10960055943E+03  0.12217090953E+03  0.00000000000E+00 0. -1.
</event>
<event>
 7    1  0.6058736E-006  0.1712232E+03  0.7818608E-02  0.1329269E+00
          2   -1    0    0  502    0  0.00000000000E+00  0.00000000000E+00  0.12062968504E+03  0.12062968504E+03  0.00000000000E+00 0. -1.
          1   -1    0    0  501    0 -0.00000000000E+00 -0.00000000000E+00 -0.24220348029E+04  0.24220348029E+04  0.00000000000E+00 0. -1.
         25    2    1    2    0    0 -0.15848747199E+03 -0.10237988753E+03 -0.31601566155E+03  0.38870419132E+03  0.12500051941E+03 0.  0.
          2    1    1    2  501    0  0.41147694048E+01  0.37079077423E+02 -0.19859928293E+04  0.19863431998E+04  0.00000000000E+00 0. -1.
          1    1    1    2  502    0  0.15437270259E+03  0.65300810105E+02  0.60337295852E+00  0.16761709687E+03  0.00000000000E+00 0. -1.
         22    1    3    3    0    0 -0.10821202738E+03  0.33873648976E+01 -0.13402678897E+03  0.17229189555E+03  0.00000000000E+00 0. -1.
         22    1    3    3    0    0 -0.50275444612E+02 -0.10576725243E+03 -0.18198887257E+03  0.21641229576E+03  0.00000000000E+00 0. -1.
</event>
<event>
 7    1  0.6058736E-006  0.9855582E+02  0.7818608E-02  0.1315790E+00
          2   -1    0    0  502    0  0.00000000000E+00  0.00000000000E+00  0.28797624016E+04  0.28797624016E+04  0.00000000000E+00 0. -1.
          1   -1    0    0  501    0 -0.00000000000E+00 -0.00000000000E+00 -0.13931909315E+03  0.13931909315E+03  0.00000000000E+00 0. -1.
         25    2    1    2    0    0  0.10994179594E+03 -0.17161636599E+01  0.61046797748E+03  0.63275857494E+03  0.12498847516E+03 0.  0.
          2    1    1    2  501    0 -0.34974355853E+02 -0.64159765194E+02 -0.11656027077E+03  0.13757171860E+03  0.00000000000E+00 0. -1.
          1    1    1    2  502    0 -0.74967440090E+02  0.65875928854E+02  0.22465356018E+04  0.22487512012E+04  0.00000000000E+00 0. -1.
         22    1    3    3    0    0  0.76339667970E+01  0.38658501056E+02  0.62675618451E+02  0.74033710573E+02  0.00000000000E+00 0.  1.
         22    1    3    3    0    0  0.10230782915E+03 -0.40374664716E+02  0.54779235903E+03  0.55872486437E+03  0.00000000000E+00 0.  1.
</event>
<event>
 7    1  0.6058736E-006  0.4466092E+02  0.7818608E-02  0.1533885E+00
          2   -1    0    0  502    0  0.00000000000E+00  0.00000000000E+00  0.30467378373E+04  0.30467378373E+04  0.00000000000E+00 0. -1.
          1   -1    0    0  501    0 -0.00000000000E+00 -0.00000000000E+00 -0.60956606793E+01  0.60956606793E+01  0.00000000000E+00 0. -1.
         25    2    1    2    0    0 -0.13511942811E+01 -0.17034320144E+02  0.18468501160E+04  0.18511542973E+04  0.12499955086E+03 0.  0.
          2    1    1    2  501    0  0.11613358328E+02  0.45417401851E+02  0.14369457650E+03  0.15114807905E+03  0.00000000000E+00 0. -1.
          1    1    1    2  502    0 -0.10262164047E+02 -0.28383081707E+02  0.10500974841E+04  0.10505311216E+04  0.00000000000E+00 0. -1.
         22    1    3    3    0    0 -0.20709148168E+02 -0.52671809213E+02  0.15995375905E+04  0.16005385630E+04  0.00000000000E+00 0. -1.
         22    1    3    3    0    0  0.19357953886E+02  0.35637489069E+02  0.24731252550E+03  0.25061573430E+03  0.00000000000E+00 0. -1.
</event>
<event>
 7    1  0.6058736E-006  0.1185954E+03  0.7818608E-02  0.1298126E+00
          2   -1    0    0  502    0  0.00000000000E+00  0.00000000000E+00  0.39297441834E+03  0.39297441834E+03  0.00000000000E+00 0. -1.
          1   -1    0    0  501    0 -0.00000000000E+00 -0.00000000000E+00 -0.17847407388E+03  0.17847407388E+03  0.00000000000E+00 0. -1.
         25    2    1    2    0    0 -0.20452417332E+01 -0.10129018457E+03  0.10852324814E+02  0.16126514761E+03  0.12499916150E+03 0.  0.
          2    1    1    2  501    0 -0.67987476293E+02  0.11487456384E+03 -0.53136953008E+02  0.14367323385E+03  0.00000000000E+00 0. -1.
          1    1    1    2  502    0  0.70032718026E+02 -0.13584379268E+02  0.25678497266E+03  0.26651011076E+03  0.00000000000E+00 0. -1.
         22    1    3    3    0    0 -0.63731406655E+01 -0.27285777048E+02  0.64123860447E+02  0.69978568360E+02  0.00000000000E+00 0. -1.
         22    1    3    3    0    0  0.43278989323E+01 -0.74004407522E+02 -0.53271535633E+02  0.91286579247E+02  0.00000000000E+00 0. -1.
</event>
<event>
 7    1  0.6058736E-006  0.1176191E+03  0.7818608E-02  0.1253112E+00
          2   -1    0    0  502    0  0.00000000000E+00  0.00000000000E+00  0.26779900717E+02  0.26779900717E+02  0.00000000000E+00 0. -1.
          1   -1    0    0  501    0 -0.00000000000E+00 -0.00000000000E+00 -0.28050678405E+04  0.28050678405E+04  0.00000000000E+00 0. -1.
         25    2    1    2    0    0  0.51325050630E+02 -0.88785159557E+02 -0.75138404154E+03  0.76858317383E+03  0.12500020734E+03 0.  0.
          2    1    1    2  501    0 -0.10485193950E+03 -0.35626291469E+02 -0.17644817640E+04  0.17679533527E+04  0.00000000000E+00 0. -1.
          1    1    1    2  502    0  0.53526888866E+02  0.12441145103E+03 -0.26242213429E+03  0.29531121473E+03  0.00000000000E+00 0. -1.
         22    1    3    3    0    0  0.65797484397E+02 -0.11308428648E+03 -0.66294847446E+03  0.67573518821E+03  0.00000000000E+00 0. -1.
         22    1    3    3    0    0 -0.14472433767E+02  0.24299126922E+02 -0.88435567078E+02  0.92847985615E+02  0.00000000000E+00 0. -1.
</event>
<event>
 7    1  0.6058736E-006  0.4474428E+02  0.7818608E-02  0.1492032E+00
          2   -1    0    0  502    0  0.00000000000E+00  0.00000000000E+00  0.91886650009E+03  0.91886650009E+03  0.00000000000E+00 0. -1.
          1   -1    0    0  501    0 -0.00000000000E+00 -0.00000000000E+00 -0.51837163768E+03  0.51837163768E+03  0.00000000000E+00 0. -1.
         25    2    1    2    0    0 -0.54361872306E+02  0.29404826219E+01  0.33517090457E+03  0.36183913799E+03  0.12499666759E+03 0.  0.
          2    1    1    2  501    0  0.29165284823E+02 -0.33959300798E+02 -0.50334298026E+03  0.50532959910E+03  0.00000000000E+00 0. -1.
          1    1    1    2  502    0  0.25196587483E+02  0.31018818176E+02  0.56866693810E+03  0.57006940068E+03  0.00000000000E+00 0. -1.
         22    1    3    3    0    0 -0.92938746612E+01  0.53830277879E+02  0.74073424237E+02  0.92037748239E+02  0.00000000000E+00 0. -1.
         22    1    3    3    0    0 -0.45067997645E+02 -0.50889795257E+02  0.26109748033E+03  0.26980138975E+03  0.00000000000E+00 0. -1.
</event>
<event>
 7    1  0.6058736E-006  0.1093583E+03  0.7818608E-02  0.1331040E+00
          2   -1    0    0  502    0  0.00000000000E+00  0.00000000000E+00  0.10803379312E+04  0.10803379312E+04  0.00000000000E+00 0. -1.
          1   -1    0    0  501    0 -0.00000000000E+00 -0.00000000000E+00 -0.40265809996E+03  0.40265809996E+03  0.00000000000E+00 0. -1.
         25    2    1    2    0    0 -0.16371910095E+03  0.25187522900E+02 -0.11338461196E+03  0.23647724428E+03  0.12500824576E+03 0.  0.
          2    1    1    2  501    0  0.57363547614E+02 -0.40837409290E+01 -0.22115423919E+03  0.22850919247E+03  0.00000000000E+00 0. -1.
          1    1    1    2  502    0  0.10635555334E+03 -0.21103781971E+02  0.10122186824E+04  0.10180095944E+04  0.00000000000E+00 0. -1.
         22    1    3    3    0    0  0.12350605378E+02 -0.21682800796E+02 -0.92231957203E+01  0.26603545682E+02  0.00000000000E+00 0.  1.
         22    1    3    3    0    0 -0.17606970633E+03  0.46870323696E+02 -0.10416141624E+03  0.20987369860E+03  0.00000000000E+00 0.  1.
</event>
<event>
 7    1  0.6058736E-006  0.1553503E+03  0.7818608E-02  0.1347714E+00
          2   -1    0    0  502    0  0.00000000000E+00  0.00000000000E+00  0.19820212888E+04  0.19820212888E+04  0.00000000000E+00 0. -1.
          1   -1    0    0  501    0 -0.00000000000E+00 -0.00000000000E+00 -0.29865501071E+04  0.29865501071E+04  0.00000000000E+00 0. -1.
         25    2    1    2    0    0  0.78447329281E+02  0.10729003393E+03  0.10009112167E+02  0.18273069272E+03  0.12500075553E+03 0.  0.
          2    1    1    2  501    0 -0.11347819368E+03 -0.10687910590E+03 -0.28979315694E+04  0.29021212629E+04  0.00000000000E+00 0. -1.
          1    1    1    2  502    0  0.35030864399E+02 -0.41092802276E+00  0.18833936389E+04  0.18837194402E+04  0.00000000000E+00 0. -1.
         22    1    3    3    0    0  0.97847460394E+01 -0.27317355841E+02  0.12517362691E+02  0.31601638469E+02  0.00000000000E+00 0. -1.
         22    1    3    3    0    0  0.68662583241E+02  0.13460738977E+03 -0.25082505245E+01  0.15112905425E+03  0.00000000000E+00 0. -1.
</event>
<event>
 7    1  0.6058736E-006  0.2116429E+03  0.7818608E-02  0.1371142E+00
          2   -1    0    0  502    0  0.00000000000E+00  0.00000000000E+00  0.16272208567E+04  0.16272208567E+04  0.00000000000E+00 0. -1.
          1   -1    0    0  501    0 -0.00000000000E+00 -0.00000000000E+00 -0.11060064415E+03  0.11060064415E+03  0.00000000000E+00 0. -1.
         25    2    1    2    0    0 -0.62445992374E+02  0.20304259820E+03  0.56091271993E+02  0.25277874429E+03  0.12500025650E+03 0.  0.
          2    1    1    2  501    0 -0.19573299238E+02 -0.79224260525E+01  0.20121965759E+02  0.29168002737E+02  0.00000000000E+00 0. -1.
          1    1    1    2  502    0  0.82019291613E+02 -0.19512017215E+03  0.14404069748E+04  0.14558747538E+04  0.00000000000E+00 0. -1.
         22    1    3    3    0    0 -0.31458201745E+02  0.25260195246E+00 -0.16053674747E+02  0.35318589124E+02  0.00000000000E+00 0. -1.
         22    1    3    3    0    0 -0.30987790629E+02  0.20278999625E+03  0.72144946740E+02  0.21746015517E+03  0.00000000000E+00 0. -1.
</event>
<event>
 7    1  0.6058736E-006  0.9483501E+02  0.7818608E-02  0.1308672E+00
          2   -1    0    0  502    0  0.00000000000E+00  0.00000000000E+00  0.79212750795E+02  0.79212750795E+02  0.00000000000E+00 0. -1.
          1   -1    0    0  501    0 -0.00000000000E+00 -0.00000000000E+00 -0.15636895021E+04  0.15636895021E+04  0.00000000000E+00 0. -1.
         25    2    1    2    0    0  0.66373786344E+02  0.11502156381E+03 -0.37793052590E+03  0.41963242746E+03  0.12499780844E+03 0.  0.
          2    1    1    2  501    0 -0.77871470730E+02 -0.22255301116E+02 -0.11250655987E+04  0.11279768906E+04  0.00000000000E+00 0. -1.
          1    1    1    2  502    0  0.11497684386E+02 -0.92766262694E+02  0.18519373288E+02  0.95292934825E+02  0.00000000000E+00 0. -1.
         22    1    3    3    0    0  0.36297674259E+02  0.23242005291E+02 -0.17554922349E+02  0.46539093945E+02  0.00000000000E+00 0. -1.
         22    1    3    3    0    0  0.30076112085E+02  0.91779558519E+02 -0.36037560355E+03  0.37309333352E+03  0.00000000000E+00 0. -1.
</event>
<event>
 7    1  0.6058736E-006  0.9680626E+02  0.7818608E-02  0.1295745E+00
          2   -1    0    0  502    0  0.00000000000E+00  0.00000000000E+00  0.13417775437E+04  0.13417775437E+04  0.00000000000E+00 0. -1.
          1   -1    0    0  501    0 -0.00000000000E+00 -0.00000000000E+00 -0.96590350533E+03  0.96590350533E+03  0.00000000000E+00 0. -1.
         25    2    1    2    0    0  0.16002846546E+03 -0.83793231900E+02  0.13017142000E+03  0.25534338109E+03  0.12500091286E+03 0.  0.
          2    1    1    2  501    0 -0.73564782607E+02  0.61292841066E+02 -0.89903454910E+03  0.90411930080E+03  0.00000000000E+00 0. -1.
          1    1    1    2  502    0 -0.86463682848E+02  0.22500390834E+02  0.11447371675E+04  0.11482183671E+04  0.00000000000E+00 0. -1.
         22    1    3    3    0    0 -0.20694645779E+00 -0.21659563535E+02  0.69966727724E+02  0.73242900732E+02  0.00000000000E+00 0.  1.
         22    1    3    3    0    0  0.16023541191E+03 -0.62133668365E+02  0.60204692276E+02  0.18210048036E+03  0.00000000000E+00 0.  1.
</event>
<event>
 7    1  0.6058736E-006  0.9248544E+02  0.7818608E-02  0.1331557E+00
          2   -1    0    0  502    0  0.00000000000E+00  0.00000000000E+00  0.79338847091E+03  0.79338847091E+03  0.00000000000E+00 0. -1.
          1   -1    0    0  501    0 -0.00000000000E+00 -0.00000000000E+00 -0.72606230791E+03  0.72606230791E+03  0.00000000000E+00 0. -1.
         25    2    1    2    0    0  0.11027182143E+02 -0.15659584447E+03 -0.18152428844E+02  0.20148870750E+03  0.12499732527E+03 0.  0.
          2    1    1    2  501    0  0.19518203542E+01  0.90159275659E+02 -0.61129345392E+03  0.61790953334E+03  0.00000000000E+00 0. -1.
          1    1    1    2  502    0 -0.12979002497E+02  0.66436568810E+02  0.69677204576E+03  0.70005253798E+03  0.00000000000E+00 0. -1.
         22    1    3    3    0    0  0.45001559100E+02 -0.16029231349E+03 -0.14529290788E+02  0.16712230963E+03  0.00000000000E+00 0.  1.
         22    1    3    3    0    0 -0.33974376957E+02  0.36964690239E+01 -0.36231380562E+01  0.34366397866E+02  0.00000000000E+00 0.  1.
</event>
<event>
 7    1  0.6058736E-006  0.8533585E+02  0.7818608E-02  0.1338089E+00
          2   -1    0    0  502    0  0.00000000000E+00  0.00000000000E+00  0.64721518020E+03  0.64721518020E+03  0.00000000000E+00 0. -1.
          1   -1    0    0  501    0 -0.00000000000E+00 -0.00000000000E+00 -0.12456377823E+04  0.12456377823E+04  0.00000000000E+00 0. -1.
         25    2    1    2    0    0  0.31121384993E+02  0.14445932848E+03  0.21083085064E+03  0.28620169102E+03  0.12499888869E+03 0.  0.
          2    1    1    2  501    0 -0.91836163333E+01 -0.68685309155E+02 -0.12030434707E+04  0.12050375940E+04  0.00000000000E+00 0. -1.
          1    1    1    2  502    0 -0.21937768659E+02 -0.75774019322E+02  0.39379001797E+03  0.40161367749E+03  0.00000000000E+00 0. -1.
         22    1    3    3    0    0  0.47207461810E+02  0.32642821251E+02  0.13716253474E+02  0.59010455338E+02  0.00000000000E+00 0. -1.
         22    1    3    3    0    0 -0.16086076818E+02  0.11181650723E+03  0.19711459717E+03  0.22719123568E+03  0.00000000000E+00 0. -1.
</event>
<event>
 7    1  0.6058736E-006  0.5296708E+02  0.7818608E-02  0.1447773E+00
          2   -1    0    0  502    0  0.00000000000E+00  0.00000000000E+00  0.53104127316E+02  0.53104127316E+02  0.00000000000E+00 0. -1.
          1   -1    0    0  501    0 -0.00000000000E+00 -0.00000000000E+00 -0.27547028114E+04  0.27547028114E+04  0.00000000000E+00 0. -1.
         25    2    1    2    0    0 -0.35450807760E+02 -0.18508251221E+02 -0.18432983109E+04  0.18479646917E+04  0.12500209444E+03 0.  0.
          2    1    1    2  501    0  0.60724200597E+02 -0.20353696416E+02 -0.89710449982E+03  0.89938767230E+03  0.00000000000E+00 0. -1.
          1    1    1    2  502    0 -0.25273392837E+02  0.38861947637E+02  0.38804126644E+02  0.60454574718E+02  0.00000000000E+00 0. -1.
         22    1    3    3    0    0  0.16346889140E+02 -0.30321698588E+01 -0.15262440735E+04  0.15263346248E+04  0.00000000000E+00 0. -1.
         22    1    3    3    0    0 -0.51797696900E+02 -0.15476081362E+02 -0.31705423734E+03  0.32163006687E+03  0.00000000000E+00 0. -1.
</event>
<event>
 7    1  0.6058736E-006  0.1212852E+03  0.7818608E-02  0.1445228E+00
          2   -1    0    0  502    0  0.00000000000E+00  0.00000000000E+00  0.70538014687E+03  0.70538014687E+03  0.00000000000E+00 0. -1.
          1   -1    0    0  501    0 -0.00000000000E+00 -0.00000000000E+00 -0.47789394926E+03  0.47789394926E+03  0.00000000000E+00 0. -1.
         25    2    1    2    0    0  0.11557864051E+03 -0.17496875018E+02 -0.31703291124E+03  0.36027482874E+03  0.12499409039E+03 0.  0.
          2    1    1    2  501    0 -0.12797754319E+03  0.10087381229E+01 -0.10963476255E+03  0.16852017765E+03  0.00000000000E+00 0. -1.
          1    1    1    2  502    0  0.12398902689E+02  0.16488136895E+02  0.65415387140E+03  0.65447908975E+03  0.00000000000E+00 0. -1.
         22    1    3    3    0    0 -0.21565812366E+02 -0.24579029116E+02 -0.46012629335E+02  0.56447984850E+02  0.00000000000E+00 0. -1.
         22    1    3    3    0    0  0.13714445287E+03  0.70821540987E+01 -0.27102028191E+03  0.30382684389E+03  0.00000000000E+00 0. -1.
</event>
<event>
 7    1  0.6058736E-006  0.2568433E+02  0.7818608E-02  0.1681115E+00
          2   -1    0    0  502    0  0.00000000000E+00  0.00000000000E+00  0.82443838086E+03  0.82443838086E+03  0.00000000000E+00 0. -1.
          1   -1    0    0  501    0 -0.00000000000E+00 -0.00000000000E+00 -0.12668070612E+04  0.12668070612E+04  0.00000000000E+00 0. -1.
         25    2    1    2    0    0  0.30842882834E+00  0.23478208453E+02  0.67716387441E+03  0.68900363183E+03  0.12499508173E+03 0.  0.
          2    1    1    2  501    0 -0.21182667269E+02 -0.50880576395E+01 -0.12594232919E+04  0.12596116949E+04  0.00000000000E+00 0. -1.
          1    1    1    2  502    0  0.20874238440E+02 -0.18390150814E+02  0.13989073712E+03  0.14263011537E+03  0.00000000000E+00 0. -1.
         22    1    3    3    0    0 -0.55336611561E+02  0.13194146982E+02  0.49486452774E+03  0.49812360605E+03  0.00000000000E+00 0.  1.
         22    1    3    3    0    0  0.55645040389E+02  0.10284061471E+02  0.18229934668E+03  0.19088002577E+03  0.00000000000E+00 0.  1.
</event>
<event>
 7    1  0.6058736E-006  0.8000995E+02  0.7818608E-02  0.1363764E+00
          2   -1    0    0  502    0  0.00000000000E+00  0.00000000000E+00  0.32407903877E+04  0.32407903877E+04  0.00000000000E+00 0. -1.
          1   -1    0    0  501    0 -0.00000000000E+00 -0.00000000000E+00 -0.27712721047E+03  0.27712721047E+03  0.00000000000E+00 0. -1.
         25    2    1    2    0    0  0.85760823485E+00  0.91581585180E+02  0.41838788970E+03  0.44616470238E+03  0.12500637252E+03 0.  0.
          2    1    1    2  501    0 -0.51656654521E+02 -0.29299267657E+02 -0.25930628618E+03  0.26601993740E+03  0.00000000000E+00 0. -1.
          1    1    1    2  502    0  0.50799046287E+02 -0.62282317523E+02  0.28045815737E+04  0.28057329583E+04  0.00000000000E+00 0. -1.
         22    1    3    3    0    0  0.35230457237E+02 -0.63076458316E+00  0.32533456032E+02  0.47958406379E+02  0.00000000000E+00 0.  1.
         22    1    3    3    0    0 -0.34372849002E+02  0.92212349764E+02  0.38585443366E+03  0.39820629600E+03  0.00000000000E+00 0.  1.
</event>
<event>
 7    1  0.6058736E-006  0.1025958E+03  0.7818608E-02  0.1295265E+00
          2   -1    0    0  502    0  0.00000000000E+00  0.00000000000E+00  0.12773142319E+04  0.12773142319E+04  0.00000000000E+00 0. -1.
          1   -1    0    0  501    0 -0.00000000000E+00 -0.00000000000E+00 -0.37538503727E+03  0.37538503727E+03  0.00000000000E+00 0. -1.
         25    2    1    2    0    0  0.13681004998E+03 -0.12132831953E+03  0.21430873421E+03  0.30820159859E+03  0.12498976326E+03 0.  0.
          2    1    1    2  501    0 -0.59621935887E+02  0.60130408836E+02 -0.32053999754E+03  0.33153631977E+03  0.00000000000E+00 0. -1.
          1    1    1    2  502    0 -0.77188114089E+02  0.61197910695E+02  0.10081604579E+04  0.10129613508E+04  0.00000000000E+00 0. -1.
         22    1    3    3    0    0  0.14527160436E+03 -0.91905949107E+02  0.12158676290E+03  0.21055612892E+03  0.00000000000E+00 0.  1.
         22    1    3    3    0    0 -0.84615543815E+01 -0.29422370424E+02  0.92721971302E+02  0.97645469665E+02  0.00000000000E+00 0.  1.
</event>
<event>
 7    1  0.6058736E-006  0.9365903E+02  0.7818608E-02  0.1323640E+00
          2   -1    0    0  502    0  0.00000000000E+00  0.00000000000E+00  0.20108884838E+04  0.20108884838E+04  0.00000000000E+00 0. -1.
          1   -1    0    0  501    0 -0.00000000000E+00 -0.00000000000E+00 -0.98725897236E+02  0.98725897236E+02  0.00000000000E+00 0. -1.
         25    2    1    2    0    0 -0.41633070070E+02  0.33106728715E+02 -0.19544697828E+02  0.13727140444E+03  0.12502829781E+03 0.  0.
          2    1    1    2  501    0 -0.51393550624E+02 -0.49972474405E+02  0.48012570448E+02  0.86277182180E+02  0.00000000000E+00 0. -1.
          1    1    1    2  502    0  0.93026620694E+02  0.16865745690E+02  0.18836947140E+04  0.18860657944E+04  0.00000000000E+00 0. -1.
         22    1    3    3    0    0  0.28552318866E+02  0.58533343361E+01 -0.48516893100E+02  0.56598457148E+02  0.00000000000E+00 0.  1.
         22    1    3    3    0    0 -0.70185388937E+02  0.27253394379E+02  0.28972195272E+02  0.80672947289E+02  0.00000000000E+00 0.  1.
</event>
<event>
 7    1  0.6058736E-006  0.8763795E+02  0.7818608E-02  0.1438947E+00
          2   -1    0    0  502    0  0.00000000000E+00  0.00000000000E+00  0.21049522019E+03  0.21049522019E+03  0.00000000000E+00 0. -1.
          1   -1    0    0  501    0 -0.00000000000E+00 -0.00000000000E+00 -0.54925093478E+03  0.54925093478E+03  0.00000000000E+00 0. -1.
         25    2    1    2    0    0 -0.59406460957E+02 -0.65937332168E+02 -0.10540874024E+03  0.18604742185E+03  0.12500312509E+03 0.  0.
          2    1    1    2  501    0 -0.17866169025E+02  0.23998068196E+02 -0.39155813151E+03  0.39269947495E+03  0.00000000000E+00 0. -1.
          1    1    1    2  502    0  0.77272629982E+02  0.41939263972E+02  0.15821115716E+03  0.18099925817E+03  0.00000000000E+00 0. -1.
         22    1    3    3    0    0  0.21996468549E+02 -0.58975802762E+02 -0.77213851726E+02  0.99619118840E+02  0.00000000000E+00 0.  1.
         22    1    3    3    0    0 -0.81402929506E+02 -0.69615294065E+01 -0.28194888513E+02  0.86428303015E+02  0.00000000000E+00 0.  1.
</event>
<event>
 7    1  0.6058736E-006  0.2268445E+03  0.7818608E-02  0.1241877E+00
          2   -1    0    0  502    0  0.00000000000E+00  0.00000000000E+00  0.11768763278E+04  0.11768763278E+04  0.00000000000E+00 0. -1.
          1   -1    0    0  501    0 -0.00000000000E+00 -0.00000000000E+00 -0.24561657506E+04  0.24561657506E+04  0.00000000000E+00 0. -1.
         25    2    1    2    0    0  0.49464607281E+02  0.19519808952E+03 -0.99601713724E+03  0.10238281462E+04  0.12499957522E+03 0.  0.
          2    1    1    2  501    0  0.64249959845E+02  0.15054262811E+01 -0.14344194549E+04  0.14358584527E+04  0.00000000000E+00 0. -1.
          1    1    1    2  502    0 -0.11371456713E+03 -0.19670351580E+03  0.11511471693E+04  0.11733554795E+04  0.00000000000E+00 0. -1.
         22    1    3    3    0    0  0.27550660658E+02  0.13212024129E+03 -0.87729177048E+03  0.88761232958E+03  0.00000000000E+00 0. -1.
         22    1    3    3    0    0  0.21913946623E+02  0.63077848227E+02 -0.11872536675E+03  0.13621581665E+03  0.00000000000E+00 0. -1.
</event>
<event>
 7    1  0.6058736E-006  0.7131405E+02  0.7818608E-02  0.1421098E+00
          2   -1    0    0  502    0  0.00000000000E+00  0.00000000000E+00  0.27307013133E+04  0.27307013133E+04  0.00000000000E+00 0. -1.
          1   -1    0    0  501    0 -0.00000000000E+00 -0.00000000000E+00 -0.22269544801E+03  0.22269544801E+03  0.00000000000E+00 0. -1.
         25    2    1    2    0    0  0.30095897706E+02 -0.57941312759E+02 -0.32308390468E+02  0.14466822140E+03  0.12498841308E+03 0.  0.
          2    1    1    2  501    0  0.33509224340E+02  0.25475555743E+02 -0.13041745503E+03  0.13704227316E+03  0.00000000000E+00 0. -1.
          1    1    1    2  502    0 -0.63605122047E+02  0.32465757016E+02  0.26707317108E+04  0.26716862668E+04  0.00000000000E+00 0. -1.
         22    1    3    3    0    0  0.68489816752E+02 -0.60169201503E+02 -0.48120257104E+02  0.10308611425E+03  0.00000000000E+00 0.  1.
         22    1    3    3    0    0 -0.38393919045E+02  0.22278887446E+01  0.15811866636E+02  0.41582107143E+02  0.00000000000E+00 0.  1.
</event>
<event>
 7    1  0.6058736E-006  0.8944722E+02  0.7818608E-02  0.1327608E+00
          2   -1    0    0  502    0  0.00000000000E+00  0.00000000000E+00  0.22934019646E+04  0.22934019646E+04  0.00000000000E+00 0. -1.
          1   -1    0    0  501    0 -0.00000000000E+00 -0.00000000000E+00 -0.11035974437E+03  0.11035974437E+03  0.00000000000E+00 0. -1.
         25    2    1    2    0    0  0.56737086140E+02 -0.24495281049E+02  0.44004705289E+02  0.14622156703E+03  0.12500086736E+03 0.  0.
          2    1    1    2  501    0 -0.52394610169E+02  0.96832340489E+02 -0.69610017194E+01  0.11031841589E+03  0.00000000000E+00 0. -1.
          1    1    1    2  502    0 -0.43424759711E+01 -0.72337059440E+02  0.21459985167E+04  0.21472217261E+04  0.00000000000E+00 0. -1.
         22    1    3    3    0    0  0.60597450357E+02 -0.38015121539E+02 -0.25016560549E+02  0.75782773485E+02  0.00000000000E+00 0.  1.
         22    1    3    3    0    0 -0.38603642168E+01  0.13519840489E+02  0.69021265837E+02  0.70438793548E+02  0.00000000000E+00 0.  1.
</event>
<event>
 7    1  0.6058736E-006  0.1483643E+03  0.7818608E-02  0.1312287E+00
          2   -1    0    0  502    0  0.00000000000E+00  0.00000000000E+00  0.55823801434E+03  0.55823801434E+03  0.00000000000E+00 0. -1.
          1   -1    0    0  501    0 -0.00000000000E+00 -0.00000000000E+00 -0.16510762139E+04  0.16510762139E+04  0.00000000000E+00 0. -1.
         25    2    1    2    0    0 -0.21259014987E+02  0.15283317011E+03 -0.10371633446E+04  0.10560030588E+04  0.12499893321E+03 0.  0.
          2    1    1    2  501    0 -0.45742112541E+02 -0.20434491654E+02 -0.59338812372E+03  0.59549926505E+03  0.00000000000E+00 0. -1.
          1    1    1    2  502    0  0.67001127529E+02 -0.13239867846E+03  0.53771326879E+03  0.55781190430E+03  0.00000000000E+00 0. -1.
         22    1    3    3    0    0 -0.16346170475E+02  0.17499407353E+03 -0.90600295154E+03  0.92289299014E+03  0.00000000000E+00 0. -1.
         22    1    3    3    0    0 -0.49128445123E+01 -0.22160903419E+02 -0.13116039306E+03  0.13311006870E+03  0.00000000000E+00 0. -1.
</event>
<event>
 7    1  0.6058736E-006  0.1336906E+03  0.7818608E-02  0.1305919E+00
          2   -1    0    0  502    0  0.00000000000E+00  0.00000000000E+00  0.17306761824E+04  0.17306761824E+04  0.00000000000E+00 0. -1.
          1   -1    0    0  501    0 -0.00000000000E+00 -0.00000000000E+00 -0.18139441328E+04  0.18139441328E+04  0.00000000000E+00 0. -1.
         25    2    1    2    0    0 -0.27732374161E+02  0.74301158774E+02  0.40047198466E+03  0.42695659190E+03  0.12499749635E+03 0.  0.
          2    1    1    2  501    0  0.19396654037E+02 -0.13261829614E+03 -0.17975468748E+04  0.18025367152E+04  0.00000000000E+00 0. -1.
          1    1    1    2  502    0  0.83357201240E+01  0.58317137366E+02  0.13138069397E+04  0.13151270081E+04  0.00000000000E+00 0. -1.
         22    1    3    3    0    0 -0.36289128792E+02  0.96405531719E+02  0.38525742385E+03  0.39879093526E+03  0.00000000000E+00 0.  1.
         22    1    3    3    0    0  0.85567546314E+01 -0.22104372945E+02  0.15214560809E+02  0.28165656636E+02  0.00000000000E+00 0.  1.
</event>
<event>
 7    1  0.6058736E-006  0.5253538E+02  0.7818608E-02  0.1510494E+00
          2   -1    0    0  502    0  0.00000000000E+00  0.00000000000E+00  0.29547960905E+03  0.29547960905E+03  0.00000000000E+00 0. -1.
          1   -1    0    0  501    0 -0.00000000000E+00 -0.00000000000E+00 -0.14018711889E+03  0.14018711889E+03  0.00000000000E+00 0. -1.
         25    2    1    2    0    0  0.24270840011E+02 -0.65849135500E+02  0.15323650457E+03  0.20983797422E+03  0.12500146706E+03 0.  0.
          2    1    1    2  501    0  0.23585899013E+01  0.52060280544E+02 -0.10361651519E+03  0.11598369703E+03  0.00000000000E+00 0. -1.
          1    1    1    2  502    0 -0.26629429912E+02  0.13788854956E+02  0.10567250078E+03  0.10984505670E+03  0.00000000000E+00 0. -1.
         22    1    3    3    0    0 -0.33548332638E+02 -0.67339297681E+02  0.12398019357E+03  0.14502123994E+03  0.00000000000E+00 0. -1.
         22    1    3    3    0    0  0.57819172648E+02  0.14901621809E+01  0.29256311001E+02  0.64816734278E+02  0.00000000000E+00 0. -1.
</event>
<event>
 7    1  0.6058736E-006  0.5496385E+02  0.7818608E-02  0.1542297E+00
          2   -1    0    0  502    0  0.00000000000E+00  0.00000000000E+00  0.10291326351E+04  0.10291326351E+04  0.00000000000E+00 0. -1.
          1   -1    0    0  501    0 -0.00000000000E+00 -0.00000000000E+00 -0.66553393466E+02  0.66553393466E+02  0.00000000000E+00 0. -1.
         25    2    1    2    0    0  0.57246520019E+02  0.48682146866E+01  0.12675324037E+03  0.18707521499E+03  0.12501955267E+03 0.  0.
          2    1    1    2  501    0 -0.48495812504E+02 -0.26369650454E+02 -0.15209741249E+02  0.57258523596E+02  0.00000000000E+00 0. -1.
          1    1    1    2  502    0 -0.87507075148E+01  0.21501435767E+02  0.85103574247E+03  0.85135228994E+03  0.00000000000E+00 0. -1.
         22    1    3    3    0    0  0.35514743624E+02 -0.49072416163E+02  0.11159912541E+03  0.12697938350E+03  0.00000000000E+00 0. -1.
         22    1    3    3    0    0  0.21731776395E+02  0.53940630849E+02  0.15154114961E+02  0.60095831486E+02  0.00000000000E+00 0. -1.
</event>
<event>
 7    1  0.6058736E-006  0.1469583E+03  0.7818608E-02  0.1285089E+00
          2   -1    0    0  502    0  0.00000000000E+00  0.00000000000E+00  0.37877934090E+04  0.37877934090E+04  0.00000000000E+00 0. -1.
          1   -1    0    0  501    0 -0.00000000000E+00 -0.00000000000E+00 -0.60305829490E+03  0.60305829490E+03  0.00000000000E+00 0. -1.
         25    2    1    2    0    0  0.47858483149E+02 -0.15900643446E+03 -0.11657836275E+03  0.23830442085E+03  0.12500000690E+03 0.  0.
          2    1    1    2  501    0  0.45983867286E+02  0.45976327635E+02 -0.42167607983E+03  0.42666035093E+03  0.00000000000E+00 0. -1.
          1    1    1    2  502    0 -0.93842350435E+02  0.11303010682E+03  0.37229895567E+04  0.37258869322E+04  0.00000000000E+00 0. -1.
         22    1    3    3    0    0  0.25537978295E+01 -0.44894938189E+02  0.24560185191E+02  0.51237486814E+02  0.00000000000E+00 0.  1.
         22    1    3    3    0    0  0.45304685319E+02 -0.11411149627E+03 -0.14113854794E+03  0.18706693403E+03  0.00000000000E+00 0.  1.
</event>
<event>
 7    1  0.6058736E-006  0.4019777E+02  0.7818608E-02  0.1539738E+00
          2   -1    0    0  502    0  0.00000000000E+00  0.00000000000E+00  0.11523718262E+04  0.11523718262E+04  0.00000000000E+00 0. -1.
          1   -1    0    0  501    0 -0.00000000000E+00 -0.00000000000E+00 -0.32393338751E+02  0.32393338751E+02  0.00000000000E+00 0. -1.
         25    2    1    2    0    0 -0.67905145141E+01  0.42341536084E+02  0.18784263710E+03  0.22968981928E+03  0.12503455523E+03 0.  0.
          2    1    1    2  501    0 -0.26141270250E+02 -0.18926650918E+02  0.12590363794E+02  0.34642479497E+02  0.00000000000E+00 0. -1.
          1    1    1    2  502    0  0.32931784764E+02 -0.23414885166E+02  0.91954548657E+03  0.92043286619E+03  0.00000000000E+00 0. -1.
         22    1    3    3    0    0 -0.39893635855E+02 -0.77475784739E+01  0.98104610923E+01  0.41806366750E+02  0.00000000000E+00 0.  1.
         22    1    3    3    0    0  0.33103121341E+02  0.50089114558E+02  0.17803217601E+03  0.18788345253E+03  0.00000000000E+00 0.  1.
</event>
<event>
 7    1  0.6058736E-006  0.8587071E+02  0.7818608E-02  0.1317854E+00
          2   -1    0    0  502    0  0.00000000000E+00  0.00000000000E+00  0.15203987956E+04  0.15203987956E+04  0.00000000000E+00 0. -1.
          1   -1    0    0  501    0 -0.00000000000E+00 -0.00000000000E+00 -0.26112908773E+02  0.26112908773E+02  0.00000000000E+00 0. -1.
         25    2    1    2    0    0  0.99199288013E+02 -0.28637490895E+01  0.45992425699E+03  0.48684084256E+03  0.12503992968E+03 0.  0.
          2    1    1    2  501    0 -0.53011504879E+02 -0.69527329552E+02  0.17105757997E+03  0.19210664973E+03  0.00000000000E+00 0. -1.
          1    1    1    2  502    0 -0.46187783133E+02  0.72391078641E+02  0.86330404990E+03  0.86756421212E+03  0.00000000000E+00 0. -1.
         22    1    3    3    0    0  0.70401285293E+02  0.43873696785E+02  0.14401670175E+03  0.16619883460E+03  0.00000000000E+00 0. -1.
         22    1    3    3    0    0  0.28798002720E+02 -0.46737445875E+02  0.31590755524E+03  0.32064200795E+03  0.00000000000E+00 0. -1.
</event>
<event>
 7    1  0.6058736E-006  0.1599060E+03  0.7818608E-02  0.1346331E+00
          2   -1    0    0  502    0  0.00000000000E+00  0.00000000000E+00  0.12602469907E+04  0.12602469907E+04  0.00000000000E+00 0. -1.
          1   -1    0    0  501    0 -0.00000000000E+00 -0.00000000000E+00 -0.76185421845E+03  0.76185421845E+03  0.00000000000E+00 0. -1.
         25    2    1    2    0    0  0.63742340090E+02 -0.11138362863E+03 -0.35423104844E+03  0.39695588049E+03  0.12499974691E+03 0.  0.
          2    1    1    2  501    0  0.32873614213E+01 -0.34283542611E+02 -0.38029078904E+03  0.38184715825E+03  0.00000000000E+00 0. -1.
          1    1    1    2  502    0 -0.67029701512E+02  0.14566717124E+03  0.12329146097E+04  0.12432981704E+04  0.00000000000E+00 0. -1.
         22    1    3    3    0    0  0.99532139822E+02 -0.79474780224E+02 -0.21735970177E+03  0.25192881436E+03  0.00000000000E+00 0.  1.
         22    1    3    3    0    0 -0.35789799731E+02 -0.31908848408E+02 -0.13687134666E+03  0.14502706613E+03  0.00000000000E+00 0.  1.
</event>
<event>
 7    1  0.6058736E-006  0.1372832E+03  0.7818608E-02  0.1368064E+00
          2   -1    0    0  502    0  0.00000000000E+00  0.00000000000E+00  0.14247161624E+04  0.14247161624E+04  0.00000000000E+00 0. -1.
          1   -1    0    0  501    0 -0.00000000000E+00 -0.00000000000E+00 -0.40450188365E+03  0.40450188365E+03  0.00000000000E+00 0. -1.
         25    2    1    2    0    0 -0.10457234807E+03 -0.25985969848E+02  0.93030416319E+02  0.18944795373E+03  0.12500088880E+03 0.  0.
          2    1    1    2  501    0  0.13795028971E+03  0.24951512452E+02 -0.34227522463E+03  0.36987185592E+03  0.00000000000E+00 0. -1.
          1    1    1    2  502    0 -0.33377941640E+02  0.10344573962E+01  0.12694590870E+04  0.12698982364E+04  0.00000000000E+00 0. -1.
         22    1    3    3    0    0 -0.47494275210E+02 -0.73770998226E+02  0.67685684529E+02  0.11081163408E+03  0.00000000000E+00 0.  1.
         22    1    3    3    0    0 -0.57078072862E+02  0.47785028377E+02  0.25344731791E+02  0.78636319650E+02  0.00000000000E+00 0.  1.
</event>
<event>
 7    1  0.6058736E-006  0.1533129E+03  0.7818608E-02  0.1261284E+00
          2   -1    0    0  502    0  0.00000000000E+00  0.00000000000E+00  0.18256530126E+03  0.18256530126E+03  0.00000000000E+00 0. -1.
          1   -1    0    0  501    0 -0.00000000000E+00 -0.00000000000E+00 -0.19557760803E+04  0.19557760803E+04  0.00000000000E+00 0. -1.
         25    2    1    2    0    0  0.10364916207E+02 -0.22752508530E+03 -0.11212827478E+03  0.28297144690E+03  0.12499997531E+03 0.  0.
          2    1    1    2  501    0 -0.17505423478E+02  0.14947882357E+03 -0.17386210592E+04  0.17451227882E+04  0.00000000000E+00 0. -1.
          1    1    1    2  502    0  0.71405072711E+01  0.78046261730E+02  0.77538554882E+02  0.11024714648E+03  0.00000000000E+00 0. -1.
         22    1    3    3    0    0 -0.28423937129E+02 -0.15428354802E+03 -0.12304394117E+03  0.19937689146E+03  0.00000000000E+00 0.  1.
         22    1    3    3    0    0  0.38788853335E+02 -0.73241537282E+02  0.10915666386E+02  0.83594555440E+02  0.00000000000E+00 0.  1.
</event>
<event>
 7    1  0.6058736E-006  0.4669331E+02  0.7818608E-02  0.1466843E+00
          2   -1    0    0  502    0  0.00000000000E+00  0.00000000000E+00  0.62981289827E+02  0.62981289827E+02  0.00000000000E+00 0. -1.
          1   -1    0    0  501    0 -0.00000000000E+00 -0.00000000000E+00 -0.31398061068E+04  0.31398061068E+04  0.00000000000E+00 0. -1.
         25    2    1    2    0    0  0.79034625946E+00 -0.24517985546E+02 -0.23569048704E+04  0.23603450681E+04  0.12500606552E+03 0.  0.
          2    1    1    2  501    0  0.33872685731E+02  0.55802794995E+02 -0.77069888569E+03  0.77345852066E+03  0.00000000000E+00 0. -1.
          1    1    1    2  502    0 -0.34663031991E+02 -0.31284809449E+02  0.50778939089E+02  0.68983807839E+02  0.00000000000E+00 0. -1.
         22    1    3    3    0    0 -0.66116404330E+01 -0.34509347432E+02 -0.23341493750E+04  0.23344138266E+04  0.00000000000E+00 0. -1.
         22    1    3    3    0    0  0.74019866925E+01  0.99913618856E+01 -0.22755495327E+02  0.25931241523E+02  0.00000000000E+00 0. -1.
</event>
<event>
 7    1  0.6058736E-006  0.2425484E+02  0.7818608E-02  0.1673033E+00
          2   -1    0    0  502    0  0.00000000000E+00  0.00000000000E+00  0.21330183952E+03  0.21330183952E+03  0.00000000000E+00 0. -1.
          1   -1    0    0  501    0 -0.00000000000E+00 -0.00000000000E+00 -0.52422858706E+03  0.52422858706E+03  0.00000000000E+00 0. -1.
         25    2    1    2    0    0 -0.41669962152E+02 -0.13492353479E+02  0.12855139532E+03  0.18457789664E+03  0.12500043736E+03 0.  0.
          2    1    1    2  501    0  0.24044182680E+02 -0.29582247340E+01 -0.49334330582E+03  0.49393774021E+03  0.00000000000E+00 0. -1.
          1    1    1    2  502    0  0.17625779472E+02  0.16450578213E+02  0.53865162960E+02  0.59014789724E+02  0.00000000000E+00 0. -1.
         22    1    3    3    0    0 -0.62125802927E+02 -0.47407728266E+02  0.12132825989E+03  0.14431789472E+03  0.00000000000E+00 0.  1.
         22    1    3    3    0    0  0.20455840775E+02  0.33915374787E+02  0.72231354295E+01  0.40260001915E+02  0.00000000000E+00 0.  1.
</event>
<event>
 7    1  0.6058736E-006  0.7318270E+02  0.7818608E-02  0.1439602E+00
          2   -1    0    0  502    0  0.00000000000E+00  0.00000000000E+00  0.19031052644E+03  0.19031052644E+03  0.00000000000E+00 0. -1.
          1   -1    0    0  501    0 -0.00000000000E+00 -0.00000000000E+00 -0.29563320167E+03  0.29563320167E+03  0.00000000000E+00 0. -1.
         25    2    1    2    0    0 -0.33328580308E+02 -0.46376415407E+02 -0.83548515120E+02  0.16083547901E+03  0.12500452295E+03 0.  0.
          2    1    1    2  501    0  0.22440210293E+02 -0.27704851829E+02 -0.16214331525E+03  0.16601679594E+03  0.00000000000E+00 0. -1.
          1    1    1    2  502    0  0.10888370015E+02  0.74081267236E+02  0.14036915514E+03  0.15909145317E+03  0.00000000000E+00 0. -1.
         22    1    3    3    0    0 -0.10077432913E+00  0.21637177515E+02  0.22060219802E+02  0.30900338251E+02  0.00000000000E+00 0. -1.
         22    1    3    3    0    0 -0.33227805979E+02 -0.68013592922E+02 -0.10560873492E+03  0.12993514076E+03  0.00000000000E+00 0. -1.
</event>
<event>
 7    1  0.6058736E-006  0.7376209E+02  0.7818608E-02  0.1368551E+00
          2   -1    0    0  502    0  0.00000000000E+00  0.00000000000E+00  0.16686539725E+04  0.16686539725E+04  0.00000000000E+00 0. -1.
          1   -1    0    0  501    0 -0.00000000000E+00 -0.00000000000E+00 -0.17801631528E+04  0.17801631528E+04  0.00000000000E+00 0. -1.
         25    2    1    2    0    0 -0.30394927061E+02 -0.82861551529E+02  0.10168070611E+04  0.10282561570E+04  0.12499694590E+03 0.  0.
          2    1    1    2  501    0  0.66266671381E+02  0.32414261241E+02 -0.17721869054E+04  0.17737216196E+04  0.00000000000E+00 0. -1.
          1    1    1    2  502    0 -0.35871744319E+02  0.50447290289E+02  0.64387066399E+03  0.64683934874E+03  0.00000000000E+00 0. -1.
         22    1    3    3    0    0  0.43114476587E+02 -0.37289863710E+02  0.59173683625E+03  0.59447613527E+03  0.00000000000E+00 0. -1.
         22    1    3    3    0    0 -0.73509403649E+02 -0.45571687819E+02  0.42507022488E+03  0.43378002171E+03  0.00000000000E+00 0. -1.
</event>
<event>
 7    1  0.6058736E-006  0.1086754E+03  0.7818608E-02  0.1299579E+00
          2   -1    0    0  502    0  0.00000000000E+00  0.00000000000E+00  0.82414648918E+02  0.82414648918E+02  0.00000000000E+00 0. -1.
          1   -1    0    0  501    0 -0.00000000000E+00 -0.00000000000E+00 -0.68396504798E+03  0.68396504798E+03  0.00000000000E+00 0. -1.
         25    2    1    2    0    0 -0.84089150647E+02 -0.37502749248E+02 -0.12438000203E+03  0.19893054439E+03  0.12500214050E+03 0.  0.
          2    1    1    2  501    0  0.11018980345E+03 -0.34739095823E+02 -0.47683878679E+03  0.49063614436E+03  0.00000000000E+00 0. -1.
          1    1    1    2  502    0 -0.26100652808E+02  0.72241845071E+02 -0.33161024649E+00  0.76813008153E+02  0.00000000000E+00 0. -1.
         22    1    3    3    0    0 -0.83025991634E+02 -0.35611981191E+01 -0.15057640932E+02  0.84455491055E+02  0.00000000000E+00 0.  1.
         22    1    3    3    0    0 -0.10631590128E+01 -0.33941551129E+02 -0.10932236110E+03  0.11447505333E+03  0.00000000000E+00 0.  1.
</event>
<event>
 7    1  0.6058736E-006  0.6217447E+02  0.7818608E-02  0.1406556E+00
          2   -1    0    0  502    0  0.00000000000E+00  0.00000000000E+00  0.15247748917E+04  0.15247748917E+04  0.00000000000E+00 0. -1.
          1   -1    0    0  501    0 -0.00000000000E+00 -0.00000000000E+00 -0.40609943420E+03  0.40609943420E+03  0.00000000000E+00 0. -1.
         25    2    1    2    0    0  0.93036469015E+02 -0.62168472527E+02  0.90829411103E+02  0.19077568202E+03  0.12499870154E+03 0.  0.
          2    1    1    2  501    0 -0.35275841180E+02  0.40949700625E+02 -0.35338661237E+03  0.35749595907E+03  0.00000000000E+00 0. -1.
          1    1    1    2  502    0 -0.57760627836E+02  0.21218771902E+02  0.13812326587E+04  0.13826026848E+04  0.00000000000E+00 0. -1.
         22    1    3    3    0    0  0.91365799342E+02 -0.74710276223E+01  0.86967614009E+01  0.92082350111E+02  0.00000000000E+00 0.  1.
         22    1    3    3    0    0  0.16706696730E+01 -0.54697444904E+02  0.82132649702E+02  0.98693331909E+02  0.00000000000E+00 0.  1.
</event>
<event>
 7    1  0.6058736E-006  0.3750172E+02  0.7818608E-02  0.1545051E+00
          2   -1    0    0  502    0  0.00000000000E+00  0.00000000000E+00  0.26059425439E+03  0.26059425439E+03  0.00000000000E+00 0. -1.
          1   -1    0    0  501    0 -0.00000000000E+00 -0.00000000000E+00 -0.90774237254E+03  0.90774237254E+03  0.00000000000E+00 0. -1.
         25    2    1    2    0    0 -0.26203636674E+02 -0.15500317000E+02  0.12144449651E+02  0.12922099855E+03  0.12499475352E+03 0.  0.
          2    1    1    2  501    0 -0.80075908558E+01  0.32448095439E+02 -0.84695234417E+03  0.84761151107E+03  0.00000000000E+00 0. -1.
          1    1    1    2  502    0  0.34211227530E+02 -0.16947778439E+02  0.18765977636E+03  0.19150411731E+03  0.00000000000E+00 0. -1.
         22    1    3    3    0    0 -0.68737796227E+02 -0.27226570796E+02  0.32340429141E+02  0.80697423407E+02  0.00000000000E+00 0.  1.
         22    1    3    3    0    0  0.42534159553E+02  0.11726253796E+02 -0.20195979490E+02  0.48523575142E+02  0.00000000000E+00 0.  1.
</event>
<event>
 7    1  0.6058736E-006  0.7919602E+02  0.7818608E-02  0.1374940E+00
          2   -1    0    0  502    0  0.00000000000E+00  0.00000000000E+00  0.15895258227E+03  0.15895258227E+03  0.00000000000E+00 0. -1.
          1   -1    0    0  501    0 -0.00000000000E+00 -0.00000000000E+00 -0.85844444739E+03  0.85844444739E+03  0.00000000000E+00 0. -1.
         25    2    1    2    0    0 -0.31549366256E+02 -0.75330653669E+02 -0.94614997208E+02  0.17677028847E+03  0.12500266915E+03 0.  0.
          2    1    1    2  501    0  0.54655481198E+02 -0.19722639695E+01 -0.70776593578E+03  0.70987585626E+03  0.00000000000E+00 0. -1.
          1    1    1    2  502    0 -0.23106114943E+02  0.77302917639E+02  0.10288906787E+03  0.13075088493E+03  0.00000000000E+00 0. -1.
         22    1    3    3    0    0 -0.91577901091E+01 -0.70090150667E+02 -0.12200735272E+03  0.14100456892E+03  0.00000000000E+00 0.  1.
         22    1    3    3    0    0 -0.22391576147E+02 -0.52405030025E+01  0.27392355510E+02  0.35765719543E+02  0.00000000000E+00 0.  1.
</event>
<event>
 7    1  0.6058736E-006  0.5315273E+02  0.7818608E-02  0.1529891E+00
          2   -1    0    0  502    0  0.00000000000E+00  0.00000000000E+00  0.41807532915E+03  0.41807532915E+03  0.00000000000E+00 0. -1.
          1   -1    0    0  501    0 -0.00000000000E+00 -0.00000000000E+00 -0.16500628676E+03  0.16500628676E+03  0.00000000000E+00 0. -1.
         25    2    1    2    0    0 -0.27075564301E+02  0.50097732126E+01 -0.82560601373E+02  0.15231256081E+03  0.12499871708E+03 0.  0.
          2    1    1    2  501    0 -0.25719286134E+02  0.40413611189E+01 -0.41969905522E+02  0.49389140998E+02  0.00000000000E+00 0. -1.
          1    1    1    2  502    0  0.52794850436E+02 -0.90511343315E+01  0.37759954928E+03  0.38137991410E+03  0.00000000000E+00 0. -1.
         22    1    3    3    0    0 -0.12578757653E+02  0.64932125041E+02 -0.38416847760E+02  0.76486993654E+02  0.00000000000E+00 0. -1.
         22    1    3    3    0    0 -0.14496806648E+02 -0.59922351828E+02 -0.44143753614E+02  0.75825567157E+02  0.00000000000E+00 0. -1.
</event>
<event>
 7    1  0.6058736E-006  0.3236888E+02  0.7818608E-02  0.1580827E+00
          2   -1    0    0  502    0  0.00000000000E+00  0.00000000000E+00  0.19123492401E+04  0.19123492401E+04  0.00000000000E+00 0. -1.
          1   -1    0    0  501    0 -0.00000000000E+00 -0.00000000000E+00 -0.38049095018E+02  0.38049095018E+02  0.00000000000E+00 0. -1.
         25    2    1    2    0    0  0.77793212947E+01  0.14408841820E+02  0.15385810276E+04  0.15437370061E+04  0.12499693162E+03 0.  0.
          2    1    1    2  501    0  0.31105106172E+02 -0.89563687473E+01 -0.26799012027E+02  0.42022984386E+02  0.00000000000E+00 0. -1.
          1    1    1    2  502    0 -0.38884427467E+02 -0.54524730725E+01  0.36251812954E+03  0.36463834467E+03  0.00000000000E+00 0. -1.
         22    1    3    3    0    0  0.35909377970E+02 -0.74398351881E+01  0.14053084720E+04  0.14057868743E+04  0.00000000000E+00 0.  1.
         22    1    3    3    0    0 -0.28130056675E+02  0.21848677008E+02  0.13327255566E+03  0.13795013181E+03  0.00000000000E+00 0.  1.
</event>
<event>
 7    1  0.6058736E-006  0.9268153E+02  0.7818608E-02  0.1352853E+00
          2   -1    0    0  502    0  0.00000000000E+00  0.00000000000E+00  0.80513932237E+03  0.80513932237E+03  0.00000000000E+00 0. -1.
          1   -1    0    0  501    0 -0.00000000000E+00 -0.00000000000E+00 -0.75753325218E+03  0.75753325218E+03  0.00000000000E+00 0. -1.
         25    2    1    2    0    0 -0.12645002684E+03 -0.31349776694E+02 -0.26130357391E+03  0.31761044845E+03  0.12499768576E+03 0.  0.
          2    1    1    2  501    0  0.73126202264E+02  0.49111038592E+02 -0.46290104931E+03  0.47120772173E+03  0.00000000000E+00 0. -1.
          1    1    1    2  502    0  0.53323824572E+02 -0.17761261897E+02  0.77181069340E+03  0.77385440436E+03  0.00000000000E+00 0. -1.
         22    1    3    3    0    0 -0.12999542183E+03  0.17586899680E+02 -0.19814254073E+03  0.23763117469E+03  0.00000000000E+00 0. -1.
         22    1    3    3    0    0  0.35453949914E+01 -0.48936676374E+02 -0.63161033176E+02  0.79979273765E+02  0.00000000000E+00 0. -1.
</event>
<event>
 7    1  0.6058736E-006  0.7453300E+02  0.7818608E-02  0.1348146E+00
          2   -1    0    0  502    0  0.00000000000E+00  0.00000000000E+00  0.23651482139E+04  0.23651482139E+04  0.00000000000E+00 0. -1.
          1   -1    0    0  501    0 -0.00000000000E+00 -0.00000000000E+00 -0.75393177002E+02  0.75393177002E+02  0.00000000000E+00 0. -1.
         25    2    1    2    0    0  0.26986594223E+02  0.12366988214E+02  0.15542165703E+03  0.20164670401E+03  0.12499713236E+03 0.  0.
          2    1    1    2  501    0  0.25139895800E+02 -0.68269165468E+02 -0.25964253408E+02  0.77245296100E+02  0.00000000000E+00 0. -1.
          1    1    1    2  502    0 -0.52126490023E+02  0.55902177254E+02  0.21602976333E+04  0.21616493908E+04  0.00000000000E+00 0. -1.
         22    1    3    3    0    0  0.54961252722E+02  0.23506238397E+02  0.16035490793E+03  0.17113438883E+03  0.00000000000E+00 0.  1.
         22    1    3    3    0    0 -0.27974658499E+02 -0.11139250183E+02 -0.49332508999E+01  0.30512315173E+02  0.00000000000E+00 0.  1.
</event>
<event>
 7    1  0.6058736E-006  0.1817945E+03  0.7818608E-02  0.1318917E+00
          2   -1    0    0  502    0  0.00000000000E+00  0.00000000000E+00  0.33826199122E+03  0.33826199122E+03  0.00000000000E+00 0. -1.
          1   -1    0    0  501    0 -0.00000000000E+00 -0.00000000000E+00 -0.10022340091E+04  0.10022340091E+04  0.00000000000E+00 0. -1.
         25    2    1    2    0    0  0.14553940590E+03 -0.94305250692E+01 -0.37000168519E+03  0.41688952335E+03  0.12499989666E+03 0.  0.
          2    1    1    2  501    0  0.38514359476E+02  0.61990117256E+00 -0.58113336293E+03  0.58240855563E+03  0.00000000000E+00 0. -1.
          1    1    1    2  502    0 -0.18405376538E+03  0.88106238967E+01  0.28716303019E+03  0.34119792138E+03  0.00000000000E+00 0. -1.
         22    1    3    3    0    0  0.86963184861E+02  0.31443530446E+02 -0.94257970048E+02  0.13204490163E+03  0.00000000000E+00 0. -1.
         22    1    3    3    0    0  0.58576221038E+02 -0.40874055515E+02 -0.27574371514E+03  0.28484462172E+03  0.00000000000E+00 0. -1.
</event>
<event>
 7    1  0.6058736E-006  0.1342708E+03  0.7818608E-02  0.1284284E+00
          2   -1    0    0  502    0  0.00000000000E+00  0.00000000000E+00  0.77722132878E+02  0.77722132878E+02  0.00000000000E+00 0. -1.
          1   -1    0    0  501    0 -0.00000000000E+00 -0.00000000000E+00 -0.13919746485E+04  0.13919746485E+04  0.00000000000E+00 0. -1.
         25    2    1    2    0    0  0.33724960018E+02 -0.90104647491E+02 -0.97242663681E+03  0.98513410010E+03  0.12497764106E+03 0.  0.
          2    1    1    2  501    0  0.71701532456E+02  0.12902545145E+01 -0.33918891801E+03  0.34668702978E+03  0.00000000000E+00 0. -1.
          1    1    1    2  502    0 -0.10542649247E+03  0.88814392976E+02 -0.26369607969E+01  0.13787565150E+03  0.00000000000E+00 0. -1.
         22    1    3    3    0    0 -0.13514337531E+02  0.27682600165E+02 -0.19386581503E+03  0.19629803337E+03  0.00000000000E+00 0. -1.
         22    1    3    3    0    0  0.47239297549E+02 -0.11778724766E+03 -0.77856082179E+03  0.78883606673E+03  0.00000000000E+00 0. -1.
</event>
<event>
 7    1  0.6058736E-006  0.4244405E+02  0.7818608E-02  0.1525452E+00
          2   -1    0    0  502    0  0.00000000000E+00  0.00000000000E+00  0.73947510162E+03  0.73947510162E+03  0.00000000000E+00 0. -1.
          1   -1    0    0  501    0 -0.00000000000E+00 -0.00000000000E+00 -0.12853950454E+03  0.12853950454E+03  0.00000000000E+00 0. -1.
         25    2    1    2    0    0 -0.57063250915E+02 -0.13698390619E+01  0.31344036713E+03  0.34223922114E+03  0.12499891869E+03 0.  0.
          2    1    1    2  501    0  0.23485421826E+02 -0.23994742138E+02 -0.11056526432E+03  0.11555081290E+03  0.00000000000E+00 0. -1.
          1    1    1    2  502    0  0.33577829089E+02  0.25364581200E+02  0.40806049427E+03  0.41022457212E+03  0.00000000000E+00 0. -1.
         22    1    3    3    0    0 -0.37508031154E+02  0.16526406954E+02  0.16606162923E+02  0.44223739947E+02  0.00000000000E+00 0. -1.
         22    1    3    3    0    0 -0.19555219761E+02 -0.17896246016E+02  0.29683420421E+03  0.29801548119E+03  0.00000000000E+00 0. -1.
</event>
<event>
 7    1  0.6058736E-006  0.8343295E+02  0.7818608E-02  0.1402186E+00
          2   -1    0    0  502    0  0.00000000000E+00  0.00000000000E+00  0.52233301472E+03  0.52233301472E+03  0.00000000000E+00 0. -1.
          1   -1    0    0  501    0 -0.00000000000E+00 -0.00000000000E+00 -0.72566615440E+03  0.72566615440E+03  0.00000000000E+00 0. -1.
         25    2    1    2    0    0  0.27849321504E+02  0.62942556138E+02 -0.11811180971E+03  0.18524002291E+03  0.12500446557E+03 0.  0.
          2    1    1    2  501    0 -0.68046068187E+02 -0.51898809201E+02 -0.56990073112E+03  0.57629037570E+03  0.00000000000E+00 0. -1.
          1    1    1    2  502    0  0.40196746683E+02 -0.11043746938E+02  0.48467940115E+03  0.48646877051E+03  0.00000000000E+00 0. -1.
         22    1    3    3    0    0  0.29776002682E+02  0.87309622690E+02 -0.35091997123E+02  0.98696650460E+02  0.00000000000E+00 0.  1.
         22    1    3    3    0    0 -0.19266811781E+01 -0.24367066551E+02 -0.83019812587E+02  0.86543372448E+02  0.00000000000E+00 0.  1.
</event>
<event>
 7    1  0.6058736E-006  0.4589293E+02  0.7818608E-02  0.1579175E+00
          2   -1    0    0  502    0  0.00000000000E+00  0.00000000000E+00  0.16732158079E+04  0.16732158079E+04  0.00000000000E+00 0. -1.
          1   -1    0    0  501    0 -0.00000000000E+00 -0.00000000000E+00 -0.16247287824E+03  0.16247287824E+03  0.00000000000E+00 0. -1.
         25    2    1    2    0    0  0.28156572501E+02 -0.19911613747E+02  0.12311989246E+03  0.17881748363E+03  0.12501167783E+03 0.  0.
          2    1    1    2  501    0 -0.45796197658E+02  0.67454471517E+01 -0.13056272872E+03  0.13852587811E+03  0.00000000000E+00 0. -1.
          1    1    1    2  502    0  0.17639625157E+02  0.13166166595E+02  0.15181857659E+04  0.15183453244E+04  0.00000000000E+00 0. -1.
         22    1    3    3    0    0 -0.30171997833E+02 -0.47730796857E+02  0.89881973123E+02  0.10614776264E+03  0.00000000000E+00 0. -1.
         22    1    3    3    0    0  0.58328570334E+02  0.27819183110E+02  0.33237919337E+02  0.72669720984E+02  0.00000000000E+00 0. -1.
</event>
<event>
 7    1  0.6058736E-006  0.3667345E+03  0.7818608E-02  0.1171611E+00
          2   -1    0    0  502    0  0.00000000000E+00  0.00000000000E+00  0.18750149723E+04  0.18750149723E+04  0.00000000000E+00 0. -1.
          1   -1    0    0  501    0 -0.00000000000E+00 -0.00000000000E+00 -0.24806700589E+03  0.24806700589E+03  0.00000000000E+00 0. -1.
         25    2    1    2    0    0  0.25851186846E+03  0.19488722724E+03  0.20584009818E+03  0.40349075115E+03  0.12500089107E+03 0.  0.
          2    1    1    2  501    0 -0.31180589627E+03 -0.26056495603E+03  0.13132797821E+03  0.42704104149E+03  0.00000000000E+00 0. -1.
          1    1    1    2  502    0  0.53294027809E+02  0.65677728791E+02  0.12897798900E+04  0.12925501855E+04  0.00000000000E+00 0. -1.
         22    1    3    3    0    0  0.19566930198E+03  0.10309055320E+03  0.18911094089E+03  0.29099327460E+03  0.00000000000E+00 0.  1.
         22    1    3    3    0    0  0.62842566475E+02  0.91796674044E+02  0.16729157293E+02  0.11249747655E+03  0.00000000000E+00 0.  1.
</event>
<event>
 7    1  0.6058736E-006  0.9646148E+02  0.7818608E-02  0.1324541E+00
          2   -1    0    0  502    0  0.00000000000E+00  0.00000000000E+00  0.13328725156E+04  0.13328725156E+04  0.00000000000E+00 0. -1.
          1   -1    0    0  501    0 -0.00000000000E+00 -0.00000000000E+00 -0.14629412861E+04  0.14629412861E+04  0.00000000000E+00 0. -1.
         25    2    1    2    0    0 -0.12211869242E+03 -0.49611856818E+02  0.29153391126E+03  0.34349703480E+03  0.12499552043E+03 0.  0.
          2    1    1    2  501    0  0.95346441903E+02 -0.14033213940E+02 -0.14341668031E+04  0.14374012294E+04  0.00000000000E+00 0. -1.
          1    1    1    2  502    0  0.26772250516E+02  0.63645070758E+02  0.10125641214E+04  0.10149155375E+04  0.00000000000E+00 0. -1.
         22    1    3    3    0    0 -0.13453062872E+03 -0.21513429455E+02  0.27867739206E+03  0.31019736710E+03  0.00000000000E+00 0. -1.
         22    1    3    3    0    0  0.12411936298E+02 -0.28098427364E+02  0.12856519193E+02  0.33299667697E+02  0.00000000000E+00 0. -1.
</event>
<event>
 7    1  0.6058736E-006  0.7494969E+02  0.7818608E-02  0.1371391E+00
          2   -1    0    0  502    0  0.00000000000E+00  0.00000000000E+00  0.79042343970E+02  0.79042343970E+02  0.00000000000E+00 0. -1.
          1   -1    0    0  501    0 -0.00000000000E+00 -0.00000000000E+00 -0.27010257403E+03  0.27010257403E+03  0.00000000000E+00 0. -1.
         25    2    1    2    0    0  0.17106120984E+02 -0.14340344517E+00 -0.65584483540E+02  0.14219264589E+03  0.12499913649E+03 0.  0.
          2    1    1    2  501    0 -0.23678669889E+02 -0.74517546219E+02 -0.10177989037E+03  0.12834597846E+03  0.00000000000E+00 0. -1.
          1    1    1    2  502    0  0.65725489044E+01  0.74660949664E+02 -0.23695856151E+02  0.78606293657E+02  0.00000000000E+00 0. -1.
         22    1    3    3    0    0 -0.42619898878E+02 -0.21039074342E+02 -0.62928361325E+02  0.78861125332E+02  0.00000000000E+00 0. -1.
         22    1    3    3    0    0  0.59726019862E+02  0.20895670897E+02 -0.26561222155E+01  0.63331520557E+02  0.00000000000E+00 0. -1.
</event>
<event>
 7    1  0.6058736E-006  0.1703429E+03  0.7818608E-02  0.1252382E+00
          2   -1    0    0  502    0  0.00000000000E+00  0.00000000000E+00  0.15664794732E+04  0.15664794732E+04  0.00000000000E+00 0. -1.
          1   -1    0    0  501    0 -0.00000000000E+00 -0.00000000000E+00 -0.83650771972E+02  0.83650771972E+02  0.00000000000E+00 0. -1.
         25    2    1    2    0    0  0.11945632750E+03 -0.17800113197E+03  0.56199295505E+03  0.61434094025E+03  0.12499796873E+03 0.  0.
          2    1    1    2  501    0  0.54462342476E+01  0.76827929381E+02 -0.21402517041E+02  0.79939101421E+02  0.00000000000E+00 0. -1.
          1    1    1    2  502    0 -0.12490256175E+03  0.10117320258E+03  0.94223826325E+03  0.95585020353E+03  0.00000000000E+00 0. -1.
         22    1    3    3    0    0  0.11376331317E+02 -0.10389923799E+03  0.34851978150E+03  0.36385506821E+03  0.00000000000E+00 0. -1.
         22    1    3    3    0    0  0.10807999618E+03 -0.74101893971E+02  0.21347317355E+03  0.25048587204E+03  0.00000000000E+00 0. -1.
</event>
<event>
 7    1  0.6058736E-006  0.8709706E+02  0.7818608E-02  0.1378510E+00
          2   -1    0    0  502    0  0.00000000000E+00  0.00000000000E+00  0.76953145208E+03  0.76953145208E+03  0.00000000000E+00 0. -1.
          1   -1    0    0  501    0 -0.00000000000E+00 -0.00000000000E+00 -0.12796479279E+04  0.12796479279E+04  0.00000000000E+00 0. -1.
         25    2    1    2    0    0  0.11993810773E+02  0.62932074784E+02 -0.58538825980E+03  0.60200591025E+03  0.12500961457E+03 0.  0.
          2    1    1    2  501    0  0.48295839493E+02  0.11964536006E+00 -0.68259544026E+03  0.68430186138E+03  0.00000000000E+00 0. -1.
          1    1    1    2  502    0 -0.60289650267E+02 -0.63051720144E+02  0.75786722421E+03  0.76287160838E+03  0.00000000000E+00 0. -1.
         22    1    3    3    0    0  0.27587771158E+02  0.64246914836E+02 -0.58175333925E+03  0.58594001307E+03  0.00000000000E+00 0. -1.
         22    1    3    3    0    0 -0.15593960384E+02 -0.13148400516E+01 -0.36349205421E+01  0.16065897179E+02  0.00000000000E+00 0. -1.
</event>
<event>
 7    1  0.6058736E-006  0.7244486E+02  0.7818608E-02  0.1354146E+00
          2   -1    0    0  502    0  0.00000000000E+00  0.00000000000E+00  0.16802492291E+03  0.16802492291E+03  0.00000000000E+00 0. -1.
          1   -1    0    0  501    0 -0.00000000000E+00 -0.00000000000E+00 -0.89379619324E+03  0.89379619324E+03  0.00000000000E+00 0. -1.
         25    2    1    2    0    0  0.12916242790E+03 -0.21513792733E+02 -0.37688279237E+03  0.41810439047E+03  0.12499946433E+03 0.  0.
          2    1    1    2  501    0 -0.59826269729E+02  0.38455116002E+02 -0.48491427225E+03  0.49010185669E+03  0.00000000000E+00 0. -1.
          1    1    1    2  502    0 -0.69336158167E+02 -0.16941323269E+02  0.13602579429E+03  0.15361486899E+03  0.00000000000E+00 0. -1.
         22    1    3    3    0    0  0.12523490589E+03  0.23656518413E+02 -0.21446616167E+03  0.24947774854E+03  0.00000000000E+00 0. -1.
         22    1    3    3    0    0  0.39275220065E+01 -0.45170311146E+02 -0.16241663070E+03  0.16862664192E+03  0.00000000000E+00 0. -1.
</event>
<event>
 7    1  0.6058736E-006  0.5306651E+02  0.7818608E-02  0.1439535E+00
          2   -1    0    0  502    0  0.00000000000E+00  0.00000000000E+00  0.55751454225E+02  0.55751454225E+02  0.00000000000E+00 0. -1.
          1   -1    0    0  501    0 -0.00000000000E+00 -0.00000000000E+00 -0.10073956831E+04  0.10073956831E+04  0.00000000000E+00 0. -1.
         25    2    1    2    0    0 -0.31425132983E+02  0.80693940735E+02 -0.71111763451E+03  0.72719499544E+03  0.12500088093E+03 0.  0.
          2    1    1    2  501    0  0.39897144723E+02 -0.28776975434E+02 -0.27081853090E+03  0.27525001935E+03  0.00000000000E+00 0. -1.
          1    1    1    2  502    0 -0.84720117402E+01 -0.51916965301E+02  0.30291936492E+02  0.60702122577E+02  0.00000000000E+00 0. -1.
         22    1    3    3    0    0 -0.63932138706E+01  0.94058696121E+02 -0.67354497342E+03  0.68011083120E+03  0.00000000000E+00 0.  1.
         22    1    3    3    0    0 -0.25031919112E+02 -0.13364755386E+02 -0.37572661092E+02  0.47084164244E+02  0.00000000000E+00 0.  1.
</event>
<event>
 7    1  0.6058736E-006  0.1150154E+03  0.7818608E-02  0.1260528E+00
          2   -1    0    0  502    0  0.00000000000E+00  0.00000000000E+00  0.38860625334E+03  0.38860625334E+03  0.00000000000E+00 0. -1.
          1   -1    0    0  501    0 -0.00000000000E+00 -0.00000000000E+00 -0.86576994817E+03  0.86576994817E+03  0.00000000000E+00 0. -1.
         25    2    1    2    0    0  0.54046202931E+02  0.10533936741E+03 -0.72662319841E+02  0.18686518984E+03  0.12498564746E+03 0.  0.
          2    1    1    2  501    0  0.62486614741E+02 -0.84689022174E+02 -0.72150253246E+03  0.72913833519E+03  0.00000000000E+00 0. -1.
          1    1    1    2  502    0 -0.11653281767E+03 -0.20650345232E+02  0.31700115747E+03  0.33837267648E+03  0.00000000000E+00 0. -1.
         22    1    3    3    0    0  0.84924664034E+02  0.29157787815E+02 -0.33823229160E+02  0.95949913925E+02  0.00000000000E+00 0. -1.
         22    1    3    3    0    0 -0.30878461103E+02  0.76181579592E+02 -0.38839090681E+02  0.90915275912E+02  0.00000000000E+00 0. -1.
</event>
<event>
 7    1  0.6058736E-006  0.9118694E+02  0.7818608E-02  0.1416618E+00
          2   -1    0    0  502    0  0.00000000000E+00  0.00000000000E+00  0.14983328117E+04  0.14983328117E+04  0.00000000000E+00 0. -1.
          1   -1    0    0  501    0 -0.00000000000E+00 -0.00000000000E+00 -0.53484939327E+03  0.53484939327E+03  0.00000000000E+00 0. -1.
         25    2    1    2    0    0 -0.92102526581E+01 -0.85012356572E+02  0.25484459926E+03  0.29644898730E+03  0.12499721108E+03 0.  0.
          2    1    1    2  501    0  0.33867833331E+02 -0.37584162497E+01 -0.51174419431E+03  0.51287744758E+03  0.00000000000E+00 0. -1.
          1    1    1    2  502    0 -0.24657580673E+02  0.88770772822E+02  0.12203830135E+04  0.12238557701E+04  0.00000000000E+00 0. -1.
         22    1    3    3    0    0  0.14845639826E+02  0.18137642207E+01  0.17626667329E+03  0.17690003639E+03  0.00000000000E+00 0. -1.
         22    1    3    3    0    0 -0.24055892484E+02 -0.86826120793E+02  0.78577925971E+02  0.11954895092E+03  0.00000000000E+00 0. -1.
</event>
<event>
 7    1  0.6058736E-006  0.1801231E+03  0.7818608E-02  0.1185834E+00
          2   -1    0    0  502    0  0.00000000000E+00  0.00000000000E+00  0.14035661997E+04  0.14035661997E+04  0.00000000000E+00 0. -1.
          1   -1    0    0  501    0 -0.00000000000E+00 -0.00000000000E+00 -0.23251522885E+03  0.23251522885E+03  0.00000000000E+00 0. -1.
         25    2    1    2    0    0  0.96110116610E+02  0.82308608042E+02  0.13477727568E+02  0.17837862494E+03  0.12500169287E+03 0.  0.
          2    1    1    2  501    0 -0.24132616697E+03 -0.61398796189E+02 -0.39103575594E+02  0.25206590539E+03  0.00000000000E+00 0. -1.
          1    1    1    2  502    0  0.14521605036E+03 -0.20909811853E+02  0.11966768189E+04  0.12056368982E+04  0.00000000000E+00 0. -1.
         22    1    3    3    0    0 -0.37583540030E+00  0.77708251007E+02  0.23702052490E+02  0.81243466316E+02  0.00000000000E+00 0. -1.
         22    1    3    3    0    0  0.96485952010E+02  0.46003570354E+01 -0.10224324923E+02  0.97135158620E+02  0.00000000000E+00 0. -1.
</event>
<event>
 7    1  0.6058736E-006  0.5469634E+02  0.7818608E-02  0.1474354E+00
          2   -1    0    0  502    0  0.00000000000E+00  0.00000000000E+00  0.81122784865E+03  0.81122784865E+03  0.00000000000E+00 0. -1.
          1   -1    0    0  501    0 -0.00000000000E+00 -0.00000000000E+00 -0.11590037863E+04  0.11590037863E+04  0.00000000000E+00 0. -1.
         25    2    1    2    0    0  0.65976500163E+02 -0.23616176370E+02 -0.53901655319E+00  0.14330595786E+03  0.12500273860E+03 0.  0.
          2    1    1    2  501    0 -0.12518178642E+02  0.34838445345E+02 -0.10857571860E+04  0.10863880932E+04  0.00000000000E+00 0. -1.
          1    1    1    2  502    0 -0.53458321521E+02 -0.11222268975E+02  0.73852026492E+03  0.74053758389E+03  0.00000000000E+00 0. -1.
         22    1    3    3    0    0  0.58620147547E+02  0.35312132716E+02  0.32048138770E+02  0.75566868494E+02  0.00000000000E+00 0.  1.
         22    1    3    3    0    0  0.73563526160E+01 -0.58928309086E+02 -0.32587155323E+02  0.67739089362E+02  0.00000000000E+00 0.  1.
</event>
<event>
 7    1  0.6058736E-006  0.2874150E+02  0.7818608E-02  0.1632795E+00
          2   -1    0    0  502    0  0.00000000000E+00  0.00000000000E+00  0.48510044237E+03  0.48510044237E+03  0.00000000000E+00 0. -1.
          1   -1    0    0  501    0 -0.00000000000E+00 -0.00000000000E+00 -0.87031086344E+03  0.87031086344E+03  0.00000000000E+00 0. -1.
         25    2    1    2    0    0  0.22192052225E+01  0.11635150229E+02 -0.61799422341E+02  0.13993870297E+03  0.12499348140E+03 0.  0.
          2    1    1    2  501    0  0.25330214916E+02 -0.30750783360E+01 -0.76876343625E+03  0.76918677628E+03  0.00000000000E+00 0. -1.
          1    1    1    2  502    0 -0.27549420139E+02 -0.85600718926E+01  0.44535243752E+03  0.44628582655E+03  0.00000000000E+00 0. -1.
         22    1    3    3    0    0 -0.32560839856E+02  0.55379710611E+02 -0.53167495659E+02  0.83390066759E+02  0.00000000000E+00 0.  1.
         22    1    3    3    0    0  0.34780045078E+02 -0.43744560382E+02 -0.86319266823E+01  0.56548636207E+02  0.00000000000E+00 0.  1.
</event>
<event>
 7    1  0.6058736E-006  0.1288877E+03  0.7818608E-02  0.1311323E+00
          2   -1    0    0  502    0  0.00000000000E+00  0.00000000000E+00  0.11358126144E+04  0.11358126144E+04  0.00000000000E+00 0. -1.
          1   -1    0    0  501    0 -0.00000000000E+00 -0.00000000000E+00 -0.87578868776E+03  0.87578868776E+03  0.00000000000E+00 0. -1.
         25    2    1    2    0    0 -0.15385865006E+03  0.10039025278E+03  0.15824959806E+03  0.27279872829E+03  0.12500209527E+03 0.  0.
          2    1    1    2  501    0  0.11340172637E+03 -0.58586635961E+02 -0.81260793725E+03  0.82257158055E+03  0.00000000000E+00 0. -1.
          1    1    1    2  502    0  0.40456923688E+02 -0.41803616817E+02  0.91438226582E+03  0.91623099330E+03  0.00000000000E+00 0. -1.
         22    1    3    3    0    0 -0.14166537481E+03  0.12748035518E+03  0.14825891355E+03  0.24145605153E+03  0.00000000000E+00 0.  1.
         22    1    3    3    0    0 -0.12193275251E+02 -0.27090102400E+02  0.99906845079E+01  0.31342676757E+02  0.00000000000E+00 0.  1.
</event>
<event>
 7    1  0.6058736E-006  0.1040368E+03  0.7818608E-02  0.1280012E+00
          2   -1    0    0  502    0  0.00000000000E+00  0.00000000000E+00  0.20215306695E+04  0.20215306695E+04  0.00000000000E+00 0. -1.
          1   -1    0    0  501    0 -0.00000000000E+00 -0.00000000000E+00 -0.34012666573E+03  0.34012666573E+03  0.00000000000E+00 0. -1.
         25    2    1    2    0    0 -0.14186407651E+02  0.64221212985E+02  0.34541710667E+00  0.14124945302E+03  0.12500268119E+03 0.  0.
          2    1    1    2  501    0 -0.89687925664E+02 -0.58409601463E+02 -0.25760483851E+03  0.27895493969E+03  0.00000000000E+00 0. -1.
          1    1    1    2  502    0  0.10387433331E+03 -0.58116115213E+01  0.19386634252E+04  0.19414529425E+04  0.00000000000E+00 0. -1.
         22    1    3    3    0    0  0.35423500074E+02  0.80788616272E+02 -0.67300510598E+01  0.88469873199E+02  0.00000000000E+00 0. -1.
         22    1    3    3    0    0 -0.49609907725E+02 -0.16567403288E+02  0.70754681665E+01  0.52779579819E+02  0.00000000000E+00 0. -1.
</event>
<event>
 7    1  0.6058736E-006  0.7378667E+02  0.7818608E-02  0.1505656E+00
          2   -1    0    0  502    0  0.00000000000E+00  0.00000000000E+00  0.62362201277E+03  0.62362201277E+03  0.00000000000E+00 0. -1.
          1   -1    0    0  501    0 -0.00000000000E+00 -0.00000000000E+00 -0.15427390495E+03  0.15427390495E+03  0.00000000000E+00 0. -1.
         25    2    1    2    0    0 -0.40553917932E+02  0.37579230137E+02  0.26697588210E+03  0.29993013203E+03  0.12500057471E+03 0.  0.
          2    1    1    2  501    0  0.45270112334E+02 -0.59133823010E+02 -0.12733878349E+03  0.14751731382E+03  0.00000000000E+00 0. -1.
          1    1    1    2  502    0 -0.47161944015E+01  0.21554592873E+02  0.32971100921E+03  0.33044847187E+03  0.00000000000E+00 0. -1.
         22    1    3    3    0    0 -0.25642262113E+02  0.10004132372E+01 -0.41035141811E+01  0.25987790624E+02  0.00000000000E+00 0. -1.
         22    1    3    3    0    0 -0.14911655820E+02  0.36578816899E+02  0.27107939629E+03  0.27394234141E+03  0.00000000000E+00 0. -1.
</event>
<event>
 7    1  0.6058736E-006  0.3850375E+03  0.7818608E-02  0.1087057E+00
          2   -1    0    0  502    0  0.00000000000E+00  0.00000000000E+00  0.29353640064E+04  0.29353640064E+04  0.00000000000E+00 0. -1.
          1   -1    0    0  501    0 -0.00000000000E+00 -0.00000000000E+00 -0.20587528900E+03  0.20587528900E+03  0.00000000000E+00 0. -1.
         25    2    1    2    0    0 -0.10631432035E+03  0.16708589046E+03  0.96884463674E+02  0.25344012367E+03  0.12499946992E+03 0.  0.
          2    1    1    2  501    0 -0.11332742900E+03  0.19802245688E+03  0.74374427552E+01  0.22827902915E+03  0.00000000000E+00 0. -1.
          1    1    1    2  502    0  0.21964174935E+03 -0.36510834734E+03  0.26251668109E+04  0.26595201426E+04  0.00000000000E+00 0. -1.
         22    1    3    3    0    0 -0.10743287385E+03  0.17398506719E+03  0.56067037958E+02  0.21202862716E+03  0.00000000000E+00 0. -1.
         22    1    3    3    0    0  0.11185534976E+01 -0.68991767277E+01  0.40817425716E+02  0.41411496514E+02  0.00000000000E+00 0. -1.
</event>
<event>
 7    1  0.6058736E-006  0.7489283E+02  0.7818608E-02  0.1371851E+00
          2   -1    0    0  502    0  0.00000000000E+00  0.00000000000E+00  0.68802757787E+01  0.68802757787E+01  0.00000000000E+00 0. -1.
          1   -1    0    0  501    0 -0.00000000000E+00 -0.00000000000E+00 -0.37191817619E+04  0.37191817619E+04  0.00000000000E+00 0. -1.
         25    2    1    2    0    0  0.10387085224E+02 -0.43403318719E+02 -0.11490004646E+04  0.11566410283E+04  0.12499864409E+03 0.  0.
          2    1    1    2  501    0  0.69543080505E+02  0.27797399008E+02 -0.18447487471E+04  0.18462683650E+04  0.00000000000E+00 0. -1.
          1    1    1    2  502    0 -0.79930165729E+02  0.15605919711E+02 -0.71855227434E+03  0.72315264439E+03  0.00000000000E+00 0. -1.
         22    1    3    3    0    0 -0.35085305715E+02  0.27231820410E+02 -0.26920789093E+03  0.27284691543E+03  0.00000000000E+00 0.  1.
         22    1    3    3    0    0  0.45472390939E+02 -0.70635139129E+02 -0.87979257371E+03  0.88379411289E+03  0.00000000000E+00 0.  1.
</event>
<event>
 7    1  0.6058736E-006  0.4960016E+02  0.7818608E-02  0.1515944E+00
          2   -1    0    0  502    0  0.00000000000E+00  0.00000000000E+00  0.11460099661E+04  0.11460099661E+04  0.00000000000E+00 0. -1.
          1   -1    0    0  501    0 -0.00000000000E+00 -0.00000000000E+00 -0.24384507140E+02  0.24384507140E+02  0.00000000000E+00 0. -1.
         25    2    1    2    0    0  0.53365373356E+02 -0.35493082508E+02  0.25181111577E+03  0.28834140521E+03  0.12499722377E+03 0.  0.
          2    1    1    2  501    0 -0.23092232629E+02  0.40057714305E+02  0.86004245674E+02  0.97645286405E+02  0.00000000000E+00 0. -1.
          1    1    1    2  502    0 -0.30273140727E+02 -0.45646317973E+01  0.78381009747E+03  0.78440778158E+03  0.00000000000E+00 0. -1.
         22    1    3    3    0    0  0.54676534475E+02 -0.29554044225E+01  0.26758131606E+02  0.60944691685E+02  0.00000000000E+00 0. -1.
         22    1    3    3    0    0 -0.13111611195E+01 -0.32537678085E+02  0.22505298417E+03  0.22739671352E+03  0.00000000000E+00 0. -1.
</event>
<event>
 7    1  0.6058736E-006  0.8927924E+02  0.7818608E-02  0.1310163E+00
          2   -1    0    0  502    0  0.00000000000E+00  0.00000000000E+00  0.10929008090E+03  0.10929008090E+03  0.00000000000E+00 0. -1.
          1   -1    0    0  501    0 -0.00000000000E+00 -0.00000000000E+00 -0.80402596633E+03  0.80402596633E+03  0.00000000000E+00 0. -1.
         25    2    1    2    0    0  0.23673003426E+02 -0.34464466553E+02 -0.16064870971E+03  0.20779946808E+03  0.12499760181E+03 0.  0.
          2    1    1    2  501    0  0.68776584343E+02  0.56925954518E+02 -0.58895926090E+03  0.59568766468E+03  0.00000000000E+00 0. -1.
          1    1    1    2  502    0 -0.92449587769E+02 -0.22461487965E+02  0.54872085178E+02  0.10982891446E+03  0.00000000000E+00 0. -1.
         22    1    3    3    0    0  0.70450915425E+02 -0.41541958445E+02 -0.12112736308E+03  0.14615369952E+03  0.00000000000E+00 0. -1.
         22    1    3    3    0    0 -0.46777911999E+02  0.70774918926E+01 -0.39521346626E+02  0.61645768562E+02  0.00000000000E+00 0. -1.
</event>
<event>
 7    1  0.6058736E-006  0.3132178E+03  0.7818608E-02  0.1168660E+00
          2   -1    0    0  502    0  0.00000000000E+00  0.00000000000E+00  0.61579657801E+03  0.61579657801E+03  0.00000000000E+00 0. -1.
          1   -1    0    0  501    0 -0.00000000000E+00 -0.00000000000E+00 -0.32267685168E+03  0.32267685168E+03  0.00000000000E+00 0. -1.
         25    2    1    2    0    0 -0.33219615084E+03  0.88320469655E+02  0.13546659854E+02  0.36600966268E+03  0.12499909276E+03 0.  0.
          2    1    1    2  501    0  0.25798932160E+02 -0.99128753208E+02 -0.56970589429E+02  0.11720811692E+03  0.00000000000E+00 0. -1.
          1    1    1    2  502    0  0.30639721868E+03  0.10808283553E+02  0.33654365591E+03  0.45525565009E+03  0.00000000000E+00 0. -1.
         22    1    3    3    0    0 -0.13941881473E+03  0.47338106173E+02 -0.55251096884E+02  0.15726152074E+03  0.00000000000E+00 0.  1.
         22    1    3    3    0    0 -0.19277733611E+03  0.40982363482E+02  0.68797756738E+02  0.20874814194E+03  0.00000000000E+00 0.  1.
</event>
<event>
 7    1  0.6058736E-006  0.1068148E+03  0.7818608E-02  0.1319760E+00
          2   -1    0    0  502    0  0.00000000000E+00  0.00000000000E+00  0.13899935499E+04  0.13899935499E+04  0.00000000000E+00 0. -1.
          1   -1    0    0  501    0 -0.00000000000E+00 -0.00000000000E+00 -0.10692146730E+03  0.10692146730E+03  0.00000000000E+00 0. -1.
         25    2    1    2    0    0  0.10245087514E+03  0.11489907809E+02  0.16762352917E+03  0.23311097006E+03  0.12495950158E+03 0.  0.
          2    1    1    2  501    0 -0.78452055705E+01 -0.64591177158E+02 -0.56906283652E+02  0.86440109534E+02  0.00000000000E+00 0. -1.
          1    1    1    2  502    0 -0.94605669571E+02  0.53101269348E+02  0.11723548371E+04  0.11773639376E+04  0.00000000000E+00 0. -1.
         22    1    3    3    0    0  0.58916981981E+02 -0.39143258008E+02  0.14714905888E+03  0.16326742156E+03  0.00000000000E+00 0. -1.
         22    1    3    3    0    0  0.43533893161E+02  0.50633165817E+02  0.20474470288E+02  0.69843548507E+02  0.00000000000E+00 0. -1.
</event>
<event>
 7    1  0.6058736E-006  0.4278503E+02  0.7818608E-02  0.1534257E+00
          2   -1    0    0  502    0  0.00000000000E+00  0.00000000000E+00  0.92229757555E+02  0.92229757555E+02  0.00000000000E+00 0. -1.
          1   -1    0    0  501    0 -0.00000000000E+00 -0.00000000000E+00 -0.99246038272E+03  0.99246038272E+03  0.00000000000E+00 0. -1.
         25    2    1    2    0    0 -0.93820458359E+01  0.12112544878E+02 -0.68806012748E+02  0.14350421721E+03  0.12499782574E+03 0.  0.
          2    1    1    2  501    0 -0.39668330922E+01  0.31176475848E+02 -0.87662731087E+03  0.87719048705E+03  0.00000000000E+00 0. -1.
          1    1    1    2  502    0  0.13348878928E+02 -0.43289020726E+02  0.45202698447E+02  0.63995436017E+02  0.00000000000E+00 0. -1.
         22    1    3    3    0    0  0.20322425275E+02 -0.51233617565E+02 -0.38645198730E+02  0.67315198304E+02  0.00000000000E+00 0. -1.
         22    1    3    3    0    0 -0.29704471111E+02  0.63346162442E+02 -0.30160814018E+02  0.76189018909E+02  0.00000000000E+00 0. -1.
</event>
<event>
 7    1  0.6058736E-006  0.4052005E+02  0.7818608E-02  0.1506868E+00
          2   -1    0    0  502    0  0.00000000000E+00  0.00000000000E+00  0.24961478056E+03  0.24961478056E+03  0.00000000000E+00 0. -1.
          1   -1    0    0  501    0 -0.00000000000E+00 -0.00000000000E+00 -0.71752493357E+03  0.71752493357E+03  0.00000000000E+00 0. -1.
         25    2    1    2    0    0  0.43964854541E+02  0.21234197440E+02  0.77672404280E+02  0.15501735767E+03  0.12495430852E+03 0.  0.
          2    1    1    2  501    0 -0.78647172894E+01 -0.39749477724E+02 -0.67514310675E+03  0.67635795948E+03  0.00000000000E+00 0. -1.
          1    1    1    2  502    0 -0.36100137251E+02  0.18515280284E+02  0.12956054946E+03  0.13576439699E+03  0.00000000000E+00 0. -1.
         22    1    3    3    0    0 -0.41140691614E+02  0.47825203423E+01  0.47998315543E+02  0.63397691616E+02  0.00000000000E+00 0. -1.
         22    1    3    3    0    0  0.85105546154E+02  0.16451677098E+02  0.29674088736E+02  0.91619666054E+02  0.00000000000E+00 0. -1.
</event>
<event>
 7    1  0.6058736E-006  0.7675574E+02  0.7818608E-02  0.1418449E+00
          2   -1    0    0  502    0  0.00000000000E+00  0.00000000000E+00  0.68426677296E+03  0.68426677296E+03  0.00000000000E+00 0. -1.
          1   -1    0    0  501    0 -0.00000000000E+00 -0.00000000000E+00 -0.42347183776E+03  0.42347183776E+03  0.00000000000E+00 0. -1.
         25    2    1    2    0    0 -0.84365991181E+01 -0.38417805354E+02  0.14043991270E+02  0.13179196392E+03  0.12499913636E+03 0.  0.
          2    1    1    2  501    0  0.23465062498E+02  0.75394907050E+02 -0.35965879454E+03  0.36822472711E+03  0.00000000000E+00 0. -1.
          1    1    1    2  502    0 -0.15028463380E+02 -0.36977101696E+02  0.60640973847E+03  0.60772191969E+03  0.00000000000E+00 0. -1.
         22    1    3    3    0    0  0.46969823564E+02 -0.51441164683E+02  0.24657952367E+02  0.73894332425E+02  0.00000000000E+00 0.  1.
         22    1    3    3    0    0 -0.55406422683E+02  0.13023359330E+02 -0.10613961097E+02  0.57897631496E+02  0.00000000000E+00 0.  1.
</event>
<event>
 7    1  0.6058736E-006  0.1162045E+03  0.7818608E-02  0.1330952E+00
          2   -1    0    0  502    0  0.00000000000E+00  0.00000000000E+00  0.11962943082E+04  0.11962943082E+04  0.00000000000E+00 0. -1.
          1   -1    0    0  501    0 -0.00000000000E+00 -0.00000000000E+00 -0.57899966321E+03  0.57899966321E+03  0.00000000000E+00 0. -1.
         25    2    1    2    0    0 -0.13757162513E+01 -0.99420727277E+02  0.16724159412E+02  0.16059520147E+03  0.12499899048E+03 0.  0.
          2    1    1    2  501    0  0.55290019057E+02  0.10459699329E+03 -0.49948753013E+03  0.51330820174E+03  0.00000000000E+00 0. -1.
          1    1    1    2  502    0 -0.53914302806E+02 -0.51762660125E+01  0.11000580158E+04  0.11013905682E+04  0.00000000000E+00 0. -1.
         22    1    3    3    0    0 -0.28609651879E+02  0.18589093589E+02 -0.11923015937E+02  0.36141733358E+02  0.00000000000E+00 0.  1.
         22    1    3    3    0    0  0.27233935627E+02 -0.11800982087E+03  0.28647175349E+02  0.12445346812E+03  0.00000000000E+00 0.  1.
</event>
<event>
 7    1  0.6058736E-006  0.5952492E+02  0.7818608E-02  0.1497730E+00
          2   -1    0    0  502    0  0.00000000000E+00  0.00000000000E+00  0.50731484442E+03  0.50731484442E+03  0.00000000000E+00 0. -1.
          1   -1    0    0  501    0 -0.00000000000E+00 -0.00000000000E+00 -0.23977800425E+03  0.23977800425E+03  0.00000000000E+00 0. -1.
         25    2    1    2    0    0 -0.43160554828E+02  0.43166310258E+02  0.16091920638E+03  0.21271103602E+03  0.12499932012E+03 0.  0.
          2    1    1    2  501    0  0.56930882000E+02 -0.17782537365E+02 -0.20905207882E+03  0.21739391808E+03  0.00000000000E+00 0. -1.
          1    1    1    2  502    0 -0.13770327172E+02 -0.25383772894E+02  0.31566971262E+03  0.31698789456E+03  0.00000000000E+00 0. -1.
         22    1    3    3    0    0  0.30060061508E+02  0.19035480504E+02  0.12054113736E+03  0.12568262653E+03  0.00000000000E+00 0. -1.
         22    1    3    3    0    0 -0.73220616336E+02  0.24130829754E+02  0.40378069021E+02  0.87028409495E+02  0.00000000000E+00 0. -1.
</event>
<event>
 7    1  0.6058736E-006  0.6046313E+02  0.7818608E-02  0.1527488E+00
          2   -1    0    0  502    0  0.00000000000E+00  0.00000000000E+00  0.18210899963E+04  0.18210899963E+04  0.00000000000E+00 0. -1.
          1   -1    0    0  501    0 -0.00000000000E+00 -0.00000000000E+00 -0.20134684317E+03  0.20134684317E+03  0.00000000000E+00 0. -1.
         25    2    1    2    0    0 -0.33887868316E+02  0.21033588316E+02 -0.62721688919E+02  0.14543454184E+03  0.12500558485E+03 0.  0.
          2    1    1    2  501    0 -0.95092440447E+01  0.21220173977E+02 -0.95355810197E+02  0.98150150505E+02  0.00000000000E+00 0. -1.
          1    1    1    2  502    0  0.43397112361E+02 -0.42253762293E+02  0.17778206523E+04  0.17788521472E+04  0.00000000000E+00 0. -1.
         22    1    3    3    0    0 -0.53553678649E+02 -0.23743605751E+02  0.83384539389E+01  0.59171658123E+02  0.00000000000E+00 0. -1.
         22    1    3    3    0    0  0.19665810333E+02  0.44777194067E+02 -0.71060142858E+02  0.86262883719E+02  0.00000000000E+00 0. -1.
</event>
<event>
 7    1  0.6058736E-006  0.6477489E+02  0.7818608E-02  0.1473245E+00
          2   -1    0    0  502    0  0.00000000000E+00  0.00000000000E+00  0.94432791416E+03  0.94432791416E+03  0.00000000000E+00 0. -1.
          1   -1    0    0  501    0 -0.00000000000E+00 -0.00000000000E+00 -0.18280532311E+02  0.18280532311E+02  0.00000000000E+00 0. -1.
         25    2    1    2    0    0 -0.21549953995E+02  0.35772591700E+02  0.48574773914E+03  0.50330785758E+03  0.12499541827E+03 0.  0.
          2    1    1    2  501    0  0.26083220885E+02 -0.66952033841E+02  0.14009295528E+03  0.15744505507E+03  0.00000000000E+00 0. -1.
          1    1    1    2  502    0 -0.45332668909E+01  0.31179442140E+02  0.30020668742E+03  0.30185553381E+03  0.00000000000E+00 0. -1.
         22    1    3    3    0    0  0.35822778805E+02  0.58526802364E+02  0.29259527732E+03  0.30053394880E+03  0.00000000000E+00 0.  1.
         22    1    3    3    0    0 -0.57372732799E+02 -0.22754210664E+02  0.19315246183E+03  0.20277390878E+03  0.00000000000E+00 0.  1.
</event>
<event>
 7    1  0.6058736E-006  0.8177991E+02  0.7818608E-02  0.1333067E+00
          2   -1    0    0  502    0  0.00000000000E+00  0.00000000000E+00  0.27393516024E+03  0.27393516024E+03  0.00000000000E+00 0. -1.
          1   -1    0    0  501    0 -0.00000000000E+00 -0.00000000000E+00 -0.58289052117E+03  0.58289052117E+03  0.00000000000E+00 0. -1.
         25    2    1    2    0    0 -0.13854110798E+02  0.34893586690E+02 -0.30180235452E+03  0.32880443832E+03  0.12497279178E+03 0.  0.
          2    1    1    2  501    0  0.85905301561E+02 -0.73579236072E+02 -0.24858844579E+03  0.27311140620E+03  0.00000000000E+00 0. -1.
          1    1    1    2  502    0 -0.72051190763E+02  0.38685649383E+02  0.24143543938E+03  0.25490983689E+03  0.00000000000E+00 0. -1.
         22    1    3    3    0    0  0.52160287983E+02  0.15268980057E+02 -0.81267742537E+02  0.97766473658E+02  0.00000000000E+00 0. -1.
         22    1    3    3    0    0 -0.66014398781E+02  0.19624606633E+02 -0.22053461198E+03  0.23103796466E+03  0.00000000000E+00 0. -1.
</event>
<event>
 7    1  0.6058736E-006  0.1032681E+03  0.7818608E-02  0.1329335E+00
          2   -1    0    0  502    0  0.00000000000E+00  0.00000000000E+00  0.32585653934E+03  0.32585653934E+03  0.00000000000E+00 0. -1.
          1   -1    0    0  501    0 -0.00000000000E+00 -0.00000000000E+00 -0.26794483129E+04  0.26794483129E+04  0.00000000000E+00 0. -1.
         25    2    1    2    0    0 -0.11120031431E+02  0.45348655849E+02 -0.12706483860E+04  0.12776355612E+04  0.12500060255E+03 0.  0.
          2    1    1    2  501    0  0.22135428929E+02  0.57721470700E+02 -0.13962718450E+04  0.13976397284E+04  0.00000000000E+00 0. -1.
          1    1    1    2  502    0 -0.11015397498E+02 -0.10307012655E+03  0.31332845743E+03  0.33002956262E+03  0.00000000000E+00 0. -1.
         22    1    3    3    0    0 -0.59967936680E+01 -0.39063986537E+02 -0.65696323494E+03  0.65815093150E+03  0.00000000000E+00 0.  1.
         22    1    3    3    0    0 -0.51232377633E+01  0.84412642386E+02 -0.61368515104E+03  0.61948462965E+03  0.00000000000E+00 0.  1.
</event>
<event>
 7    1  0.6058736E-006  0.2088405E+03  0.7818608E-02  0.1232466E+00
          2   -1    0    0  502    0  0.00000000000E+00  0.00000000000E+00  0.16549841182E+04  0.16549841182E+04  0.00000000000E+00 0. -1.
          1   -1    0    0  501    0 -0.00000000000E+00 -0.00000000000E+00 -0.10577232236E+04  0.10577232236E+04  0.00000000000E+00 0. -1.
         25    2    1    2    0    0 -0.11439838410E+03  0.13529568391E+03 -0.45732993551E+03  0.50613454932E+03  0.12501839760E+03 0.  0.
          2    1    1    2  501    0  0.44974270341E+02  0.62307433728E+02 -0.56666138699E+03  0.57184790705E+03  0.00000000000E+00 0. -1.
          1    1    1    2  502    0  0.69424113757E+02 -0.19760311764E+03  0.16212522171E+04  0.16347248855E+04  0.00000000000E+00 0. -1.
         22    1    3    3    0    0 -0.11842826406E+03  0.10023258661E+03 -0.23881982226E+03  0.28479243784E+03  0.00000000000E+00 0.  1.
         22    1    3    3    0    0  0.40298799638E+01  0.35063097309E+02 -0.21851011325E+03  0.22134211149E+03  0.00000000000E+00 0.  1.
</event>
<event>
 7    1  0.6058736E-006  0.9310863E+02  0.7818608E-02  0.1483557E+00
          2   -1    0    0  502    0  0.00000000000E+00  0.00000000000E+00  0.50161054232E+03  0.50161054232E+03  0.00000000000E+00 0. -1.
          1   -1    0    0  501    0 -0.00000000000E+00 -0.00000000000E+00 -0.17505252389E+04  0.17505252389E+04  0.00000000000E+00 0. -1.
         25    2    1    2    0    0  0.28010729533E+02  0.76367711778E+02 -0.23620646267E+03  0.27934791620E+03  0.12500054763E+03 0.  0.
          2    1    1    2  501    0  0.20046396442E+02  0.36513352792E+01 -0.14881402412E+04  0.14882797343E+04  0.00000000000E+00 0. -1.
          1    1    1    2  502    0 -0.48057125975E+02 -0.80019047057E+02  0.47543200721E+03  0.48450813072E+03  0.00000000000E+00 0. -1.
         22    1    3    3    0    0  0.13261363439E+02  0.60609037505E+02 -0.24757379749E+02  0.66800052691E+02  0.00000000000E+00 0.  1.
         22    1    3    3    0    0  0.14749366094E+02  0.15758674273E+02 -0.21144908292E+03  0.21254786351E+03  0.00000000000E+00 0.  1.
</event>
<event>
 7    1  0.6058736E-006  0.1497421E+03  0.7818608E-02  0.1330188E+00
          2   -1    0    0  502    0  0.00000000000E+00  0.00000000000E+00  0.77845368099E+03  0.77845368099E+03  0.00000000000E+00 0. -1.
          1   -1    0    0  501    0 -0.00000000000E+00 -0.00000000000E+00 -0.12528849776E+04  0.12528849776E+04  0.00000000000E+00 0. -1.
         25    2    1    2    0    0 -0.20265189425E+02 -0.10683377933E+03  0.28243863204E+03  0.32744422546E+03  0.12499602237E+03 0.  0.
          2    1    1    2  501    0  0.36762972569E+02  0.14579975156E+03 -0.12248300886E+04  0.12340250523E+04  0.00000000000E+00 0. -1.
          1    1    1    2  502    0 -0.16497783144E+02 -0.38965972230E+02  0.46796015991E+03  0.46986938090E+03  0.00000000000E+00 0. -1.
         22    1    3    3    0    0  0.19253217927E+02 -0.71351732371E+02  0.50517522982E+02  0.89519697503E+02  0.00000000000E+00 0. -1.
         22    1    3    3    0    0 -0.39518407352E+02 -0.35482046957E+02  0.23192110906E+03  0.23792452795E+03  0.00000000000E+00 0. -1.
</event>
<event>
 7    1  0.6058736E-006  0.1049929E+03  0.7818608E-02  0.1344160E+00
          2   -1    0    0  502    0  0.00000000000E+00  0.00000000000E+00  0.44946069439E+02  0.44946069439E+02  0.00000000000E+00 0. -1.
          1   -1    0    0  501    0 -0.00000000000E+00 -0.00000000000E+00 -0.76521095617E+03  0.76521095617E+03  0.00000000000E+00 0. -1.
         25    2    1    2    0    0 -0.48169113587E+02  0.96808662802E+02 -0.36155150957E+03  0.39753875462E+03  0.12500154660E+03 0.  0.
          2    1    1    2  501    0 -0.39853452070E+02 -0.35605001669E+02 -0.26465543470E+03  0.26999724610E+03  0.00000000000E+00 0. -1.
          1    1    1    2  502    0  0.88022565657E+02 -0.61203661133E+02 -0.94057942455E+02  0.14262102489E+03  0.00000000000E+00 0. -1.
         22    1    3    3    0    0 -0.10279705921E+02  0.54777902167E+02 -0.32595571591E+03  0.33068628586E+03  0.00000000000E+00 0. -1.
         22    1    3    3    0    0 -0.37889407665E+02  0.42030760635E+02 -0.35595793662E+02  0.66852468760E+02  0.00000000000E+00 0. -1.
</event>
<event>
 7    1  0.6058736E-006  0.6908588E+02  0.7818608E-02  0.1414796E+00
          2   -1    0    0  502    0  0.00000000000E+00  0.00000000000E+00  0.63004332681E+03  0.63004332681E+03  0.00000000000E+00 0. -1.
          1   -1    0    0  501    0 -0.00000000000E+00 -0.00000000000E+00 -0.86610746922E+03  0.86610746922E+03  0.00000000000E+00 0. -1.
         25    2    1    2    0    0  0.32907982247E+02 -0.11058263952E+02 -0.16463950966E+03  0.20961624337E+03  0.12501032296E+03 0.  0.
          2    1    1    2  501    0 -0.48223751581E+02  0.54025719232E+02 -0.67618725274E+03  0.68005404882E+03  0.00000000000E+00 0. -1.
          1    1    1    2  502    0  0.15315769334E+02 -0.42967455281E+02  0.60476261999E+03  0.60648050384E+03  0.00000000000E+00 0. -1.
         22    1    3    3    0    0  0.76818275195E+02 -0.83884390404E+01 -0.66046433466E+02  0.10165404413E+03  0.00000000000E+00 0.  1.
         22    1    3    3    0    0 -0.43910292949E+02 -0.26698249112E+01 -0.98593076195E+02  0.10796219924E+03  0.00000000000E+00 0.  1.
</event>
<event>
 7    1  0.6058736E-006  0.8081998E+02  0.7818608E-02  0.1374093E+00
          2   -1    0    0  502    0  0.00000000000E+00  0.00000000000E+00  0.66875358427E+03  0.66875358427E+03  0.00000000000E+00 0. -1.
          1   -1    0    0  501    0 -0.00000000000E+00 -0.00000000000E+00 -0.30310596167E+03  0.30310596167E+03  0.00000000000E+00 0. -1.
         25    2    1    2    0    0 -0.15235630519E+02  0.37933927412E+02  0.14925471391E+03  0.19892672858E+03  0.12499506562E+03 0.  0.
          2    1    1    2  501    0  0.21354593026E+02  0.49561861261E+02 -0.27170720481E+03  0.27701480445E+03  0.00000000000E+00 0. -1.
          1    1    1    2  502    0 -0.61189625066E+01 -0.87495788673E+02  0.48810011350E+03  0.49591801292E+03  0.00000000000E+00 0. -1.
         22    1    3    3    0    0 -0.31320993329E+02  0.35416435650E+02 -0.14925407878E+01  0.47302814031E+02  0.00000000000E+00 0.  1.
         22    1    3    3    0    0  0.16085362810E+02  0.25174917624E+01  0.15074725470E+03  0.15162391454E+03  0.00000000000E+00 0.  1.
</event>
<event>
 7    1  0.6058736E-006  0.3153670E+02  0.7818608E-02  0.1599483E+00
          2   -1    0    0  502    0  0.00000000000E+00  0.00000000000E+00  0.10194223827E+03  0.10194223827E+03  0.00000000000E+00 0. -1.
          1   -1    0    0  501    0 -0.00000000000E+00 -0.00000000000E+00 -0.10558936056E+04  0.10558936056E+04  0.00000000000E+00 0. -1.
         25    2    1    2    0    0 -0.38777907672E+02 -0.34245156603E+02 -0.18222141844E+03  0.22694872371E+03  0.12499848391E+03 0.  0.
          2    1    1    2  501    0  0.27875113528E+02  0.48819162459E+01 -0.84798124308E+03  0.84845332440E+03  0.00000000000E+00 0. -1.
          1    1    1    2  502    0  0.10902794144E+02  0.29363240357E+02  0.76251294236E+02  0.82433795722E+02  0.00000000000E+00 0. -1.
         22    1    3    3    0    0  0.17843049020E+02 -0.38127298691E+02 -0.16091031552E+03  0.16632556913E+03  0.00000000000E+00 0.  1.
         22    1    3    3    0    0 -0.56620956692E+02  0.38821420883E+01 -0.21311102924E+02  0.60623154584E+02  0.00000000000E+00 0.  1.
</event>
<event>
 7    1  0.6058736E-006  0.1302503E+03  0.7818608E-02  0.1276706E+00
          2   -1    0    0  502    0  0.00000000000E+00  0.00000000000E+00  0.18599721827E+04  0.18599721827E+04  0.00000000000E+00 0. -1.
          1   -1    0    0  501    0 -0.00000000000E+00 -0.00000000000E+00 -0.49635416232E+02  0.49635416232E+02  0.00000000000E+00 0. -1.
         25    2    1    2    0    0 -0.14686750355E+03  0.95672672338E+02  0.92568634724E+03  0.95039138461E+03  0.12500098659E+03 0.  0.
          2    1    1    2  501    0  0.79430209833E+02  0.17666433952E+01  0.14165758574E+02  0.80702837490E+02  0.00000000000E+00 0. -1.
          1    1    1    2  502    0  0.67437293715E+02 -0.97439315733E+02  0.87048466068E+03  0.87851337685E+03  0.00000000000E+00 0. -1.
         22    1    3    3    0    0 -0.14809248447E+03  0.86102203834E+02  0.92498906567E+03  0.94071767554E+03  0.00000000000E+00 0. -1.
         22    1    3    3    0    0  0.12249809213E+01  0.95704685044E+01  0.69728156943E+00  0.96737090735E+01  0.00000000000E+00 0. -1.
</event>
<event>
 7    1  0.6058736E-006  0.1543172E+03  0.7818608E-02  0.1255302E+00
          2   -1    0    0  502    0  0.00000000000E+00  0.00000000000E+00  0.27499683027E+04  0.27499683027E+04  0.00000000000E+00 0. -1.
          1   -1    0    0  501    0 -0.00000000000E+00 -0.00000000000E+00 -0.10747728170E+03  0.10747728170E+03  0.00000000000E+00 0. -1.
         25    2    1    2    0    0 -0.61560458015E+02  0.78639049803E+02  0.22818339924E+03  0.27867878170E+03  0.12498163681E+03 0.  0.
          2    1    1    2  501    0 -0.82323493536E+02 -0.66344467767E+01 -0.58195550823E+02  0.10103413090E+03  0.00000000000E+00 0. -1.
          1    1    1    2  502    0  0.14388395155E+03 -0.72004603026E+02  0.24725031726E+04  0.24777326718E+04  0.00000000000E+00 0. -1.
         22    1    3    3    0    0  0.21116546022E+02  0.40561769023E+02  0.15583117173E+03  0.16240233898E+03  0.00000000000E+00 0. -1.
         22    1    3    3    0    0 -0.82677004037E+02  0.38077280780E+02  0.72352227507E+02  0.11627644273E+03  0.00000000000E+00 0. -1.
</event>
<event>
 7    1  0.6058736E-006  0.2886078E+03  0.7818608E-02  0.1211594E+00
          2   -1    0    0  502    0  0.00000000000E+00  0.00000000000E+00  0.17121096206E+03  0.17121096206E+03  0.00000000000E+00 0. -1.
          1   -1    0    0  501    0 -0.00000000000E+00 -0.00000000000E+00 -0.23322422253E+04  0.23322422253E+04  0.00000000000E+00 0. -1.
         25    2    1    2    0    0 -0.77856947483E+01  0.25195246467E+03 -0.14841405291E+04  0.15105757615E+04  0.12500143745E+03 0.  0.
          2    1    1    2  501    0 -0.61231511157E+02  0.32188287798E+02 -0.69639740226E+03  0.69982478215E+03  0.00000000000E+00 0. -1.
          1    1    1    2  502    0  0.69017205905E+02 -0.28414075247E+03  0.19506668143E+02  0.29305264378E+03  0.00000000000E+00 0. -1.
         22    1    3    3    0    0  0.14822992476E+02  0.25736453770E+03 -0.13398580022E+04  0.13644323701E+04  0.00000000000E+00 0. -1.
         22    1    3    3    0    0 -0.22608687225E+02 -0.54120730254E+01 -0.14428252692E+03  0.14614339139E+03  0.00000000000E+00 0. -1.
</event>
<event>
 7    1  0.6058736E-006  0.5817362E+03  0.7818608E-02  0.1253996E+00
          2   -1    0    0  502    0  0.00000000000E+00  0.00000000000E+00  0.24545690110E+04  0.24545690110E+04  0.00000000000E+00 0. -1.
          1   -1    0    0  501    0 -0.00000000000E+00 -0.00000000000E+00 -0.46870502707E+03  0.46870502707E+03  0.00000000000E+00 0. -1.
         25    2    1    2    0    0 -0.50915329165E+03 -0.29861460707E+03  0.16284025765E+04  0.17365851810E+04  0.12500152649E+03 0.  0.
          2    1    1    2  501    0  0.51070893794E+03  0.27647487235E+03 -0.21093172068E+03  0.61786257786E+03  0.00000000000E+00 0. -1.
          1    1    1    2  502    0 -0.15556462917E+01  0.22139734716E+02  0.56839312810E+03  0.56882627925E+03  0.00000000000E+00 0. -1.
         22    1    3    3    0    0 -0.43568262264E+02 -0.59875739006E+02  0.29622369600E+03  0.30533878835E+03  0.00000000000E+00 0. -1.
         22    1    3    3    0    0 -0.46558502938E+03 -0.23873886806E+03  0.13321788805E+04  0.14312463926E+04  0.00000000000E+00 0. -1.
</event>
<event>
 7    1  0.6058736E-006  0.1279883E+03  0.7818608E-02  0.1275771E+00
          2   -1    0    0  502    0  0.00000000000E+00  0.00000000000E+00  0.68667530397E+03  0.68667530397E+03  0.00000000000E+00 0. -1.
          1   -1    0    0  501    0 -0.00000000000E+00 -0.00000000000E+00 -0.23056109233E+03  0.23056109233E+03  0.00000000000E+00 0. -1.
         25    2    1    2    0    0 -0.15609301551E+02 -0.15094596429E+03  0.32335689990E+03  0.37843417259E+03  0.12499761532E+03 0.  0.
          2    1    1    2  501    0  0.79489902245E+02  0.10020473804E+03 -0.17705895811E+03  0.21842506434E+03  0.00000000000E+00 0. -1.
          1    1    1    2  502    0 -0.63880600694E+02  0.50741226249E+02  0.30981626985E+03  0.32037715937E+03  0.00000000000E+00 0. -1.
         22    1    3    3    0    0 -0.68952798458E+02 -0.10543844034E+03  0.22046335389E+03  0.25392093951E+03  0.00000000000E+00 0.  1.
         22    1    3    3    0    0  0.53343496907E+02 -0.45507523953E+02  0.10289354601E+03  0.12451323307E+03  0.00000000000E+00 0.  1.
</event>
<event>
 7    1  0.6058736E-006  0.1005402E+03  0.7818608E-02  0.1384662E+00
          2   -1    0    0  502    0  0.00000000000E+00  0.00000000000E+00  0.29163167134E+04  0.29163167134E+04  0.00000000000E+00 0. -1.
          1   -1    0    0  501    0 -0.00000000000E+00 -0.00000000000E+00 -0.17040618201E+02  0.17040618201E+02  0.00000000000E+00 0. -1.
         25    2    1    2    0    0 -0.76581140241E+02 -0.10266362513E+03  0.12432667914E+04  0.12560819213E+04  0.12499995066E+03 0.  0.
          2    1    1    2  501    0  0.72431439037E+02  0.63084829421E+02  0.21230091805E+03  0.23301864490E+03  0.00000000000E+00 0. -1.
          1    1    1    2  502    0  0.41497012041E+01  0.39578795710E+02  0.14437083858E+04  0.14442567654E+04  0.00000000000E+00 0. -1.
         22    1    3    3    0    0 -0.77031008901E+02 -0.77311233846E+02  0.47418227100E+03  0.48657952006E+03  0.00000000000E+00 0. -1.
         22    1    3    3    0    0  0.44986866058E+00 -0.25352391285E+02  0.76908452037E+03  0.76950240129E+03  0.00000000000E+00 0. -1.
</event>
<event>
 7    1  0.6058736E-006  0.1128338E+03  0.7818608E-02  0.1340128E+00
          2   -1    0    0  502    0  0.00000000000E+00  0.00000000000E+00  0.67405831119E+03  0.67405831119E+03  0.00000000000E+00 0. -1.
          1   -1    0    0  501    0 -0.00000000000E+00 -0.00000000000E+00 -0.12978715381E+04  0.12978715381E+04  0.00000000000E+00 0. -1.
         25    2    1    2    0    0  0.13451860861E+03  0.78958667122E+02  0.21039598385E+03  0.29020991703E+03  0.12500239496E+03 0.  0.
          2    1    1    2  501    0 -0.38907589425E+02 -0.33725698239E+02 -0.12508264366E+04  0.12518857766E+04  0.00000000000E+00 0. -1.
          1    1    1    2  502    0 -0.95611019182E+02 -0.45232968883E+02  0.41661722585E+03  0.42983415562E+03  0.00000000000E+00 0. -1.
         22    1    3    3    0    0  0.12888569414E+03  0.95582187505E+02  0.21832602423E+03  0.27094968090E+03  0.00000000000E+00 0.  1.
         22    1    3    3    0    0  0.56329144651E+01 -0.16623520383E+02 -0.79300403820E+01  0.19260236129E+02  0.00000000000E+00 0.  1.
</event>
<event>
 7    1  0.6058736E-006  0.1447787E+03  0.7818608E-02  0.1313155E+00
          2   -1    0    0  502    0  0.00000000000E+00  0.00000000000E+00  0.15134374410E+04  0.15134374410E+04  0.00000000000E+00 0. -1.
          1   -1    0    0  501    0 -0.00000000000E+00 -0.00000000000E+00 -0.11944573368E+03  0.11944573368E+03  0.00000000000E+00 0. -1.
         25    2    1    2    0    0  0.11051053268E+03 -0.27940808349E+02  0.27886832123E+03  0.32617728046E+03  0.12502324224E+03 0.  0.
          2    1    1    2  501    0 -0.13232247985E+03  0.73973314839E+02 -0.34894840908E+02  0.15556008455E+03  0.00000000000E+00 0. -1.
          1    1    1    2  502    0  0.21811947170E+02 -0.46032506490E+02  0.11500182270E+04  0.11511458097E+04  0.00000000000E+00 0. -1.
         22    1    3    3    0    0  0.13334832637E+03 -0.23743931527E+02  0.18380755390E+03  0.22832163126E+03  0.00000000000E+00 0.  1.
         22    1    3    3    0    0 -0.22837793689E+02 -0.41968768217E+01  0.95060767326E+02  0.97855649200E+02  0.00000000000E+00 0.  1.
</event>
<event>
 7    1  0.6058736E-006  0.6306668E+02  0.7818608E-02  0.1534051E+00
          2   -1    0    0  502    0  0.00000000000E+00  0.00000000000E+00  0.97376622429E+03  0.97376622429E+03  0.00000000000E+00 0. -1.
          1   -1    0    0  501    0 -0.00000000000E+00 -0.00000000000E+00 -0.14311405622E+03  0.14311405622E+03  0.00000000000E+00 0. -1.
         25    2    1    2    0    0 -0.47466631303E+02  0.64424637711E+02  0.20687106417E+03  0.25460482951E+03  0.12499746791E+03 0.  0.
          2    1    1    2  501    0  0.19396311988E+02 -0.89216971266E+01 -0.11697770687E+03  0.11891003954E+03  0.00000000000E+00 0. -1.
          1    1    1    2  502    0  0.28070319316E+02 -0.55502940585E+02  0.74075881076E+03  0.74336541146E+03  0.00000000000E+00 0. -1.
         22    1    3    3    0    0 -0.18286228538E+01  0.27387177935E+02 -0.10529977630E+02  0.29398670134E+02  0.00000000000E+00 0. -1.
         22    1    3    3    0    0 -0.45638008450E+02  0.37037459777E+02  0.21740104180E+03  0.22520615937E+03  0.00000000000E+00 0. -1.
</event>
<event>
 7    1  0.6058736E-006  0.1928981E+03  0.7818608E-02  0.1345951E+00
          2   -1    0    0  502    0  0.00000000000E+00  0.00000000000E+00  0.80321611296E+03  0.80321611296E+03  0.00000000000E+00 0. -1.
          1   -1    0    0  501    0 -0.00000000000E+00 -0.00000000000E+00 -0.17764263797E+04  0.17764263797E+04  0.00000000000E+00 0. -1.
         25    2    1    2    0    0 -0.89355157278E+02  0.14305812084E+03  0.51593804425E+01  0.21001156755E+03  0.12501307623E+03 0.  0.
          2    1    1    2  501    0  0.11444168638E+03 -0.15688271692E+03 -0.16680704363E+04  0.16793356028E+04  0.00000000000E+00 0. -1.
          1    1    1    2  502    0 -0.25086529098E+02  0.13824596078E+02  0.68970078913E+03  0.69029532226E+03  0.00000000000E+00 0. -1.
         22    1    3    3    0    0 -0.37835729974E+02  0.13295335525E+03 -0.36523183473E+02  0.14297580238E+03  0.00000000000E+00 0.  1.
         22    1    3    3    0    0 -0.51519427305E+02  0.10104765587E+02  0.41682563915E+02  0.67035765170E+02  0.00000000000E+00 0.  1.
</event>
<event>
 7    1  0.6058736E-006  0.5900503E+02  0.7818608E-02  0.1420834E+00
          2   -1    0    0  502    0  0.00000000000E+00  0.00000000000E+00  0.25866827636E+03  0.25866827636E+03  0.00000000000E+00 0. -1.
          1   -1    0    0  501    0 -0.00000000000E+00 -0.00000000000E+00 -0.33807898036E+03  0.33807898036E+03  0.00000000000E+00 0. -1.
         25    2    1    2    0    0  0.56171568684E+02 -0.26596579847E+02  0.28807340073E+02  0.14254077735E+03  0.12500154869E+03 0.  0.
          2    1    1    2  501    0 -0.15687030646E+02  0.57576713158E+02 -0.27417612378E+03  0.28059527380E+03  0.00000000000E+00 0. -1.
          1    1    1    2  502    0 -0.40484538038E+02 -0.30980133311E+02  0.16595807971E+03  0.17361120557E+03  0.00000000000E+00 0. -1.
         22    1    3    3    0    0  0.57889009940E+02  0.89935497865E+01 -0.35873790381E+02  0.68694615843E+02  0.00000000000E+00 0. -1.
         22    1    3    3    0    0 -0.17174412557E+01 -0.35590129633E+02  0.64681130454E+02  0.73846161502E+02  0.00000000000E+00 0. -1.
</event>
<event>
 7    1  0.6058736E-006  0.1929150E+03  0.7818608E-02  0.1198831E+00
          2   -1    0    0  502    0  0.00000000000E+00  0.00000000000E+00  0.26790405867E+04  0.26790405867E+04  0.00000000000E+00 0. -1.
          1   -1    0    0  501    0 -0.00000000000E+00 -0.00000000000E+00 -0.13613057258E+04  0.13613057258E+04  0.00000000000E+00 0. -1.
         25    2    1    2    0    0  0.19133606016E+03 -0.14842505480E+03  0.26772830637E+03  0.38202510693E+03  0.12500100592E+03 0.  0.
          2    1    1    2  501    0 -0.11553076434E+03 -0.27383912202E+02 -0.12975497782E+04  0.13029707069E+04  0.00000000000E+00 0. -1.
          1    1    1    2  502    0 -0.75805295822E+02  0.17580896700E+03  0.23475563328E+04  0.23553504986E+04  0.00000000000E+00 0. -1.
         22    1    3    3    0    0  0.11128083672E+03 -0.25380796904E+02  0.63806653493E+02  0.13076275656E+03  0.00000000000E+00 0.  1.
         22    1    3    3    0    0  0.80055223440E+02 -0.12304425789E+03  0.20392165288E+03  0.25126235037E+03  0.00000000000E+00 0.  1.
</event>
<event>
 7    1  0.6058736E-006  0.9166850E+02  0.7818608E-02  0.1452052E+00
          2   -1    0    0  502    0  0.00000000000E+00  0.00000000000E+00  0.14831109338E+03  0.14831109338E+03  0.00000000000E+00 0. -1.
          1   -1    0    0  501    0 -0.00000000000E+00 -0.00000000000E+00 -0.13230682490E+04  0.13230682490E+04  0.00000000000E+00 0. -1.
         25    2    1    2    0    0 -0.11284678058E+03  0.27530221537E+02 -0.13131015269E+03  0.21531669433E+03  0.12500645453E+03 0.  0.
          2    1    1    2  501    0  0.86972900449E+02 -0.25488026283E+02 -0.11463550492E+04  0.11499320953E+04  0.00000000000E+00 0. -1.
          1    1    1    2  502    0  0.25873880127E+02 -0.20421952545E+01  0.10290804630E+03  0.10613055275E+03  0.00000000000E+00 0. -1.
         22    1    3    3    0    0  0.18948162013E+02 -0.21871460173E+02 -0.31469996125E+02  0.42752242864E+02  0.00000000000E+00 0. -1.
         22    1    3    3    0    0 -0.13179494259E+03  0.49401681710E+02 -0.99840156561E+02  0.17256445147E+03  0.00000000000E+00 0. -1.
</event>
<event>
 7    1  0.6058736E-006  0.1075575E+03  0.7818608E-02  0.1397725E+00
          2   -1    0    0  502    0  0.00000000000E+00  0.00000000000E+00  0.79847940243E+03  0.79847940243E+03  0.00000000000E+00 0. -1.
          1   -1    0    0  501    0 -0.00000000000E+00 -0.00000000000E+00 -0.22828922581E+03  0.22828922581E+03  0.00000000000E+00 0. -1.
         25    2    1    2    0    0  0.11924405832E+03 -0.64861987353E+02  0.63689554145E+02  0.19521134531E+03  0.12499954873E+03 0.  0.
          2    1    1    2  501    0 -0.33361101095E+02  0.30356103854E+01 -0.15656078471E+03  0.16010451994E+03  0.00000000000E+00 0. -1.
          1    1    1    2  502    0 -0.85882957226E+02  0.61826376968E+02  0.66306140718E+03  0.67145276299E+03  0.00000000000E+00 0. -1.
         22    1    3    3    0    0  0.66552166686E+01 -0.86141237756E+01 -0.34121233503E+02  0.35815549878E+02  0.00000000000E+00 0.  1.
         22    1    3    3    0    0  0.11258884165E+03 -0.56247863578E+02  0.97810787648E+02  0.15939579543E+03  0.00000000000E+00 0.  1.
</event>
<event>
 7    1  0.6058736E-006  0.1125464E+03  0.7818608E-02  0.1370398E+00
          2   -1    0    0  502    0  0.00000000000E+00  0.00000000000E+00  0.13228556882E+03  0.13228556882E+03  0.00000000000E+00 0. -1.
          1   -1    0    0  501    0 -0.00000000000E+00 -0.00000000000E+00 -0.20092216526E+03  0.20092216526E+03  0.00000000000E+00 0. -1.
         25    2    1    2    0    0  0.15180367742E+02  0.11933199321E+03 -0.53815927912E+02  0.18163723990E+03  0.12500145861E+03 0.  0.
          2    1    1    2  501    0  0.22913057336E+02 -0.10728420727E+03 -0.19224046535E+02  0.11137537112E+03  0.00000000000E+00 0. -1.
          1    1    1    2  502    0 -0.38093425078E+02 -0.12047785939E+02  0.44033780110E+01  0.40195123064E+02  0.00000000000E+00 0. -1.
         22    1    3    3    0    0  0.55850689456E+02  0.11523396314E+03 -0.22210029642E+02  0.12996711580E+03  0.00000000000E+00 0.  1.
         22    1    3    3    0    0 -0.40670321714E+02  0.40980300673E+01 -0.31605898270E+02  0.51670124097E+02  0.00000000000E+00 0.  1.
</event>
<event>
 7    1  0.6058736E-006  0.9878636E+02  0.7818608E-02  0.1339991E+00
          2   -1    0    0  502    0  0.00000000000E+00  0.00000000000E+00  0.10162282592E+04  0.10162282592E+04  0.00000000000E+00 0. -1.
          1   -1    0    0  501    0 -0.00000000000E+00 -0.00000000000E+00 -0.18770659547E+04  0.18770659547E+04  0.00000000000E+00 0. -1.
         25    2    1    2    0    0  0.41989449569E+02 -0.62236116837E+02  0.32003084587E+03  0.35168314352E+03  0.12499937205E+03 0.  0.
          2    1    1    2  501    0  0.56137992729E+02  0.17764020868E+02 -0.18565052553E+04  0.18574387736E+04  0.00000000000E+00 0. -1.
          1    1    1    2  502    0 -0.98127442299E+02  0.44472095969E+02  0.67563671400E+03  0.68417229669E+03  0.00000000000E+00 0. -1.
         22    1    3    3    0    0  0.47493245486E+02 -0.12939107452E+01  0.32138965588E+02  0.57360227343E+02  0.00000000000E+00 0.  1.
         22    1    3    3    0    0 -0.55037959162E+01 -0.60942206092E+02  0.28789188029E+03  0.29432291618E+03  0.00000000000E+00 0.  1.
</event>
<event>
 7    1  0.6058736E-006  0.1566912E+03  0.7818608E-02  0.1412359E+00
          2   -1    0    0  502    0  0.00000000000E+00  0.00000000000E+00  0.14682231438E+04  0.14682231438E+04  0.00000000000E+00 0. -1.
          1   -1    0    0  501    0 -0.00000000000E+00 -0.00000000000E+00 -0.73273377949E+03  0.73273377949E+03  0.00000000000E+00 0. -1.
         25    2    1    2    0    0 -0.14382854339E+03 -0.99163182925E+02  0.63520342624E+03  0.67054320670E+03  0.12499925042E+03 0.  0.
          2    1    1    2  501    0  0.12358640512E+03  0.95946541056E+02 -0.70637371292E+03  0.72349371840E+03  0.00000000000E+00 0. -1.
          1    1    1    2  502    0  0.20242138272E+02  0.32166418691E+01  0.80665965098E+03  0.80691999818E+03  0.00000000000E+00 0. -1.
         22    1    3    3    0    0 -0.85006948181E+02  0.11744582037E+02  0.20092891934E+03  0.21848694944E+03  0.00000000000E+00 0. -1.
         22    1    3    3    0    0 -0.58821595209E+02 -0.11090776496E+03  0.43427450689E+03  0.45205625726E+03  0.00000000000E+00 0. -1.
</event>
<event>
 7    1  0.6058736E-006  0.7763086E+02  0.7818608E-02  0.1396065E+00
          2   -1    0    0  502    0  0.00000000000E+00  0.00000000000E+00  0.25536242295E+04  0.25536242295E+04  0.00000000000E+00 0. -1.
          1   -1    0    0  501    0 -0.00000000000E+00 -0.00000000000E+00 -0.40053347742E+02  0.40053347742E+02  0.00000000000E+00 0. -1.
         25    2    1    2    0    0 -0.82928894172E+02  0.63460014048E+02  0.10649752687E+04  0.10773586868E+04  0.12500016843E+03 0.  0.
          2    1    1    2  501    0  0.36108549202E+02 -0.67891165764E+02  0.10680011229E+02  0.77634401872E+02  0.00000000000E+00 0. -1.
          1    1    1    2  502    0  0.46820344970E+02  0.44311517159E+01  0.14379156019E+04  0.14386844886E+04  0.00000000000E+00 0. -1.
         22    1    3    3    0    0  0.33262208809E+02  0.15738865240E+02  0.20865356507E+03  0.21187353924E+03  0.00000000000E+00 0. -1.
         22    1    3    3    0    0 -0.11619110298E+03  0.47721148808E+02  0.85632170365E+03  0.86548514753E+03  0.00000000000E+00 0. -1.
</event>
<event>
 7    1  0.6058736E-006  0.1242874E+03  0.7818608E-02  0.1380171E+00
          2   -1    0    0  502    0  0.00000000000E+00  0.00000000000E+00  0.64371899398E+03  0.64371899398E+03  0.00000000000E+00 0. -1.
          1   -1    0    0  501    0 -0.00000000000E+00 -0.00000000000E+00 -0.11624246025E+04  0.11624246025E+04  0.00000000000E+00 0. -1.
         25    2    1    2    0    0 -0.11486621286E+03 -0.13120288145E+02 -0.61346823097E+02  0.18098372337E+03  0.12500114641E+03 0.  0.
          2    1    1    2  501    0  0.12360839261E+03 -0.19103479124E+02 -0.10370211746E+04  0.10445366887E+04  0.00000000000E+00 0. -1.
          1    1    1    2  502    0 -0.87421797476E+01  0.32223767268E+02  0.57966238912E+03  0.58062318439E+03  0.00000000000E+00 0. -1.
         22    1    3    3    0    0 -0.15022172575E+02  0.35865825498E+02 -0.57863957025E+02  0.69715569496E+02  0.00000000000E+00 0. -1.
         22    1    3    3    0    0 -0.99844040286E+02 -0.48986113642E+02 -0.34828660714E+01  0.11126815387E+03  0.00000000000E+00 0. -1.
</event>
<event>
 7    1  0.6058736E-006  0.2302929E+03  0.7818608E-02  0.1246743E+00
          2   -1    0    0  502    0  0.00000000000E+00  0.00000000000E+00  0.13132115245E+04  0.13132115245E+04  0.00000000000E+00 0. -1.
          1   -1    0    0  501    0 -0.00000000000E+00 -0.00000000000E+00 -0.17240501436E+03  0.17240501436E+03  0.00000000000E+00 0. -1.
         25    2    1    2    0    0  0.15313102967E+03  0.22427745924E+03  0.51247370899E+03  0.59329960913E+03  0.12500253122E+03 0.  0.
          2    1    1    2  501    0 -0.17377718366E+02 -0.57714840156E+02 -0.10886743598E+03  0.12443916782E+03  0.00000000000E+00 0. -1.
          1    1    1    2  502    0 -0.13575331130E+03 -0.16656261909E+03  0.73720023709E+03  0.76787776187E+03  0.00000000000E+00 0. -1.
         22    1    3    3    0    0  0.12553370140E+03  0.19633702736E+03  0.31428232422E+03  0.39125479910E+03  0.00000000000E+00 0.  1.
         22    1    3    3    0    0  0.27597328264E+02  0.27940431884E+02  0.19819138478E+03  0.20204481003E+03  0.00000000000E+00 0.  1.
</event>
<event>
 7    1  0.6058736E-006  0.2257179E+03  0.7818608E-02  0.1204355E+00
          2   -1    0    0  502    0  0.00000000000E+00  0.00000000000E+00  0.17738364017E+03  0.17738364017E+03  0.00000000000E+00 0. -1.
          1   -1    0    0  501    0 -0.00000000000E+00 -0.00000000000E+00 -0.11139179051E+04  0.11139179051E+04  0.00000000000E+00 0. -1.
         25    2    1    2    0    0  0.69339563599E+02 -0.22007664242E+03 -0.43418700396E+03  0.50733121681E+03  0.12499962211E+03 0.  0.
          2    1    1    2  501    0 -0.95361308869E+02 -0.65161977958E+01 -0.54381327438E+03  0.55214954265E+03  0.00000000000E+00 0. -1.
          1    1    1    2  502    0  0.26021745270E+02  0.22659284021E+03  0.41466013405E+02  0.23182078580E+03  0.00000000000E+00 0. -1.
         22    1    3    3    0    0  0.13765943740E+02 -0.24705166440E+02 -0.17877132079E+03  0.18099456233E+03  0.00000000000E+00 0.  1.
         22    1    3    3    0    0  0.55573619858E+02 -0.19537147598E+03 -0.25541568317E+03  0.32633665448E+03  0.00000000000E+00 0.  1.
</event>
<event>
 7    1  0.6058736E-006  0.3485614E+02  0.7818608E-02  0.1600620E+00
          2   -1    0    0  502    0  0.00000000000E+00  0.00000000000E+00  0.12156007476E+02  0.12156007476E+02  0.00000000000E+00 0. -1.
          1   -1    0    0  501    0 -0.00000000000E+00 -0.00000000000E+00 -0.15023361830E+04  0.15023361830E+04  0.00000000000E+00 0. -1.
         25    2    1    2    0    0 -0.54517179336E+02 -0.20329579843E+02 -0.85658223064E+03  0.86760724898E+03  0.12499522381E+03 0.  0.
          2    1    1    2  501    0  0.21523772289E+02  0.13542590400E+02 -0.59545471347E+03  0.59599747509E+03  0.00000000000E+00 0. -1.
          1    1    1    2  502    0  0.32993407047E+02  0.67869894434E+01 -0.38143231431E+02  0.50887466417E+02  0.00000000000E+00 0. -1.
         22    1    3    3    0    0 -0.87226647080E+02  0.13710304451E+02 -0.63015618245E+03  0.63631224622E+03  0.00000000000E+00 0. -1.
         22    1    3    3    0    0  0.32709467744E+02 -0.34039884294E+02 -0.22642604818E+03  0.23129500275E+03  0.00000000000E+00 0. -1.
</event>
<event>
 7    1  0.1182224E-005  0.5904006E+02  0.7818608E-02  0.1411899E+00
          2   -1    0    0  502    0  0.00000000000E+00  0.00000000000E+00  0.23908335779E+04  0.23908335779E+04  0.00000000000E+00 0. -1.
          1   -1    0    0  501    0 -0.00000000000E+00 -0.00000000000E+00 -0.18810712149E+04  0.18810712149E+04  0.00000000000E+00 0. -1.
         25    2    1    2    0    0  0.63586888473E+02 -0.91468180591E+02 -0.40844208992E+03  0.44142745760E+03  0.12499415611E+03 0.  0.
          2    1    1    2  501    0 -0.39615790553E+02  0.37560982771E+02 -0.14552580839E+04  0.14562816791E+04  0.00000000000E+00 0. -1.
          1    1    1    2  502    0 -0.23971097920E+02  0.53907197821E+02  0.23734625368E+04  0.23741956560E+04  0.00000000000E+00 0. -1.
         22    1    3    3    0    0 -0.79962021141E+00 -0.38431552473E+02 -0.31009110155E+03  0.31246458180E+03  0.00000000000E+00 0. -1.
         22    1    3    3    0    0  0.64386508684E+02 -0.53036628119E+02 -0.98350988373E+02  0.12896287581E+03  0.00000000000E+00 0. -1.
</event>
<event>
 7    1  0.6058736E-006  0.1363077E+03  0.7818608E-02  0.1256442E+00
          2   -1    0    0  502    0  0.00000000000E+00  0.00000000000E+00  0.11160878096E+04  0.11160878096E+04  0.00000000000E+00 0. -1.
          1   -1    0    0  501    0 -0.00000000000E+00 -0.00000000000E+00 -0.26383847334E+03  0.26383847334E+03  0.00000000000E+00 0. -1.
         25    2    1    2    0    0 -0.48750905393E+02 -0.70995555942E+02 -0.36921168379E+02  0.15623835052E+03  0.12502091728E+03 0.  0.
          2    1    1    2  501    0  0.12110801664E+03  0.12854725484E+03 -0.11792178627E+03  0.21236076874E+03  0.00000000000E+00 0. -1.
          1    1    1    2  502    0 -0.72357111251E+02 -0.57551698902E+02  0.10070922910E+04  0.10113271637E+04  0.00000000000E+00 0. -1.
         22    1    3    3    0    0  0.42018996389E+02 -0.12640519293E+02 -0.11946885709E+02  0.45476442953E+02  0.00000000000E+00 0. -1.
         22    1    3    3    0    0 -0.90769901782E+02 -0.58355036650E+02 -0.24974282670E+02  0.11076190756E+03  0.00000000000E+00 0. -1.
</event>
<event>
 7    1  0.6058736E-006  0.8346535E+02  0.7818608E-02  0.1402740E+00
          2   -1    0    0  502    0  0.00000000000E+00  0.00000000000E+00  0.17028346759E+04  0.17028346759E+04  0.00000000000E+00 0. -1.
          1   -1    0    0  501    0 -0.00000000000E+00 -0.00000000000E+00 -0.30257441788E+03  0.30257441788E+03  0.00000000000E+00 0. -1.
         25    2    1    2    0    0 -0.10585560714E+03  0.12971222561E+02  0.10826712494E+03  0.19677694376E+03  0.12500293228E+03 0.  0.
          2    1    1    2  501    0  0.73205122215E+02 -0.38568702506E+02 -0.25140755358E+03  0.26467393662E+03  0.00000000000E+00 0. -1.
          1    1    1    2  502    0  0.32650484921E+02  0.25597479945E+02  0.15434006867E+04  0.15439582134E+04  0.00000000000E+00 0. -1.
         22    1    3    3    0    0 -0.11936774607E+03  0.21837085120E+02  0.12451073025E+03  0.17386327685E+03  0.00000000000E+00 0.  1.
         22    1    3    3    0    0  0.13512138938E+02 -0.88658625588E+01 -0.16243605318E+02  0.22913666911E+02  0.00000000000E+00 0.  1.
</event>
<event>
 7    1  0.6058736E-006  0.5345488E+02  0.7818608E-02  0.1470716E+00
          2   -1    0    0  502    0  0.00000000000E+00  0.00000000000E+00  0.12330444828E+03  0.12330444828E+03  0.00000000000E+00 0. -1.
          1   -1    0    0  501    0 -0.00000000000E+00 -0.00000000000E+00 -0.38698658440E+03  0.38698658440E+03  0.00000000000E+00 0. -1.
         25    2    1    2    0    0  0.82457352376E+01  0.16037254055E+02 -0.13469166808E+03  0.18464333114E+03  0.12500451439E+03 0.  0.
          2    1    1    2  501    0 -0.17077140937E+01  0.38838058219E+02 -0.21769381202E+03  0.22113775536E+03  0.00000000000E+00 0. -1.
          1    1    1    2  502    0 -0.65380211439E+01 -0.54875312273E+02  0.88703343985E+02  0.10450994619E+03  0.00000000000E+00 0. -1.
         22    1    3    3    0    0 -0.45597445853E+02  0.20678719171E+01 -0.11807242624E+03  0.12658791807E+03  0.00000000000E+00 0. -1.
         22    1    3    3    0    0  0.53843181091E+02  0.13969382138E+02 -0.16619241837E+02  0.58055413068E+02  0.00000000000E+00 0. -1.
</event>
<event>
 7    1  0.6058736E-006  0.9954459E+02  0.7818608E-02  0.1284396E+00
          2   -1    0    0  502    0  0.00000000000E+00  0.00000000000E+00  0.11713604313E+04  0.11713604313E+04  0.00000000000E+00 0. -1.
          1   -1    0    0  501    0 -0.00000000000E+00 -0.00000000000E+00 -0.18507070189E+04  0.18507070189E+04  0.00000000000E+00 0. -1.
         25    2    1    2    0    0  0.10900459064E+02  0.11295315013E+01 -0.18275874323E+03  0.22168912649E+03  0.12500085891E+03 0.  0.
          2    1    1    2  501    0 -0.10558120315E+03 -0.20431927373E+02 -0.16446975166E+04  0.16482095665E+04  0.00000000000E+00 0. -1.
          1    1    1    2  502    0  0.94680744081E+02  0.19302395872E+02  0.11481096721E+04  0.11521687572E+04  0.00000000000E+00 0. -1.
         22    1    3    3    0    0 -0.30965830166E+02 -0.20737312663E+02 -0.48085182129E+01  0.37577128972E+02  0.00000000000E+00 0.  1.
         22    1    3    3    0    0  0.41866289230E+02  0.21866844164E+02 -0.17795022502E+03  0.18411199752E+03  0.00000000000E+00 0.  1.
</event>
<event>
 7    1  0.6058736E-006  0.1886493E+03  0.7818608E-02  0.1212268E+00
          2   -1    0    0  502    0  0.00000000000E+00  0.00000000000E+00  0.16357362818E+04  0.16357362818E+04  0.00000000000E+00 0. -1.
          1   -1    0    0  501    0 -0.00000000000E+00 -0.00000000000E+00 -0.98742953144E+03  0.98742953144E+03  0.00000000000E+00 0. -1.
         25    2    1    2    0    0  0.28483360432E+03 -0.38205894426E+02  0.24525222701E+02  0.31435028180E+03  0.12499896239E+03 0.  0.
          2    1    1    2  501    0 -0.18219484197E+03  0.15711741441E+02 -0.83067617527E+03  0.85056729741E+03  0.00000000000E+00 0. -1.
          1    1    1    2  502    0 -0.10263876235E+03  0.22494152985E+02  0.14544577029E+04  0.14582482340E+04  0.00000000000E+00 0. -1.
         22    1    3    3    0    0  0.63107021385E+02 -0.64176671268E+02  0.11354684026E+02  0.90719733974E+02  0.00000000000E+00 0. -1.
         22    1    3    3    0    0  0.22172658293E+03  0.25970776842E+02  0.13170538675E+02  0.22363054782E+03  0.00000000000E+00 0. -1.
</event>
<event>
 7    1  0.6058736E-006  0.6409902E+02  0.7818608E-02  0.1392643E+00
          2   -1    0    0  502    0  0.00000000000E+00  0.00000000000E+00  0.63863558128E+03  0.63863558128E+03  0.00000000000E+00 0. -1.
          1   -1    0    0  501    0 -0.00000000000E+00 -0.00000000000E+00 -0.76044215774E+03  0.76044215774E+03  0.00000000000E+00 0. -1.
         25    2    1    2    0    0  0.39564204626E+02  0.27204646173E+02  0.48464749685E+01  0.13399121480E+03  0.12499895304E+03 0.  0.
          2    1    1    2  501    0 -0.44653832019E+02  0.37847263441E+02 -0.69276146761E+03  0.69523005622E+03  0.00000000000E+00 0. -1.
          1    1    1    2  502    0  0.50896273922E+01 -0.65051909615E+02  0.56610841619E+03  0.56985646801E+03  0.00000000000E+00 0. -1.
         22    1    3    3    0    0  0.59240047396E+02  0.64766481161E+01 -0.46257057128E+02  0.75439018555E+02  0.00000000000E+00 0.  1.
         22    1    3    3    0    0 -0.19675842770E+02  0.20727998057E+02  0.51103532097E+02  0.58552196243E+02  0.00000000000E+00 0.  1.
</event>
<event>
 7    1  0.6058736E-006  0.7527782E+02  0.7818608E-02  0.1389946E+00
          2   -1    0    0  502    0  0.00000000000E+00  0.00000000000E+00  0.60731078605E+03  0.60731078605E+03  0.00000000000E+00 0. -1.
          1   -1    0    0  501    0 -0.00000000000E+00 -0.00000000000E+00 -0.47564488109E+03  0.47564488109E+03  0.00000000000E+00 0. -1.
         25    2    1    2    0    0  0.73367733504E+02 -0.94072169395E+02 -0.17445252720E+02  0.17369873972E+03  0.12503806606E+03 0.  0.
          2    1    1    2  501    0 -0.57468744298E+02  0.45684731024E+02 -0.37528230767E+03  0.38239581806E+03  0.00000000000E+00 0. -1.
          1    1    1    2  502    0 -0.15898989206E+02  0.48387438372E+02  0.52439346535E+03  0.52686110935E+03  0.00000000000E+00 0. -1.
         22    1    3    3    0    0 -0.32680908564E+01  0.27271999580E+02  0.64262782819E+01  0.28208853779E+02  0.00000000000E+00 0. -1.
         22    1    3    3    0    0  0.76635824360E+02 -0.12134416898E+03 -0.23871531002E+02  0.14548988594E+03  0.00000000000E+00 0. -1.
</event>
<event>
 7    1  0.6058736E-006  0.4842569E+02  0.7818608E-02  0.1560589E+00
          2   -1    0    0  502    0  0.00000000000E+00  0.00000000000E+00  0.24074981495E+04  0.24074981495E+04  0.00000000000E+00 0. -1.
          1   -1    0    0  501    0 -0.00000000000E+00 -0.00000000000E+00 -0.46161773603E+02  0.46161773603E+02  0.00000000000E+00 0. -1.
         25    2    1    2    0    0  0.59591102623E+02 -0.11032662230E+02  0.11734546231E+04  0.11816487849E+04  0.12500111665E+03 0.  0.
          2    1    1    2  501    0 -0.47479256481E+02 -0.90270567099E+01 -0.28032456729E+02  0.55871156952E+02  0.00000000000E+00 0. -1.
          1    1    1    2  502    0 -0.12111846142E+02  0.20059718940E+02  0.12159142095E+04  0.12161399813E+04  0.00000000000E+00 0. -1.
         22    1    3    3    0    0 -0.14400174867E+02 -0.32176074217E+02  0.77674425527E+03  0.77754376268E+03  0.00000000000E+00 0.  1.
         22    1    3    3    0    0  0.73991277491E+02  0.21143411987E+02  0.39671036782E+03  0.40410502218E+03  0.00000000000E+00 0.  1.
</event>
<event>
 7    1  0.6058736E-006  0.8676959E+02  0.7818608E-02  0.1364569E+00
          2   -1    0    0  502    0  0.00000000000E+00  0.00000000000E+00  0.45579251395E+03  0.45579251395E+03  0.00000000000E+00 0. -1.
          1   -1    0    0  501    0 -0.00000000000E+00 -0.00000000000E+00 -0.85280501193E+02  0.85280501193E+02  0.00000000000E+00 0. -1.
         25    2    1    2    0    0  0.48575548150E+02 -0.61112405067E+01  0.12618659818E+03  0.18424240978E+03  0.12500110744E+03 0.  0.
          2    1    1    2  501    0 -0.88697772554E+02  0.42838787574E+02 -0.78898840100E+01  0.98816531241E+02  0.00000000000E+00 0. -1.
          1    1    1    2  502    0  0.40122224404E+02 -0.36727547067E+02  0.25221529859E+03  0.25801407412E+03  0.00000000000E+00 0. -1.
         22    1    3    3    0    0  0.89419582469E+01  0.86547907600E+01  0.13938238038E+03  0.13993681424E+03  0.00000000000E+00 0.  1.
         22    1    3    3    0    0  0.39633589903E+02 -0.14766031267E+02 -0.13195782198E+02  0.44305595536E+02  0.00000000000E+00 0.  1.
</event>
<event>
 7    1  0.6058736E-006  0.3428210E+02  0.7818608E-02  0.1573683E+00
          2   -1    0    0  502    0  0.00000000000E+00  0.00000000000E+00  0.99480143515E+03  0.99480143515E+03  0.00000000000E+00 0. -1.
          1   -1    0    0  501    0 -0.00000000000E+00 -0.00000000000E+00 -0.65731104305E+03  0.65731104305E+03  0.00000000000E+00 0. -1.
         25    2    1    2    0    0  0.24836801242E+02  0.15329230935E+02  0.17386884535E+03  0.21611928689E+03  0.12500127506E+03 0.  0.
          2    1    1    2  501    0  0.66093219996E+01 -0.29762541649E+02 -0.63544596791E+03  0.63617691734E+03  0.00000000000E+00 0. -1.
          1    1    1    2  502    0 -0.31446123241E+02  0.14433310714E+02  0.79906751466E+03  0.79981627397E+03  0.00000000000E+00 0. -1.
         22    1    3    3    0    0  0.10669974044E+02 -0.43543740031E+02  0.16962031755E+02  0.47933455573E+02  0.00000000000E+00 0. -1.
         22    1    3    3    0    0  0.14166827197E+02  0.58872970965E+02  0.15690681359E+03  0.16818583131E+03  0.00000000000E+00 0. -1.
</event>
<event>
 7    1  0.6058736E-006  0.7787679E+02  0.7818608E-02  0.1409644E+00
          2   -1    0    0  502    0  0.00000000000E+00  0.00000000000E+00  0.26904164002E+04  0.26904164002E+04  0.00000000000E+00 0. -1.
          1   -1    0    0  501    0 -0.00000000000E+00 -0.00000000000E+00 -0.33968915853E+03  0.33968915853E+03  0.00000000000E+00 0. -1.
         25    2    1    2    0    0  0.62833109723E+02 -0.10171328537E+03 -0.21276297860E+03  0.27420160375E+03  0.12499936935E+03 0.  0.
          2    1    1    2  501    0 -0.25707533711E+02  0.33365818741E+02 -0.90999508969E+02  0.10027495092E+03  0.00000000000E+00 0. -1.
          1    1    1    2  502    0 -0.37125576013E+02  0.68347466630E+02  0.26544897292E+04  0.26556290040E+04  0.00000000000E+00 0. -1.
         22    1    3    3    0    0  0.88304985687E+02 -0.26295468264E+02 -0.13030910508E+03  0.15959224610E+03  0.00000000000E+00 0.  1.
         22    1    3    3    0    0 -0.25471875963E+02 -0.75417817106E+02 -0.82453873513E+02  0.11460935764E+03  0.00000000000E+00 0.  1.
</event>
<event>
 7    1  0.6058736E-006  0.8172227E+02  0.7818608E-02  0.1338172E+00
          2   -1    0    0  502    0  0.00000000000E+00  0.00000000000E+00  0.29499834664E+03  0.29499834664E+03  0.00000000000E+00 0. -1.
          1   -1    0    0  501    0 -0.00000000000E+00 -0.00000000000E+00 -0.60625909258E+03  0.60625909258E+03  0.00000000000E+00 0. -1.
         25    2    1    2    0    0  0.40874106862E+02  0.92807725740E+02 -0.15400716992E+02  0.16169652851E+03  0.12499847471E+03 0.  0.
          2    1    1    2  501    0 -0.76479138818E+02 -0.29873153551E+02 -0.50843631959E+03  0.51502325681E+03  0.00000000000E+00 0. -1.
          1    1    1    2  502    0  0.35605031956E+02 -0.62934572189E+02  0.21257629064E+03  0.22453765390E+03  0.00000000000E+00 0. -1.
         22    1    3    3    0    0  0.16062749733E+01  0.58185417413E+02 -0.66613108462E+02  0.88461455662E+02  0.00000000000E+00 0. -1.
         22    1    3    3    0    0  0.39267831889E+02  0.34622308327E+02  0.51212391471E+02  0.73235072849E+02  0.00000000000E+00 0. -1.
</event>
<event>
 7    1  0.6058736E-006  0.6449095E+02  0.7818608E-02  0.1395508E+00
          2   -1    0    0  502    0  0.00000000000E+00  0.00000000000E+00  0.50297997570E+03  0.50297997570E+03  0.00000000000E+00 0. -1.
          1   -1    0    0  501    0 -0.00000000000E+00 -0.00000000000E+00 -0.27099781269E+04  0.27099781269E+04  0.00000000000E+00 0. -1.
         25    2    1    2    0    0 -0.10640850709E+03  0.42412460381E+02  0.64654815574E+02  0.18145471196E+03  0.12499592048E+03 0.  0.
          2    1    1    2  501    0  0.44319763176E+02 -0.35626244877E+02 -0.26487039615E+04  0.26493142785E+04  0.00000000000E+00 0. -1.
          1    1    1    2  502    0  0.62088743917E+02 -0.67862155036E+01  0.37705099469E+03  0.38218911214E+03  0.00000000000E+00 0. -1.
         22    1    3    3    0    0 -0.12702226283E+03  0.45145369781E+02  0.78947283850E+02  0.15622238410E+03  0.00000000000E+00 0. -1.
         22    1    3    3    0    0  0.20613755739E+02 -0.27329093995E+01 -0.14292468277E+02  0.25232327853E+02  0.00000000000E+00 0. -1.
</event>
<event>
 7    1  0.6058736E-006  0.3392807E+02  0.7818608E-02  0.1645482E+00
          2   -1    0    0  502    0  0.00000000000E+00  0.00000000000E+00  0.99424471263E+02  0.99424471263E+02  0.00000000000E+00 0. -1.
          1   -1    0    0  501    0 -0.00000000000E+00 -0.00000000000E+00 -0.68506431515E+03  0.68506431515E+03  0.00000000000E+00 0. -1.
         25    2    1    2    0    0  0.22035538904E+02 -0.80918117551E+01 -0.11500847323E+03  0.17147321244E+03  0.12500028511E+03 0.  0.
          2    1    1    2  501    0 -0.19589773058E+02  0.28043965785E+02 -0.53985228072E+03  0.54093503143E+03  0.00000000000E+00 0. -1.
          1    1    1    2  502    0 -0.24457658459E+01 -0.19952154029E+02  0.69220910073E+02  0.72080542536E+02  0.00000000000E+00 0. -1.
         22    1    3    3    0    0 -0.17545552181E+02 -0.59514460444E+02 -0.61555618565E+02  0.87400867159E+02  0.00000000000E+00 0. -1.
         22    1    3    3    0    0  0.39581091084E+02  0.51422648689E+02 -0.53452854668E+02  0.84072345285E+02  0.00000000000E+00 0. -1.
</event>
<event>
 7    1  0.6058736E-006  0.1044871E+03  0.7818608E-02  0.1335896E+00
          2   -1    0    0  502    0  0.00000000000E+00  0.00000000000E+00  0.21083399753E+04  0.21083399753E+04  0.00000000000E+00 0. -1.
          1   -1    0    0  501    0 -0.00000000000E+00 -0.00000000000E+00 -0.45387118116E+03  0.45387118116E+03  0.00000000000E+00 0. -1.
         25    2    1    2    0    0  0.83384770099E+02  0.26374152701E+02 -0.14463404379E+02  0.15323705140E+03  0.12499515206E+03 0.  0.
          2    1    1    2  501    0 -0.69570900327E+02 -0.82381482347E+02 -0.36174714565E+03  0.37747558357E+03  0.00000000000E+00 0. -1.
          1    1    1    2  502    0 -0.13813869772E+02  0.56007329646E+02  0.20306793442E+04  0.20314985215E+04  0.00000000000E+00 0. -1.
         22    1    3    3    0    0  0.12571530970E+02  0.66028723456E+02 -0.24322239041E+02  0.71480116285E+02  0.00000000000E+00 0.  1.
         22    1    3    3    0    0  0.70813239129E+02 -0.39654570755E+02  0.98588346629E+01  0.81756935110E+02  0.00000000000E+00 0.  1.
</event>
<event>
 7    1  0.6058736E-006  0.2010342E+03  0.7818608E-02  0.1178800E+00
          2   -1    0    0  502    0  0.00000000000E+00  0.00000000000E+00  0.21604346012E+04  0.21604346012E+04  0.00000000000E+00 0. -1.
          1   -1    0    0  501    0 -0.00000000000E+00 -0.00000000000E+00 -0.45964521164E+03  0.45964521164E+03  0.00000000000E+00 0. -1.
         25    2    1    2    0    0 -0.69096039722E+02 -0.89787141071E+02  0.43706580493E+03  0.46849631416E+03  0.12500514043E+03 0.  0.
          2    1    1    2  501    0 -0.10436286177E+03 -0.96619818327E+02 -0.42273140561E+03  0.44601439158E+03  0.00000000000E+00 0. -1.
          1    1    1    2  502    0  0.17345890149E+03  0.18640695940E+03  0.16864549903E+04  0.17055691072E+04  0.00000000000E+00 0. -1.
         22    1    3    3    0    0 -0.29791587992E+02 -0.11514952487E+03  0.35003760490E+03  0.36969349012E+03  0.00000000000E+00 0.  1.
         22    1    3    3    0    0 -0.39304451729E+02  0.25362383799E+02  0.87028200025E+02  0.98802824035E+02  0.00000000000E+00 0.  1.
</event>
<event>
 7    1  0.6058736E-006  0.6019932E+02  0.7818608E-02  0.1455103E+00
          2   -1    0    0  502    0  0.00000000000E+00  0.00000000000E+00  0.94398172256E+03  0.94398172256E+03  0.00000000000E+00 0. -1.
          1   -1    0    0  501    0 -0.00000000000E+00 -0.00000000000E+00 -0.85920982655E+02  0.85920982655E+02  0.00000000000E+00 0. -1.
         25    2    1    2    0    0 -0.14460948691E+02 -0.18381774638E+02  0.54197063948E+03  0.55669101591E+03  0.12500281782E+03 0.  0.
          2    1    1    2  501    0  0.47815129286E+02  0.37905025998E+02 -0.65588160901E+02  0.89581719312E+02  0.00000000000E+00 0. -1.
          1    1    1    2  502    0 -0.33354180595E+02 -0.19523251360E+02  0.38167826133E+03  0.38362996999E+03  0.00000000000E+00 0. -1.
         22    1    3    3    0    0 -0.13816828153E+02  0.51482489181E+02  0.30547737823E+03  0.31009317961E+03  0.00000000000E+00 0.  1.
         22    1    3    3    0    0 -0.64412053810E+00 -0.69864263819E+02  0.23649326125E+03  0.24659783629E+03  0.00000000000E+00 0.  1.
</event>
<event>
 7    1  0.6058736E-006  0.7942170E+02  0.7818608E-02  0.1360378E+00
          2   -1    0    0  502    0  0.00000000000E+00  0.00000000000E+00  0.78776493440E+03  0.78776493440E+03  0.00000000000E+00 0. -1.
          1   -1    0    0  501    0 -0.00000000000E+00 -0.00000000000E+00 -0.24426967850E+04  0.24426967850E+04  0.00000000000E+00 0. -1.
         25    2    1    2    0    0 -0.67275678976E+02 -0.90985714235E+02  0.48016599153E+02  0.17531467740E+03  0.12500090056E+03 0.  0.
          2    1    1    2  501    0  0.69016451213E+01  0.79018962184E+02 -0.23769840683E+04  0.23783071479E+04  0.00000000000E+00 0. -1.
          1    1    1    2  502    0  0.60374033854E+02  0.11966752051E+02  0.67403561854E+03  0.67683989405E+03  0.00000000000E+00 0. -1.
         22    1    3    3    0    0 -0.48162344780E+02  0.22508252269E+02  0.99101682036E+01  0.54078131521E+02  0.00000000000E+00 0. -1.
         22    1    3    3    0    0 -0.19113334195E+02 -0.11349396650E+03  0.38106430950E+02  0.12123654588E+03  0.00000000000E+00 0. -1.
</event>
<event>
 7    1  0.6058736E-006  0.1169765E+03  0.7818608E-02  0.1269919E+00
          2   -1    0    0  502    0  0.00000000000E+00  0.00000000000E+00  0.59046368208E+03  0.59046368208E+03  0.00000000000E+00 0. -1.
          1   -1    0    0  501    0 -0.00000000000E+00 -0.00000000000E+00 -0.15573893790E+04  0.15573893790E+04  0.00000000000E+00 0. -1.
         25    2    1    2    0    0  0.13361995204E+03 -0.45445399562E+02 -0.97056977084E+01  0.18877513388E+03  0.12498909824E+03 0.  0.
          2    1    1    2  501    0 -0.25203696542E+02  0.91007618113E+02 -0.14496893335E+04  0.14527617755E+04  0.00000000000E+00 0. -1.
          1    1    1    2  502    0 -0.10841625550E+03 -0.45562218551E+02  0.49246933428E+03  0.50631615165E+03  0.00000000000E+00 0. -1.
         22    1    3    3    0    0  0.16420636467E+02  0.25986783118E+02  0.32934770276E+02  0.45051629182E+02  0.00000000000E+00 0. -1.
         22    1    3    3    0    0  0.11719931557E+03 -0.71432182680E+02 -0.42640467985E+02  0.14372350470E+03  0.00000000000E+00 0. -1.
</event>
<event>
 7    1  0.7729320E-006  0.1397032E+03  0.7818608E-02  0.1295600E+00
          2   -1    0    0  502    0  0.00000000000E+00  0.00000000000E+00  0.17244336488E+04  0.17244336488E+04  0.00000000000E+00 0. -1.
          1   -1    0    0  501    0 -0.00000000000E+00 -0.00000000000E+00 -0.12373600998E+04  0.12373600998E+04  0.00000000000E+00 0. -1.
         25    2    1    2    0    0 -0.36775618213E+02  0.13152902218E+03 -0.17630893772E+03  0.25565974211E+03  0.12499892976E+03 0.  0.
          2    1    1    2  501    0  0.93438263153E+02 -0.10637897380E+03 -0.10158941473E+04  0.10257134657E+04  0.00000000000E+00 0. -1.
          1    1    1    2  502    0 -0.56662644939E+02 -0.25150048382E+02  0.16792766340E+04  0.16804205408E+04  0.00000000000E+00 0. -1.
         22    1    3    3    0    0 -0.56182705199E+02  0.81267814694E+02 -0.17593879620E+03  0.20178060878E+03  0.00000000000E+00 0. -1.
         22    1    3    3    0    0  0.19407086986E+02  0.50261207491E+02 -0.37014151893E+00  0.53879133330E+02  0.00000000000E+00 0. -1.
</event>
<event>
 7    1  0.6058736E-006  0.5191641E+02  0.7818608E-02  0.1450127E+00
          2   -1    0    0  502    0  0.00000000000E+00  0.00000000000E+00  0.73783306936E+03  0.73783306936E+03  0.00000000000E+00 0. -1.
          1   -1    0    0  501    0 -0.00000000000E+00 -0.00000000000E+00 -0.63850492100E+03  0.63850492100E+03  0.00000000000E+00 0. -1.
         25    2    1    2    0    0 -0.51533890897E+01 -0.48568923029E+02 -0.43771735152E+03  0.45782877166E+03  0.12500082653E+03 0.  0.
          2    1    1    2  501    0 -0.40237450952E+02  0.23268447114E+02 -0.18695487008E+03  0.19264629904E+03  0.00000000000E+00 0. -1.
          1    1    1    2  502    0  0.45390840042E+02  0.25300475916E+02  0.72400036996E+03  0.72586291966E+03  0.00000000000E+00 0. -1.
         22    1    3    3    0    0  0.58965089921E+02 -0.34129103383E+02 -0.20625754178E+03  0.21721844090E+03  0.00000000000E+00 0. -1.
         22    1    3    3    0    0 -0.64118479010E+02 -0.14439819646E+02 -0.23145980975E+03  0.24061033076E+03  0.00000000000E+00 0. -1.
</event>
<event>
 7    1  0.6058736E-006  0.6247432E+02  0.7818608E-02  0.1457237E+00
          2   -1    0    0  502    0  0.00000000000E+00  0.00000000000E+00  0.64353938667E+03  0.64353938667E+03  0.00000000000E+00 0. -1.
          1   -1    0    0  501    0 -0.00000000000E+00 -0.00000000000E+00 -0.20332041704E+03  0.20332041704E+03  0.00000000000E+00 0. -1.
         25    2    1    2    0    0 -0.47922583878E+02  0.80399381536E+02 -0.63233090389E+02  0.16847496947E+03  0.12499902808E+03 0.  0.
          2    1    1    2  501    0  0.30006045938E+02 -0.48410558553E+02 -0.77554892342E+02  0.96222171553E+02  0.00000000000E+00 0. -1.
          1    1    1    2  502    0  0.17916537940E+02 -0.31988822983E+02  0.58100695236E+03  0.58216266268E+03  0.00000000000E+00 0. -1.
         22    1    3    3    0    0  0.95312525361E+00 -0.26731921317E+02 -0.40516710930E+02  0.48550055918E+02  0.00000000000E+00 0. -1.
         22    1    3    3    0    0 -0.48875709132E+02  0.10713130285E+03 -0.22716379458E+02  0.11992491355E+03  0.00000000000E+00 0. -1.
</event>
<event>
 7    1  0.6058736E-006  0.5228342E+02  0.7818608E-02  0.1522027E+00
          2   -1    0    0  502    0  0.00000000000E+00  0.00000000000E+00  0.16928393216E+03  0.16928393216E+03  0.00000000000E+00 0. -1.
          1   -1    0    0  501    0 -0.00000000000E+00 -0.00000000000E+00 -0.88863668577E+02  0.88863668577E+02  0.00000000000E+00 0. -1.
         25    2    1    2    0    0  0.30682533307E+01 -0.38531469559E+02  0.27042365213E+01  0.13086593401E+03  0.12499796584E+03 0.  0.
          2    1    1    2  501    0  0.13561717535E+02  0.60914704291E+02  0.24195115750E+02  0.66932241913E+02  0.00000000000E+00 0. -1.
          1    1    1    2  502    0 -0.16629970866E+02 -0.22383234731E+02  0.53520911308E+02  0.60349424813E+02  0.00000000000E+00 0. -1.
         22    1    3    3    0    0 -0.47385873042E+02 -0.37030198070E+02  0.36287377704E+02  0.70238382054E+02  0.00000000000E+00 0.  1.
         22    1    3    3    0    0  0.50454126373E+02 -0.15012714897E+01 -0.33583141182E+02  0.60627551953E+02  0.00000000000E+00 0.  1.
</event>
<event>
 7    1  0.6058736E-006  0.6684604E+02  0.7818608E-02  0.1385956E+00
          2   -1    0    0  502    0  0.00000000000E+00  0.00000000000E+00  0.15752500358E+04  0.15752500358E+04  0.00000000000E+00 0. -1.
          1   -1    0    0  501    0 -0.00000000000E+00 -0.00000000000E+00 -0.26142297143E+03  0.26142297143E+03  0.00000000000E+00 0. -1.
         25    2    1    2    0    0  0.54083187001E+02  0.55399947494E+02  0.42021746218E+02  0.15290525698E+03  0.12498017907E+03 0.  0.
          2    1    1    2  501    0  0.39003498545E+01 -0.67494752722E+02 -0.19982182496E+03  0.21094908415E+03  0.00000000000E+00 0. -1.
          1    1    1    2  502    0 -0.57983536856E+02  0.12094805228E+02  0.14716271431E+04  0.14728186661E+04  0.00000000000E+00 0. -1.
         22    1    3    3    0    0  0.26409315750E+02  0.80099783986E+02 -0.14221226273E+02  0.85531693715E+02  0.00000000000E+00 0. -1.
         22    1    3    3    0    0  0.27673871251E+02 -0.24699836492E+02  0.56242972492E+02  0.67373563268E+02  0.00000000000E+00 0. -1.
</event>
<event>
 7    1  0.6058736E-006  0.5646721E+02  0.7818608E-02  0.1468116E+00
          2   -1    0    0  502    0  0.00000000000E+00  0.00000000000E+00  0.92274669993E+03  0.92274669993E+03  0.00000000000E+00 0. -1.
          1   -1    0    0  501    0 -0.00000000000E+00 -0.00000000000E+00 -0.22124335035E+03  0.22124335035E+03  0.00000000000E+00 0. -1.
         25    2    1    2    0    0  0.87331410410E+02 -0.53445817104E+01  0.37627693490E+03  0.40603434711E+03  0.12499687796E+03 0.  0.
          2    1    1    2  501    0 -0.34378567715E+02  0.14963739729E+02 -0.20328363168E+03  0.20671244359E+03  0.00000000000E+00 0. -1.
          1    1    1    2  502    0 -0.52952842695E+02 -0.96191580184E+01  0.52851004636E+03  0.53124325959E+03  0.00000000000E+00 0. -1.
         22    1    3    3    0    0  0.89245615297E+02  0.46533155185E+02  0.25091524306E+03  0.27034898480E+03  0.00000000000E+00 0. -1.
         22    1    3    3    0    0 -0.19142048869E+01 -0.51877736895E+02  0.12536169183E+03  0.13568536231E+03  0.00000000000E+00 0. -1.
</event>
<event>
 7    1  0.6058736E-006  0.1646313E+03  0.7818608E-02  0.1340475E+00
          2   -1    0    0  502    0  0.00000000000E+00  0.00000000000E+00  0.15257242100E+04  0.15257242100E+04  0.00000000000E+00 0. -1.
          1   -1    0    0  501    0 -0.00000000000E+00 -0.00000000000E+00 -0.55044127640E+03  0.55044127640E+03  0.00000000000E+00 0. -1.
         25    2    1    2    0    0  0.15413578312E+03 -0.35363844497E+02 -0.18432910603E+03  0.27314583458E+03  0.12499194567E+03 0.  0.
          2    1    1    2  501    0 -0.15358302424E+03  0.70543303484E+02 -0.29927954511E+03  0.34370386836E+03  0.00000000000E+00 0. -1.
          1    1    1    2  502    0 -0.55275887664E+00 -0.35179458986E+02  0.14588915847E+04  0.14593157834E+04  0.00000000000E+00 0. -1.
         22    1    3    3    0    0  0.14924387263E+03  0.11916695887E+01 -0.96082205941E+02  0.17750195462E+03  0.00000000000E+00 0. -1.
         22    1    3    3    0    0  0.48919104812E+01 -0.36555514086E+02 -0.88246900088E+02  0.95643879958E+02  0.00000000000E+00 0. -1.
</event>
<event>
 7    1  0.6058736E-006  0.9205435E+02  0.7818608E-02  0.1321488E+00
          2   -1    0    0  502    0  0.00000000000E+00  0.00000000000E+00  0.72251016386E+03  0.72251016386E+03  0.00000000000E+00 0. -1.
          1   -1    0    0  501    0 -0.00000000000E+00 -0.00000000000E+00 -0.31020791399E+03  0.31020791399E+03  0.00000000000E+00 0. -1.
         25    2    1    2    0    0 -0.46827947175E+02 -0.12946189936E+03  0.18030786817E+03  0.25901402945E+03  0.12499640035E+03 0.  0.
          2    1    1    2  501    0  0.61557763107E+02  0.41684221676E+02 -0.26169791158E+03  0.27205280638E+03  0.00000000000E+00 0. -1.
          1    1    1    2  502    0 -0.14729815931E+02  0.87777677688E+02  0.49369229328E+03  0.50165124202E+03  0.00000000000E+00 0. -1.
         22    1    3    3    0    0 -0.27444274851E+02  0.15742137714E+02  0.75868389703E+01  0.32535568958E+02  0.00000000000E+00 0.  1.
         22    1    3    3    0    0 -0.19383672325E+02 -0.14520403708E+03  0.17272102920E+03  0.22647846049E+03  0.00000000000E+00 0.  1.
</event>
<event>
 7    1  0.6058736E-006  0.1662915E+03  0.7818608E-02  0.1193783E+00
          2   -1    0    0  502    0  0.00000000000E+00  0.00000000000E+00  0.13172689687E+04  0.13172689687E+04  0.00000000000E+00 0. -1.
          1   -1    0    0  501    0 -0.00000000000E+00 -0.00000000000E+00 -0.13557809390E+04  0.13557809390E+04  0.00000000000E+00 0. -1.
         25    2    1    2    0    0  0.67900131304E+01  0.14593046430E+03  0.44644092433E+00  0.19226892341E+03  0.12500133964E+03 0.  0.
          2    1    1    2  501    0  0.13607996461E+03 -0.51651570923E+02 -0.12496250605E+04  0.12580733021E+04  0.00000000000E+00 0. -1.
          1    1    1    2  502    0 -0.14286997774E+03 -0.94278893375E+02  0.12106666493E+04  0.12227076822E+04  0.00000000000E+00 0. -1.
         22    1    3    3    0    0 -0.53990432724E+02  0.31034000868E+02  0.11358509089E+01  0.62284558222E+02  0.00000000000E+00 0.  1.
         22    1    3    3    0    0  0.60780445854E+02  0.11489646343E+03 -0.68940998453E+00  0.12998436519E+03  0.00000000000E+00 0.  1.
</event>
<event>
 7    1  0.6058736E-006  0.5371955E+02  0.7818608E-02  0.1476483E+00
          2   -1    0    0  502    0  0.00000000000E+00  0.00000000000E+00  0.21336706411E+04  0.21336706411E+04  0.00000000000E+00 0. -1.
          1   -1    0    0  501    0 -0.00000000000E+00 -0.00000000000E+00 -0.89414920716E+01  0.89414920716E+01  0.00000000000E+00 0. -1.
         25    2    1    2    0    0 -0.75200068009E+01 -0.45633076871E+02  0.13360878319E+04  0.13427196185E+04  0.12500540394E+03 0.  0.
          2    1    1    2  501    0 -0.29568546588E+02  0.47307440019E+02  0.14782553021E+03  0.15800215255E+03  0.00000000000E+00 0. -1.
          1    1    1    2  502    0  0.37088553389E+02 -0.16743631480E+01  0.64081578685E+03  0.64189036210E+03  0.00000000000E+00 0. -1.
         22    1    3    3    0    0  0.35561423329E+02 -0.68921915270E+02  0.10101859184E+04  0.10131586426E+04  0.00000000000E+00 0. -1.
         22    1    3    3    0    0 -0.43081430130E+02  0.23288838399E+02  0.32590191353E+03  0.32956097593E+03  0.00000000000E+00 0. -1.
</event>
<event>
 7    1  0.6058736E-006  0.7639547E+02  0.7818608E-02  0.1376267E+00
          2   -1    0    0  502    0  0.00000000000E+00  0.00000000000E+00  0.71106428757E+03  0.71106428757E+03  0.00000000000E+00 0. -1.
          1   -1    0    0  501    0 -0.00000000000E+00 -0.00000000000E+00 -0.36082481326E+04  0.36082481326E+04  0.00000000000E+00 0. -1.
         25    2    1    2    0    0  0.71913814554E+02 -0.31065287136E+02  0.25510235346E+02  0.14971050787E+03  0.12500326104E+03 0.  0.
          2    1    1    2  501    0 -0.31330222414E+02  0.69771129174E+02 -0.35444734359E+04  0.35452985108E+04  0.00000000000E+00 0. -1.
          1    1    1    2  502    0 -0.40583592140E+02 -0.38705842038E+02  0.62177935550E+03  0.62430340147E+03  0.00000000000E+00 0. -1.
         22    1    3    3    0    0  0.61513474721E+02  0.23657908018E+02 -0.28790421309E+02  0.71920042709E+02  0.00000000000E+00 0.  1.
         22    1    3    3    0    0  0.10400339833E+02 -0.54723195154E+02  0.54300656655E+02  0.77790465159E+02  0.00000000000E+00 0.  1.
</event>
<event>
 7    1  0.6058736E-006  0.1652850E+03  0.7818608E-02  0.1266899E+00
          2   -1    0    0  502    0  0.00000000000E+00  0.00000000000E+00  0.60366132634E+03  0.60366132634E+03  0.00000000000E+00 0. -1.
          1   -1    0    0  501    0 -0.00000000000E+00 -0.00000000000E+00 -0.13264229176E+04  0.13264229176E+04  0.00000000000E+00 0. -1.
         25    2    1    2    0    0 -0.14440534530E+03  0.16806497010E+03 -0.19588347892E+02  0.25516065477E+03  0.12499807375E+03 0.  0.
          2    1    1    2  501    0  0.61357894864E+02 -0.31163129511E+02 -0.11748219143E+04  0.11768357839E+04  0.00000000000E+00 0. -1.
          1    1    1    2  502    0  0.83047450438E+02 -0.13690184059E+03  0.47164867093E+03  0.49808780529E+03  0.00000000000E+00 0. -1.
         22    1    3    3    0    0 -0.11984804469E+03  0.85097648286E+02  0.37253835968E+02  0.15163446789E+03  0.00000000000E+00 0.  1.
         22    1    3    3    0    0 -0.24557300616E+02  0.82967321815E+02 -0.56842183860E+02  0.10352618687E+03  0.00000000000E+00 0.  1.
</event>
<event>
 7    1  0.6058736E-006  0.2281746E+03  0.7818608E-02  0.1159627E+00
          2   -1    0    0  502    0  0.00000000000E+00  0.00000000000E+00  0.52930291453E+03  0.52930291453E+03  0.00000000000E+00 0. -1.
          1   -1    0    0  501    0 -0.00000000000E+00 -0.00000000000E+00 -0.89172651955E+03  0.89172651955E+03  0.00000000000E+00 0. -1.
         25    2    1    2    0    0 -0.17679137266E+03 -0.10904754890E+03 -0.15239667410E+03  0.28634840905E+03  0.12499643083E+03 0.  0.
          2    1    1    2  501    0  0.10356488028E+03 -0.11676633160E+03 -0.63174461297E+03  0.65073905418E+03  0.00000000000E+00 0. -1.
          1    1    1    2  502    0  0.73226492378E+02  0.22581388049E+03  0.42171768205E+03  0.48394197086E+03  0.00000000000E+00 0. -1.
         22    1    3    3    0    0 -0.62370273492E+02 -0.91989904650E+02 -0.24339436105E+02  0.11377434563E+03  0.00000000000E+00 0. -1.
         22    1    3    3    0    0 -0.11442109916E+03 -0.17057644247E+02 -0.12805723800E+03  0.17257406342E+03  0.00000000000E+00 0. -1.
</event>
<event>
 7    1  0.6058736E-006  0.1856033E+03  0.7818608E-02  0.1216890E+00
          2   -1    0    0  502    0  0.00000000000E+00  0.00000000000E+00  0.13087896889E+03  0.13087896889E+03  0.00000000000E+00 0. -1.
          1   -1    0    0  501    0 -0.00000000000E+00 -0.00000000000E+00 -0.12678381196E+04  0.12678381196E+04  0.00000000000E+00 0. -1.
         25    2    1    2    0    0  0.13032136928E+03  0.24196638301E+02 -0.45656847578E+03  0.49157734142E+03  0.12499749168E+03 0.  0.
          2    1    1    2  501    0  0.58992085992E+02 -0.82835570776E+02 -0.70058421220E+03  0.70792657556E+03  0.00000000000E+00 0. -1.
          1    1    1    2  502    0 -0.18931345527E+03  0.58638932475E+02  0.20193537292E+02  0.19921317149E+03  0.00000000000E+00 0. -1.
         22    1    3    3    0    0 -0.24252775107E+02 -0.60206667066E-01 -0.85415151635E+02  0.88791603511E+02  0.00000000000E+00 0.  1.
         22    1    3    3    0    0  0.15457414438E+03  0.24256844968E+02 -0.37115332415E+03  0.40278573791E+03  0.00000000000E+00 0.  1.
</event>
<event>
 7    1  0.6058736E-006  0.6656787E+02  0.7818608E-02  0.1517499E+00
          2   -1    0    0  502    0  0.00000000000E+00  0.00000000000E+00  0.66204680773E+03  0.66204680773E+03  0.00000000000E+00 0. -1.
          1   -1    0    0  501    0 -0.00000000000E+00 -0.00000000000E+00 -0.84481863906E+03  0.84481863906E+03  0.00000000000E+00 0. -1.
         25    2    1    2    0    0  0.39498086833E+02  0.19900180608E+02  0.27263896612E+03  0.30317099750E+03  0.12499812730E+03 0.  0.
          2    1    1    2  501    0 -0.58143420919E+02 -0.32626791451E+02 -0.82787069728E+03  0.83055105582E+03  0.00000000000E+00 0. -1.
          1    1    1    2  502    0  0.18645334086E+02  0.12726610843E+02  0.37245989983E+03  0.37314339347E+03  0.00000000000E+00 0. -1.
         22    1    3    3    0    0  0.39325894774E+02  0.56161805361E+02  0.72542309483E+02  0.99815134355E+02  0.00000000000E+00 0.  1.
         22    1    3    3    0    0  0.17219205900E+00 -0.36261624754E+02  0.20009665664E+03  0.20335586315E+03  0.00000000000E+00 0.  1.
</event>
<event>
 7    1  0.6058736E-006  0.1383560E+03  0.7818608E-02  0.1254154E+00
          2   -1    0    0  502    0  0.00000000000E+00  0.00000000000E+00  0.12913102589E+04  0.12913102589E+04  0.00000000000E+00 0. -1.
          1   -1    0    0  501    0 -0.00000000000E+00 -0.00000000000E+00 -0.28644867019E+03  0.28644867019E+03  0.00000000000E+00 0. -1.
         25    2    1    2    0    0 -0.54302714032E+01 -0.21910816184E+03  0.49051037963E+02  0.25703571411E+03  0.12499391814E+03 0.  0.
          2    1    1    2  501    0  0.11632678221E+02  0.12614185966E+03 -0.15828724810E+03  0.20273613608E+03  0.00000000000E+00 0. -1.
          1    1    1    2  502    0 -0.62024068181E+01  0.92966302177E+02  0.11140977988E+04  0.11179870789E+04  0.00000000000E+00 0. -1.
         22    1    3    3    0    0  0.16031001701E+02 -0.18126611280E+03 -0.11659985911E+02  0.18234679031E+03  0.00000000000E+00 0.  1.
         22    1    3    3    0    0 -0.21461273105E+02 -0.37842049041E+02  0.60711023874E+02  0.74688923802E+02  0.00000000000E+00 0.  1.
</event>
<event>
 7    1  0.6058736E-006  0.1283952E+03  0.7818608E-02  0.1282106E+00
          2   -1    0    0  502    0  0.00000000000E+00  0.00000000000E+00  0.90345880019E+03  0.90345880019E+03  0.00000000000E+00 0. -1.
          1   -1    0    0  501    0 -0.00000000000E+00 -0.00000000000E+00 -0.10817894159E+03  0.10817894159E+03  0.00000000000E+00 0. -1.
         25    2    1    2    0    0 -0.11797260483E+03  0.11070070347E+03  0.53197067969E+03  0.56990379789E+03  0.12500141427E+03 0.  0.
          2    1    1    2  501    0  0.75132890216E+01 -0.76187866090E+02 -0.60685274606E+02  0.97692082613E+02  0.00000000000E+00 0. -1.
          1    1    1    2  502    0  0.11045931581E+03 -0.34512837376E+02  0.32399445352E+03  0.34404186127E+03  0.00000000000E+00 0. -1.
         22    1    3    3    0    0 -0.51654284274E+02  0.10269097236E+03  0.44848803628E+03  0.46298501010E+03  0.00000000000E+00 0.  1.
         22    1    3    3    0    0 -0.66318320556E+02  0.80097311014E+01  0.83482643407E+02  0.10691878780E+03  0.00000000000E+00 0.  1.
</event>
<event>
 7    1  0.6058736E-006  0.3971479E+02  0.7818608E-02  0.1599799E+00
          2   -1    0    0  502    0  0.00000000000E+00  0.00000000000E+00  0.20963120242E+04  0.20963120242E+04  0.00000000000E+00 0. -1.
          1   -1    0    0  501    0 -0.00000000000E+00 -0.00000000000E+00 -0.30572257295E+02  0.30572257295E+02  0.00000000000E+00 0. -1.
         25    2    1    2    0    0  0.20716319634E+02 -0.32378597312E+01  0.45471353446E+03  0.47204829698E+03  0.12500218648E+03 0.  0.
          2    1    1    2  501    0  0.13665475214E+02 -0.17785628111E+02 -0.15847608149E+02  0.27463074558E+02  0.00000000000E+00 0. -1.
          1    1    1    2  502    0 -0.34381794848E+02  0.21023487842E+02  0.16268738406E+04  0.16273729099E+04  0.00000000000E+00 0. -1.
         22    1    3    3    0    0 -0.35674669249E+01  0.58168743218E+02  0.25968305122E+03  0.26614209851E+03  0.00000000000E+00 0. -1.
         22    1    3    3    0    0  0.24283786559E+02 -0.61406602949E+02  0.19503048324E+03  0.20590619847E+03  0.00000000000E+00 0. -1.
</event>
<event>
 7    1  0.6058736E-006  0.1029661E+03  0.7818608E-02  0.1346701E+00
          2   -1    0    0  502    0  0.00000000000E+00  0.00000000000E+00  0.16948729216E+04  0.16948729216E+04  0.00000000000E+00 0. -1.
          1   -1    0    0  501    0 -0.00000000000E+00 -0.00000000000E+00 -0.44160396892E+03  0.44160396892E+03  0.00000000000E+00 0. -1.
         25    2    1    2    0    0  0.30443973258E+01 -0.10187122300E+03 -0.27532187834E+02  0.16361563596E+03  0.12500016212E+03 0.  0.
          2    1    1    2  501    0  0.49372421320E+02  0.92114677061E+02 -0.33768957805E+03  0.35349257537E+03  0.00000000000E+00 0. -1.
          1    1    1    2  502    0 -0.52416818646E+02  0.97565459435E+01  0.16184907185E+04  0.16193686791E+04  0.00000000000E+00 0. -1.
         22    1    3    3    0    0  0.31819496458E+02 -0.42033849409E+01 -0.49936191800E+02  0.59361368341E+02  0.00000000000E+00 0.  1.
         22    1    3    3    0    0 -0.28775099132E+02 -0.97667838063E+02  0.22404003966E+02  0.10425426761E+03  0.00000000000E+00 0.  1.
</event>
<event>
 7    1  0.6058736E-006  0.1415191E+03  0.7818608E-02  0.1365449E+00
          2   -1    0    0  502    0  0.00000000000E+00  0.00000000000E+00  0.17775988791E+04  0.17775988791E+04  0.00000000000E+00 0. -1.
          1   -1    0    0  501    0 -0.00000000000E+00 -0.00000000000E+00 -0.22036494605E+03  0.22036494605E+03  0.00000000000E+00 0. -1.
         25    2    1    2    0    0 -0.12082757263E+03  0.84079991928E+02  0.16804500209E+03  0.25599387707E+03  0.12499998008E+03 0.  0.
          2    1    1    2  501    0  0.13104259543E+03 -0.52588685912E+02 -0.14792573860E+03  0.20449879179E+03  0.00000000000E+00 0. -1.
          1    1    1    2  502    0 -0.10215022803E+02 -0.31491306017E+02  0.15371146695E+04  0.15374711563E+04  0.00000000000E+00 0. -1.
         22    1    3    3    0    0 -0.87220296791E+02  0.73793117813E+02  0.36655996659E+02  0.11998527618E+03  0.00000000000E+00 0.  1.
         22    1    3    3    0    0 -0.33607275834E+02  0.10286874115E+02  0.13138900543E+03  0.13600860089E+03  0.00000000000E+00 0.  1.
</event>
<event>
 7    1  0.6058736E-006  0.2859502E+03  0.7818608E-02  0.1121856E+00
          2   -1    0    0  502    0  0.00000000000E+00  0.00000000000E+00  0.71356819174E+03  0.71356819174E+03  0.00000000000E+00 0. -1.
          1   -1    0    0  501    0 -0.00000000000E+00 -0.00000000000E+00 -0.48582179896E+03  0.48582179896E+03  0.00000000000E+00 0. -1.
         25    2    1    2    0    0  0.16409371788E+03  0.29026398585E+02  0.17134120644E+03  0.26972698554E+03  0.12500223055E+03 0.  0.
          2    1    1    2  501    0 -0.30887826659E+03  0.10354583177E+03 -0.35010907144E+03  0.47822994967E+03  0.00000000000E+00 0. -1.
          1    1    1    2  502    0  0.14478454871E+03 -0.13257223036E+03  0.40651425779E+03  0.45143305549E+03  0.00000000000E+00 0. -1.
         22    1    3    3    0    0  0.12335300539E+03 -0.38609882393E+02  0.11042495429E+03  0.17000105143E+03  0.00000000000E+00 0. -1.
         22    1    3    3    0    0  0.40740712489E+02  0.67636280978E+02  0.60916252149E+02  0.99725934113E+02  0.00000000000E+00 0. -1.
</event>
<event>
 7    1  0.6058736E-006  0.8701443E+02  0.7818608E-02  0.1380718E+00
          2   -1    0    0  502    0  0.00000000000E+00  0.00000000000E+00  0.13671417959E+04  0.13671417959E+04  0.00000000000E+00 0. -1.
          1   -1    0    0  501    0 -0.00000000000E+00 -0.00000000000E+00 -0.21927079379E+04  0.21927079379E+04  0.00000000000E+00 0. -1.
         25    2    1    2    0    0 -0.49241537794E+02  0.11958245446E+02 -0.45489686038E+01  0.13496012702E+03  0.12500325632E+03 0.  0.
          2    1    1    2  501    0  0.67538014218E+02 -0.55769879377E+02 -0.21216166272E+04  0.21234238333E+04  0.00000000000E+00 0. -1.
          1    1    1    2  502    0 -0.18296476424E+02  0.43811633931E+02  0.13005994538E+04  0.13014657735E+04  0.00000000000E+00 0. -1.
         22    1    3    3    0    0  0.92930198612E+01 -0.23808804150E+02  0.44025374998E+02  0.50906316081E+02  0.00000000000E+00 0. -1.
         22    1    3    3    0    0 -0.58534557656E+02  0.35767049596E+02 -0.48574343602E+02  0.84053810938E+02  0.00000000000E+00 0. -1.
</event>
<event>
 7    1  0.6058736E-006  0.1888117E+03  0.7818608E-02  0.1332318E+00
          2   -1    0    0  502    0  0.00000000000E+00  0.00000000000E+00  0.69311918812E+03  0.69311918812E+03  0.00000000000E+00 0. -1.
          1   -1    0    0  501    0 -0.00000000000E+00 -0.00000000000E+00 -0.24615860877E+04  0.24615860877E+04  0.00000000000E+00 0. -1.
         25    2    1    2    0    0 -0.18137239062E+02 -0.19217785526E+03  0.92736373731E+02  0.24796591113E+03  0.12500308227E+03 0.  0.
          2    1    1    2  501    0  0.32649304083E+02  0.43441857773E+01 -0.23668798645E+04  0.23671090262E+04  0.00000000000E+00 0. -1.
          1    1    1    2  502    0 -0.14512065021E+02  0.18783366948E+03  0.50567659115E+03  0.53963033852E+03  0.00000000000E+00 0. -1.
         22    1    3    3    0    0  0.61999456549E+01 -0.15820762240E+03  0.11948028204E+03  0.19835228485E+03  0.00000000000E+00 0. -1.
         22    1    3    3    0    0 -0.24337184717E+02 -0.33970232858E+02 -0.26743908307E+02  0.49613626272E+02  0.00000000000E+00 0. -1.
</event>
<event>
 7    1  0.6058736E-006  0.2121189E+03  0.7818608E-02  0.1156116E+00
          2   -1    0    0  502    0  0.00000000000E+00  0.00000000000E+00  0.40170952028E+03  0.40170952028E+03  0.00000000000E+00 0. -1.
          1   -1    0    0  501    0 -0.00000000000E+00 -0.00000000000E+00 -0.37924704904E+03  0.37924704904E+03  0.00000000000E+00 0. -1.
         25    2    1    2    0    0  0.24445298235E+03  0.68168787068E+02 -0.52624596904E+02  0.28774952330E+03  0.12500478332E+03 0.  0.
          2    1    1    2  501    0 -0.13179406985E+03  0.11501017905E+03 -0.11238633702E+03  0.20791273862E+03  0.00000000000E+00 0. -1.
          1    1    1    2  502    0 -0.11265891250E+03 -0.18317896611E+03  0.18747340516E+03  0.28529430740E+03  0.00000000000E+00 0. -1.
         22    1    3    3    0    0  0.25719324599E+03  0.65350981755E+02 -0.37872563012E+02  0.26805493398E+03  0.00000000000E+00 0.  1.
         22    1    3    3    0    0 -0.12740263648E+02  0.28178053130E+01 -0.14752033891E+02  0.19694589321E+02  0.00000000000E+00 0.  1.
</event>
<event>
 7    1  0.6058736E-006  0.5480002E+02  0.7818608E-02  0.1512555E+00
          2   -1    0    0  502    0  0.00000000000E+00  0.00000000000E+00  0.99002024033E+03  0.99002024033E+03  0.00000000000E+00 0. -1.
          1   -1    0    0  501    0 -0.00000000000E+00 -0.00000000000E+00 -0.32414925609E+03  0.32414925609E+03  0.00000000000E+00 0. -1.
         25    2    1    2    0    0 -0.52922894419E+02  0.32943782560E+02  0.57097279159E+03  0.58781084245E+03  0.12500212882E+03 0.  0.
          2    1    1    2  501    0  0.28269238669E+02 -0.46942010872E+02 -0.31285673542E+03  0.31761933055E+03  0.00000000000E+00 0. -1.
          1    1    1    2  502    0  0.24653655749E+02  0.13998228312E+02  0.40775492808E+03  0.40873932342E+03  0.00000000000E+00 0. -1.
         22    1    3    3    0    0  0.13495452909E+02 -0.10691912052E+02  0.38730558020E+03  0.38768809201E+03  0.00000000000E+00 0.  1.
         22    1    3    3    0    0 -0.66418347328E+02  0.43635694612E+02  0.18366721138E+03  0.20012275044E+03  0.00000000000E+00 0.  1.
</event>
<event>
 7    1  0.6058736E-006  0.1461998E+03  0.7818608E-02  0.1268713E+00
          2   -1    0    0  502    0  0.00000000000E+00  0.00000000000E+00  0.18759437290E+04  0.18759437290E+04  0.00000000000E+00 0. -1.
          1   -1    0    0  501    0 -0.00000000000E+00 -0.00000000000E+00 -0.38956746506E+03  0.38956746506E+03  0.00000000000E+00 0. -1.
         25    2    1    2    0    0 -0.23741335924E+02  0.96775499068E+02  0.39662751143E+03  0.42762979951E+03  0.12499885742E+03 0.  0.
          2    1    1    2  501    0 -0.67385335111E+02  0.36096644828E+02 -0.36566832436E+03  0.37357338582E+03  0.00000000000E+00 0. -1.
          1    1    1    2  502    0  0.91126671035E+02 -0.13287214390E+03  0.14554170769E+04  0.14643080087E+04  0.00000000000E+00 0. -1.
         22    1    3    3    0    0  0.42053973626E+02  0.15280400477E+00  0.12605750885E+03  0.13288737933E+03  0.00000000000E+00 0.  1.
         22    1    3    3    0    0 -0.65795309549E+02  0.96622695063E+02  0.27057000258E+03  0.29474242018E+03  0.00000000000E+00 0.  1.
</event>
<event>
 7    1  0.6058736E-006  0.7930901E+02  0.7818608E-02  0.1422893E+00
          2   -1    0    0  502    0  0.00000000000E+00  0.00000000000E+00  0.13244138159E+04  0.13244138159E+04  0.00000000000E+00 0. -1.
          1   -1    0    0  501    0 -0.00000000000E+00 -0.00000000000E+00 -0.46045125599E+03  0.46045125599E+03  0.00000000000E+00 0. -1.
         25    2    1    2    0    0  0.10755672549E+03  0.16477291259E+02 -0.50824346040E+02  0.17334184733E+03  0.12499732622E+03 0.  0.
          2    1    1    2  501    0 -0.34630059629E+02  0.13946223967E+02 -0.34612765005E+03  0.34813515813E+03  0.00000000000E+00 0. -1.
          1    1    1    2  502    0 -0.72926665860E+02 -0.30423515227E+02  0.12609145560E+04  0.12633880664E+04  0.00000000000E+00 0. -1.
         22    1    3    3    0    0 -0.46333073253E+01  0.18725858646E+02  0.29567444206E+02  0.35303811065E+02  0.00000000000E+00 0. -1.
         22    1    3    3    0    0  0.11219003281E+03 -0.22485673869E+01 -0.80391790246E+02  0.13803803627E+03  0.00000000000E+00 0. -1.
</event>
<event>
 7    1  0.6058736E-006  0.1613440E+03  0.7818608E-02  0.1348446E+00
          2   -1    0    0  502    0  0.00000000000E+00  0.00000000000E+00  0.12335121364E+04  0.12335121364E+04  0.00000000000E+00 0. -1.
          1   -1    0    0  501    0 -0.00000000000E+00 -0.00000000000E+00 -0.47455173499E+03  0.47455173499E+03  0.00000000000E+00 0. -1.
         25    2    1    2    0    0 -0.48198029024E+02  0.18673773202E+03  0.18286022448E+03  0.29369366763E+03  0.12499631253E+03 0.  0.
          2    1    1    2  501    0  0.39404613094E+02 -0.15439061054E+03 -0.40369422777E+03  0.43400255033E+03  0.00000000000E+00 0. -1.
          1    1    1    2  502    0  0.87934159295E+01 -0.32347121483E+02  0.97979440466E+03  0.98036765340E+03  0.00000000000E+00 0. -1.
         22    1    3    3    0    0 -0.33266228664E+02 -0.46114673729E+01  0.50122741265E+02  0.60334043398E+02  0.00000000000E+00 0. -1.
         22    1    3    3    0    0 -0.14931800360E+02  0.19134919940E+03  0.13273748321E+03  0.23335962423E+03  0.00000000000E+00 0. -1.
</event>
<event>
 7    1  0.6058736E-006  0.1029595E+03  0.7818608E-02  0.1461828E+00
          2   -1    0    0  502    0  0.00000000000E+00  0.00000000000E+00  0.88621521933E+03  0.88621521933E+03  0.00000000000E+00 0. -1.
          1   -1    0    0  501    0 -0.00000000000E+00 -0.00000000000E+00 -0.10692053079E+03  0.10692053079E+03  0.00000000000E+00 0. -1.
         25    2    1    2    0    0  0.37912879377E+02  0.10554522481E+03  0.76492099534E+02  0.18453609207E+03  0.12500138832E+03 0.  0.
          2    1    1    2  501    0 -0.49086617920E+02 -0.87156446407E+02 -0.53011368907E+01  0.10016907837E+03  0.00000000000E+00 0. -1.
          1    1    1    2  502    0  0.11173738543E+02 -0.18388778406E+02  0.70810372590E+03  0.70843057969E+03  0.00000000000E+00 0. -1.
         22    1    3    3    0    0  0.61603448687E+02  0.42052577692E+01  0.14595331101E+02  0.63448347284E+02  0.00000000000E+00 0. -1.
         22    1    3    3    0    0 -0.23690569310E+02  0.10133996704E+03  0.61896768433E+02  0.12108774479E+03  0.00000000000E+00 0. -1.
</event>
<event>
 7    1  0.8172671E-006  0.1557576E+03  0.7818608E-02  0.1300694E+00
          2   -1    0    0  502    0  0.00000000000E+00  0.00000000000E+00  0.15323775374E+04  0.15323775374E+04  0.00000000000E+00 0. -1.
          1   -1    0    0  501    0 -0.00000000000E+00 -0.00000000000E+00 -0.92256198465E+03  0.92256198465E+03  0.00000000000E+00 0. -1.
         25    2    1    2    0    0  0.12002270549E+03 -0.15899966008E+02 -0.23981589162E+03  0.29630694442E+03  0.12501153820E+03 0.  0.
          2    1    1    2  501    0  0.22710654684E+02 -0.47938204898E+02 -0.64935262314E+03  0.65151567479E+03  0.00000000000E+00 0. -1.
          1    1    1    2  502    0 -0.14273336017E+03  0.63838170905E+02  0.14989840675E+04  0.15071169029E+04  0.00000000000E+00 0. -1.
         22    1    3    3    0    0  0.87523244323E+02  0.49715671326E+02 -0.13275508169E+03  0.16660095434E+03  0.00000000000E+00 0. -1.
         22    1    3    3    0    0  0.32499461167E+02 -0.65615637333E+02 -0.10706080993E+03  0.12970599007E+03  0.00000000000E+00 0. -1.
</event>
<event>
 7    1  0.6058736E-006  0.2334510E+03  0.7818608E-02  0.1299451E+00
          2   -1    0    0  502    0  0.00000000000E+00  0.00000000000E+00  0.56239844843E+03  0.56239844843E+03  0.00000000000E+00 0. -1.
          1   -1    0    0  501    0 -0.00000000000E+00 -0.00000000000E+00 -0.48699155334E+03  0.48699155334E+03  0.00000000000E+00 0. -1.
         25    2    1    2    0    0 -0.16841629058E+03 -0.17750529172E+03 -0.12021729272E+03  0.29991494858E+03  0.12499841357E+03 0.  0.
          2    1    1    2  501    0  0.13345874657E+03  0.18522445295E+03 -0.22899208927E+03  0.32335230316E+03  0.00000000000E+00 0. -1.
          1    1    1    2  502    0  0.34957544005E+02 -0.77191612339E+01  0.42461627708E+03  0.42612275003E+03  0.00000000000E+00 0. -1.
         22    1    3    3    0    0 -0.47269647764E+02 -0.13859168943E+03 -0.50962094870E+02  0.15504583546E+03  0.00000000000E+00 0. -1.
         22    1    3    3    0    0 -0.12114664281E+03 -0.38913602286E+02 -0.69255197852E+02  0.14486911312E+03  0.00000000000E+00 0. -1.
</event>
<event>
 7    1  0.6058736E-006  0.4559739E+02  0.7818608E-02  0.1490298E+00
          2   -1    0    0  502    0  0.00000000000E+00  0.00000000000E+00  0.56367692227E+03  0.56367692227E+03  0.00000000000E+00 0. -1.
          1   -1    0    0  501    0 -0.00000000000E+00 -0.00000000000E+00 -0.63661844160E+03  0.63661844160E+03  0.00000000000E+00 0. -1.
         25    2    1    2    0    0 -0.30545262104E+02 -0.49541921788E+01  0.28299325139E+02  0.13184822371E+03  0.12500218092E+03 0.  0.
          2    1    1    2  501    0  0.17529812435E+02  0.42450447595E+02 -0.58312515118E+03  0.58493100171E+03  0.00000000000E+00 0. -1.
          1    1    1    2  502    0  0.13015449669E+02 -0.37496255416E+02  0.48188430670E+03  0.48351613845E+03  0.00000000000E+00 0. -1.
         22    1    3    3    0    0 -0.16286061873E+02 -0.52564608815E+02  0.52953104508E+02  0.76369530496E+02  0.00000000000E+00 0.  1.
         22    1    3    3    0    0 -0.14259200230E+02  0.47610416636E+02 -0.24653779369E+02  0.55478693213E+02  0.00000000000E+00 0.  1.
</event>
<event>
 7    1  0.6058736E-006  0.2328989E+03  0.7818608E-02  0.1286571E+00
          2   -1    0    0  502    0  0.00000000000E+00  0.00000000000E+00  0.20600035792E+04  0.20600035792E+04  0.00000000000E+00 0. -1.
          1   -1    0    0  501    0 -0.00000000000E+00 -0.00000000000E+00 -0.13800265823E+03  0.13800265823E+03  0.00000000000E+00 0. -1.
         25    2    1    2    0    0 -0.95685004126E+02 -0.18924322694E+03  0.51419634582E+03  0.57007997221E+03  0.12499869479E+03 0.  0.
          2    1    1    2  501    0 -0.39256268166E+02 -0.98026611461E+01 -0.96438521169E+02  0.10458267123E+03  0.00000000000E+00 0. -1.
          1    1    1    2  502    0  0.13494127229E+03  0.19904588809E+03  0.15042430963E+04  0.15233435940E+04  0.00000000000E+00 0. -1.
         22    1    3    3    0    0 -0.10654404768E+03 -0.15551553744E+03  0.49521860416E+03  0.52988506526E+03  0.00000000000E+00 0. -1.
         22    1    3    3    0    0  0.10859043553E+02 -0.33727689503E+02  0.18977741666E+02  0.40194906952E+02  0.00000000000E+00 0. -1.
</event>
<event>
 7    1  0.6987471E-006  0.1252523E+03  0.7818608E-02  0.1264336E+00
          2   -1    0    0  502    0  0.00000000000E+00  0.00000000000E+00  0.10177297208E+04  0.10177297208E+04  0.00000000000E+00 0. -1.
          1   -1    0    0  501    0 -0.00000000000E+00 -0.00000000000E+00 -0.15321924035E+04  0.15321924035E+04  0.00000000000E+00 0. -1.
         25    2    1    2    0    0  0.17705511225E+03  0.44435475447E+02 -0.35832880317E+03  0.42112664893E+03  0.12500039603E+03 0.  0.
          2    1    1    2  501    0 -0.91013099571E+02 -0.80016602647E+02 -0.11370402453E+04  0.11434800219E+04  0.00000000000E+00 0. -1.
          1    1    1    2  502    0 -0.86042012678E+02  0.35581127199E+02  0.98090636576E+03  0.98531545352E+03  0.00000000000E+00 0. -1.
         22    1    3    3    0    0  0.12680364362E+03 -0.25860141167E+02 -0.16770397381E+03  0.21183138051E+03  0.00000000000E+00 0. -1.
         22    1    3    3    0    0  0.50251468626E+02  0.70295616614E+02 -0.19062482937E+03  0.20929526842E+03  0.00000000000E+00 0. -1.
</event>
<event>
 7    1  0.6058736E-006  0.4236539E+02  0.7818608E-02  0.1573040E+00
          2   -1    0    0  502    0  0.00000000000E+00  0.00000000000E+00  0.16906536433E+04  0.16906536433E+04  0.00000000000E+00 0. -1.
          1   -1    0    0  501    0 -0.00000000000E+00 -0.00000000000E+00 -0.26698807486E+03  0.26698807486E+03  0.00000000000E+00 0. -1.
         25    2    1    2    0    0 -0.63906218011E+02 -0.83935468658E+01  0.84084403835E+02  0.16386101227E+03  0.12500315214E+03 0.  0.
          2    1    1    2  501    0  0.41929341254E+02 -0.30322952983E+01 -0.22505543401E+03  0.22894805710E+03  0.00000000000E+00 0. -1.
          1    1    1    2  502    0  0.21976876757E+02  0.11425842164E+02  0.15646365986E+04  0.15648326488E+04  0.00000000000E+00 0. -1.
         22    1    3    3    0    0  0.43670059607E+01  0.12686140045E+02 -0.27936731502E+02  0.30991448132E+02  0.00000000000E+00 0. -1.
         22    1    3    3    0    0 -0.68273223972E+02 -0.21079686910E+02  0.11202113534E+03  0.13286956414E+03  0.00000000000E+00 0. -1.
</event>
<event>
 7    1  0.6058736E-006  0.9813308E+02  0.7818608E-02  0.1369644E+00
          2   -1    0    0  502    0  0.00000000000E+00  0.00000000000E+00  0.18729068780E+04  0.18729068780E+04  0.00000000000E+00 0. -1.
          1   -1    0    0  501    0 -0.00000000000E+00 -0.00000000000E+00 -0.33054596533E+03  0.33054596533E+03  0.00000000000E+00 0. -1.
         25    2    1    2    0    0 -0.13097045130E+02 -0.59779785628E+02  0.89097250374E+02  0.16525334559E+03  0.12500077137E+03 0.  0.
          2    1    1    2  501    0  0.49802668776E+02  0.87684621839E+02 -0.28346051495E+03  0.30086336144E+03  0.00000000000E+00 0. -1.
          1    1    1    2  502    0 -0.36705623646E+02 -0.27904836211E+02  0.17367241772E+04  0.17373361363E+04  0.00000000000E+00 0. -1.
         22    1    3    3    0    0  0.88413787757E+01 -0.62885288633E+02  0.11487649852E+03  0.13126057831E+03  0.00000000000E+00 0. -1.
         22    1    3    3    0    0 -0.21938423905E+02  0.31055030049E+01 -0.25779248145E+02  0.33992767279E+02  0.00000000000E+00 0. -1.
</event>
<event>
 7    1  0.6058736E-006  0.7685052E+02  0.7818608E-02  0.1437419E+00
          2   -1    0    0  502    0  0.00000000000E+00  0.00000000000E+00  0.97435870943E+03  0.97435870943E+03  0.00000000000E+00 0. -1.
          1   -1    0    0  501    0 -0.00000000000E+00 -0.00000000000E+00 -0.33503279475E+02  0.33503279475E+02  0.00000000000E+00 0. -1.
         25    2    1    2    0    0 -0.41935098824E+02  0.28187394142E+02  0.33646686088E+03  0.36247790840E+03  0.12500881533E+03 0.  0.
          2    1    1    2  501    0  0.75664577689E+02 -0.35489436595E+02  0.67610998890E+02  0.10749825858E+03  0.00000000000E+00 0. -1.
          1    1    1    2  502    0 -0.33729478865E+02  0.73020424528E+01  0.53677757018E+03  0.53788582192E+03  0.00000000000E+00 0. -1.
         22    1    3    3    0    0 -0.20899838909E+02  0.73809689440E+02  0.25921169703E+03  0.27032457787E+03  0.00000000000E+00 0. -1.
         22    1    3    3    0    0 -0.21035259915E+02 -0.45622295298E+02  0.77255163844E+02  0.92153330534E+02  0.00000000000E+00 0. -1.
</event>
<event>
 7    1  0.6058736E-006  0.6376005E+02  0.7818608E-02  0.1480935E+00
          2   -1    0    0  502    0  0.00000000000E+00  0.00000000000E+00  0.48437623738E+02  0.48437623738E+02  0.00000000000E+00 0. -1.
          1   -1    0    0  501    0 -0.00000000000E+00 -0.00000000000E+00 -0.13958020779E+04  0.13958020779E+04  0.00000000000E+00 0. -1.
         25    2    1    2    0    0  0.67320810330E+02 -0.61170380604E+02 -0.27040218757E+03  0.31147515085E+03  0.12500207835E+03 0.  0.
          2    1    1    2  501    0 -0.22186498057E+02  0.20650624989E+02 -0.10714297094E+04  0.10718583448E+04  0.00000000000E+00 0. -1.
          1    1    1    2  502    0 -0.45134312274E+02  0.40519755615E+02 -0.55325571417E+01  0.60906205990E+02  0.00000000000E+00 0. -1.
         22    1    3    3    0    0  0.10273467709E+03 -0.41382162606E+02 -0.16689291132E+03  0.20030012758E+03  0.00000000000E+00 0. -1.
         22    1    3    3    0    0 -0.35413866763E+02 -0.19788217998E+02 -0.10350927625E+03  0.11117502328E+03  0.00000000000E+00 0. -1.
</event>
<event>
 7    1  0.6058736E-006  0.5324561E+02  0.7818608E-02  0.1505829E+00
          2   -1    0    0  502    0  0.00000000000E+00  0.00000000000E+00  0.15192114256E+03  0.15192114256E+03  0.00000000000E+00 0. -1.
          1   -1    0    0  501    0 -0.00000000000E+00 -0.00000000000E+00 -0.82756522543E+02  0.82756522543E+02  0.00000000000E+00 0. -1.
         25    2    1    2    0    0 -0.35043829024E+02 -0.71686771364E+00  0.33368077038E+02  0.13406231842E+03  0.12502276914E+03 0.  0.
          2    1    1    2  501    0  0.60332353960E+02  0.17840437196E+02  0.18799075334E+02  0.65663379194E+02  0.00000000000E+00 0. -1.
          1    1    1    2  502    0 -0.25288524935E+02 -0.17123569483E+02  0.16997467646E+02  0.34951967493E+02  0.00000000000E+00 0. -1.
         22    1    3    3    0    0 -0.60094985282E+02 -0.46621502269E+02  0.29653871317E+02  0.81635309848E+02  0.00000000000E+00 0.  1.
         22    1    3    3    0    0  0.25051156257E+02  0.45904634555E+02  0.37142057209E+01  0.52427008570E+02  0.00000000000E+00 0.  1.
</event>
<event>
 7    1  0.6058736E-006  0.5147152E+02  0.7818608E-02  0.1450630E+00
          2   -1    0    0  502    0  0.00000000000E+00  0.00000000000E+00  0.14310371594E+03  0.14310371594E+03  0.00000000000E+00 0. -1.
          1   -1    0    0  501    0 -0.00000000000E+00 -0.00000000000E+00 -0.94928358065E+03  0.94928358065E+03  0.00000000000E+00 0. -1.
         25    2    1    2    0    0  0.22657484110E+02 -0.13639650474E+02 -0.97931022938E+02  0.16098328386E+03  0.12500292308E+03 0.  0.
          2    1    1    2  501    0  0.23570349480E+02  0.40326025702E+02 -0.81273342482E+03  0.81407454790E+03  0.00000000000E+00 0. -1.
          1    1    1    2  502    0 -0.46227833590E+02 -0.26686375228E+02  0.10448458305E+03  0.11732946483E+03  0.00000000000E+00 0. -1.
         22    1    3    3    0    0 -0.28938232490E+02 -0.72522326535E+01 -0.10441279835E+03  0.10859119963E+03  0.00000000000E+00 0. -1.
         22    1    3    3    0    0  0.51595716600E+02 -0.63874178205E+01  0.64817754103E+01  0.52392084234E+02  0.00000000000E+00 0. -1.
</event>
<event>
 7    1  0.6058736E-006  0.1957276E+03  0.7818608E-02  0.1308129E+00
          2   -1    0    0  502    0  0.00000000000E+00  0.00000000000E+00  0.62532014091E+03  0.62532014091E+03  0.00000000000E+00 0. -1.
          1   -1    0    0  501    0 -0.00000000000E+00 -0.00000000000E+00 -0.71746079599E+03  0.71746079599E+03  0.00000000000E+00 0. -1.
         25    2    1    2    0    0  0.42563686204E+02 -0.15462448322E+03 -0.59538642453E+03  0.62915120597E+03  0.12500338898E+03 0.  0.
          2    1    1    2  501    0 -0.70237351218E+01 -0.38804967133E+02 -0.84825571604E+02  0.93544299276E+02  0.00000000000E+00 0. -1.
          1    1    1    2  502    0 -0.35539951082E+02  0.19342945035E+03  0.58807134105E+03  0.62008543166E+03  0.00000000000E+00 0. -1.
         22    1    3    3    0    0 -0.15434934016E+02  0.13976359985E+02 -0.11224878268E+03  0.11416376413E+03  0.00000000000E+00 0.  1.
         22    1    3    3    0    0  0.57998620220E+02 -0.16860084321E+03 -0.48313764185E+03  0.51498744184E+03  0.00000000000E+00 0.  1.
</event>
<event>
 7    1  0.6058736E-006  0.8159101E+02  0.7818608E-02  0.1364813E+00
          2   -1    0    0  502    0  0.00000000000E+00  0.00000000000E+00  0.45121288286E+03  0.45121288286E+03  0.00000000000E+00 0. -1.
          1   -1    0    0  501    0 -0.00000000000E+00 -0.00000000000E+00 -0.90593639589E+02  0.90593639589E+02  0.00000000000E+00 0. -1.
         25    2    1    2    0    0  0.19733368917E+02 -0.29417212417E+02  0.10535159270E+03  0.16726830808E+03  0.12499980228E+03 0.  0.
          2    1    1    2  501    0  0.43945007991E+02 -0.37435959840E+02 -0.36641882967E+02  0.68375744265E+02  0.00000000000E+00 0. -1.
          1    1    1    2  502    0 -0.63678376908E+02  0.66853172257E+02  0.29190953354E+03  0.30616247010E+03  0.00000000000E+00 0. -1.
         22    1    3    3    0    0  0.43213513443E+02 -0.50097333906E+01 -0.11999668975E+02  0.45127566168E+02  0.00000000000E+00 0.  1.
         22    1    3    3    0    0 -0.23480144526E+02 -0.24407479026E+02  0.11735126167E+03  0.12214074192E+03  0.00000000000E+00 0.  1.
</event>
<event>
 7    1  0.6058736E-006  0.8856199E+02  0.7818608E-02  0.1396581E+00
          2   -1    0    0  502    0  0.00000000000E+00  0.00000000000E+00  0.83419353548E+03  0.83419353548E+03  0.00000000000E+00 0. -1.
          1   -1    0    0  501    0 -0.00000000000E+00 -0.00000000000E+00 -0.17595215209E+04  0.17595215209E+04  0.00000000000E+00 0. -1.
         25    2    1    2    0    0 -0.65924537265E+02 -0.89430374813E+02  0.59957376237E+02  0.17766572158E+03  0.12500554031E+03 0.  0.
          2    1    1    2  501    0 -0.69648906572E+01  0.40460568550E+02 -0.16977235565E+04  0.16982199037E+04  0.00000000000E+00 0. -1.
          1    1    1    2  502    0  0.72889427922E+02  0.48969806263E+02  0.71243819482E+03  0.71782943104E+03  0.00000000000E+00 0. -1.
         22    1    3    3    0    0 -0.43941957500E+02 -0.60707961534E+02 -0.29988772916E+02  0.80719754234E+02  0.00000000000E+00 0.  1.
         22    1    3    3    0    0 -0.21982579765E+02 -0.28722413279E+02  0.89946149152E+02  0.96945967348E+02  0.00000000000E+00 0.  1.
</event>
<event>
 7    1  0.6058736E-006  0.6415495E+02  0.7818608E-02  0.1387035E+00
          2   -1    0    0  502    0  0.00000000000E+00  0.00000000000E+00  0.14652659794E+03  0.14652659794E+03  0.00000000000E+00 0. -1.
          1   -1    0    0  501    0 -0.00000000000E+00 -0.00000000000E+00 -0.25894182655E+04  0.25894182655E+04  0.00000000000E+00 0. -1.
         25    2    1    2    0    0 -0.38349350291E+02  0.99394118762E+02 -0.60001389576E+03  0.62208658341E+03  0.12500071460E+03 0.  0.
          2    1    1    2  501    0  0.49147321649E+02 -0.39173707723E+02 -0.19709349142E+04  0.19719367319E+04  0.00000000000E+00 0. -1.
          1    1    1    2  502    0 -0.10797971358E+02 -0.60220411039E+02  0.12805714242E+03  0.14192154810E+03  0.00000000000E+00 0. -1.
         22    1    3    3    0    0  0.31837387146E+01 -0.12149416043E+01  0.57162315499E+01  0.66548913167E+01  0.00000000000E+00 0.  1.
         22    1    3    3    0    0 -0.41533089006E+02  0.10060906037E+03 -0.60573012731E+03  0.61543169210E+03  0.00000000000E+00 0.  1.
</event>
<event>
 7    1  0.6058736E-006  0.7988524E+02  0.7818608E-02  0.1413296E+00
          2   -1    0    0  502    0  0.00000000000E+00  0.00000000000E+00  0.33457200351E+03  0.33457200351E+03  0.00000000000E+00 0. -1.
          1   -1    0    0  501    0 -0.00000000000E+00 -0.00000000000E+00 -0.77010217129E+03  0.77010217129E+03  0.00000000000E+00 0. -1.
         25    2    1    2    0    0 -0.56410689585E+02  0.83159018436E+02  0.96262217298E+02  0.18705461868E+03  0.12500171056E+03 0.  0.
          2    1    1    2  501    0 -0.72322530635E+01 -0.39249976727E+02 -0.71638061028E+03  0.71749149468E+03  0.00000000000E+00 0. -1.
          1    1    1    2  502    0  0.63642942648E+02 -0.43909041709E+02  0.18458822520E+03  0.20012806144E+03  0.00000000000E+00 0. -1.
         22    1    3    3    0    0  0.27399501500E+02  0.50063641646E+02  0.26668133992E+01  0.57133289692E+02  0.00000000000E+00 0. -1.
         22    1    3    3    0    0 -0.83810191084E+02  0.33095376790E+02  0.93595403899E+02  0.12992132899E+03  0.00000000000E+00 0. -1.
</event>
<event>
 7    1  0.6058736E-006  0.2075506E+03  0.7818608E-02  0.1216783E+00
          2   -1    0    0  502    0  0.00000000000E+00  0.00000000000E+00  0.15660942529E+04  0.15660942529E+04  0.00000000000E+00 0. -1.
          1   -1    0    0  501    0 -0.00000000000E+00 -0.00000000000E+00 -0.17742201240E+04  0.17742201240E+04  0.00000000000E+00 0. -1.
         25    2    1    2    0    0 -0.17811753322E+03  0.78614797757E+02  0.41317465388E+03  0.47354394930E+03  0.12499774096E+03 0.  0.
          2    1    1    2  501    0  0.34842209391E+02  0.84113839342E+02 -0.17323615360E+04  0.17347523191E+04  0.00000000000E+00 0. -1.
          1    1    1    2  502    0  0.14327532383E+03 -0.16272863710E+03  0.11110610110E+04  0.11320181085E+04  0.00000000000E+00 0. -1.
         22    1    3    3    0    0 -0.62868134460E+02  0.84463138193E+02  0.12695151196E+03  0.16493365464E+03  0.00000000000E+00 0.  1.
         22    1    3    3    0    0 -0.11524939876E+03 -0.58483404363E+01  0.28622314192E+03  0.30861029466E+03  0.00000000000E+00 0.  1.
</event>
<event>
 7    1  0.6058736E-006  0.4148169E+02  0.7818608E-02  0.1610300E+00
          2   -1    0    0  502    0  0.00000000000E+00  0.00000000000E+00  0.22556279373E+04  0.22556279373E+04  0.00000000000E+00 0. -1.
          1   -1    0    0  501    0 -0.00000000000E+00 -0.00000000000E+00 -0.50456375417E+01  0.50456375417E+01  0.00000000000E+00 0. -1.
         25    2    1    2    0    0 -0.27315437912E+02 -0.16561571845E+02  0.10871518430E+04  0.10947800521E+04  0.12499525575E+03 0.  0.
          2    1    1    2  501    0  0.42967138856E+01 -0.19704359552E+02  0.12858086821E+03  0.13015284555E+03  0.00000000000E+00 0. -1.
          1    1    1    2  502    0  0.23018724027E+02  0.36265931397E+02  0.10348495885E+04  0.10357406771E+04  0.00000000000E+00 0. -1.
         22    1    3    3    0    0  0.20357914922E+01  0.49122219300E+02  0.26778297699E+03  0.27225881003E+03  0.00000000000E+00 0. -1.
         22    1    3    3    0    0 -0.29351229404E+02 -0.65683791145E+02  0.81936886600E+03  0.82252124207E+03  0.00000000000E+00 0. -1.
</event>
<event>
 7    1  0.6058736E-006  0.5898701E+02  0.7818608E-02  0.1520025E+00
          2   -1    0    0  502    0  0.00000000000E+00  0.00000000000E+00  0.14517795450E+04  0.14517795450E+04  0.00000000000E+00 0. -1.
          1   -1    0    0  501    0 -0.00000000000E+00 -0.00000000000E+00 -0.21649538697E+03  0.21649538697E+03  0.00000000000E+00 0. -1.
         25    2    1    2    0    0  0.78739400788E+01 -0.51226330227E+02 -0.14443991603E+02  0.13608243683E+03  0.12499465941E+03 0.  0.
          2    1    1    2  501    0 -0.24439309474E+02 -0.54911053284E+01 -0.13948857470E+03  0.14171977475E+03  0.00000000000E+00 0. -1.
          1    1    1    2  502    0  0.16565369395E+02  0.56717435555E+02  0.13892167243E+04  0.13904727203E+04  0.00000000000E+00 0. -1.
         22    1    3    3    0    0  0.53009179059E+02  0.14922827276E+02 -0.26025531665E+01  0.55131090334E+02  0.00000000000E+00 0.  1.
         22    1    3    3    0    0 -0.45135238980E+02 -0.66149157502E+02 -0.11841438437E+02  0.80951346501E+02  0.00000000000E+00 0.  1.
</event>
<event>
 7    1  0.6058736E-006  0.3266602E+02  0.7818608E-02  0.1640714E+00
          2   -1    0    0  502    0  0.00000000000E+00  0.00000000000E+00  0.27633504341E+03  0.27633504341E+03  0.00000000000E+00 0. -1.
          1   -1    0    0  501    0 -0.00000000000E+00 -0.00000000000E+00 -0.97104958171E+03  0.97104958171E+03  0.00000000000E+00 0. -1.
         25    2    1    2    0    0 -0.13730906776E+02 -0.83918594857E+01 -0.11932473682E+03  0.17355881979E+03  0.12500124001E+03 0.  0.
          2    1    1    2  501    0  0.32873864018E+02 -0.12915477754E+01 -0.82381720148E+03  0.82447385676E+03  0.00000000000E+00 0. -1.
          1    1    1    2  502    0 -0.19142957242E+02  0.96834072611E+01  0.24842739999E+03  0.24935194857E+03  0.00000000000E+00 0. -1.
         22    1    3    3    0    0 -0.47113659015E+02  0.25195955368E+02 -0.99145618783E+01  0.54339962918E+02  0.00000000000E+00 0. -1.
         22    1    3    3    0    0  0.33382752239E+02 -0.33587814854E+02 -0.10941017494E+03  0.11921885688E+03  0.00000000000E+00 0. -1.
</event>
<event>
 7    1  0.6058736E-006  0.4818161E+02  0.7818608E-02  0.1465017E+00
          2   -1    0    0  502    0  0.00000000000E+00  0.00000000000E+00  0.19275613067E+04  0.19275613067E+04  0.00000000000E+00 0. -1.
          1   -1    0    0  501    0 -0.00000000000E+00 -0.00000000000E+00 -0.35405118088E+03  0.35405118088E+03  0.00000000000E+00 0. -1.
         25    2    1    2    0    0  0.89366676182E+00  0.65209978864E+01 -0.11954467476E+02  0.12574410641E+03  0.12500139580E+03 0.  0.
          2    1    1    2  501    0  0.26042341774E+02 -0.42484897253E+02 -0.28275302129E+03  0.28711050330E+03  0.00000000000E+00 0. -1.
          1    1    1    2  502    0 -0.26936008536E+02  0.35963899367E+02  0.18682176146E+04  0.18687578779E+04  0.00000000000E+00 0. -1.
         22    1    3    3    0    0 -0.15163893660E+02 -0.42045336697E+02 -0.46125253517E+02  0.64228444017E+02  0.00000000000E+00 0. -1.
         22    1    3    3    0    0  0.16057560422E+02  0.48566334583E+02  0.34170786041E+02  0.61515662398E+02  0.00000000000E+00 0. -1.
</event>
<event>
 7    1  0.6058736E-006  0.8726448E+02  0.7818608E-02  0.1408681E+00
          2   -1    0    0  502    0  0.00000000000E+00  0.00000000000E+00  0.17632769434E+04  0.17632769434E+04  0.00000000000E+00 0. -1.
          1   -1    0    0  501    0 -0.00000000000E+00 -0.00000000000E+00 -0.16710291092E+03  0.16710291092E+03  0.00000000000E+00 0. -1.
         25    2    1    2    0    0  0.79952128024E+02  0.86374973919E+02  0.65177315227E+03  0.67400732647E+03  0.12499862090E+03 0.  0.
          2    1    1    2  501    0 -0.33684055884E+02 -0.17314035544E+02 -0.15209023131E+03  0.15673490329E+03  0.00000000000E+00 0. -1.
          1    1    1    2  502    0 -0.46268072140E+02 -0.69060938376E+02  0.10964911116E+04  0.10996376246E+04  0.00000000000E+00 0. -1.
         22    1    3    3    0    0  0.10010791848E+03  0.46813751474E+02  0.57320845273E+03  0.58376455267E+03  0.00000000000E+00 0.  1.
         22    1    3    3    0    0 -0.20155790458E+02  0.39561222446E+02  0.78564699531E+02  0.90242773798E+02  0.00000000000E+00 0.  1.
</event>
<event>
 7    1  0.6058736E-006  0.2821857E+03  0.7818608E-02  0.1210749E+00
          2   -1    0    0  502    0  0.00000000000E+00  0.00000000000E+00  0.13724601999E+04  0.13724601999E+04  0.00000000000E+00 0. -1.
          1   -1    0    0  501    0 -0.00000000000E+00 -0.00000000000E+00 -0.22890535071E+04  0.22890535071E+04  0.00000000000E+00 0. -1.
         25    2    1    2    0    0 -0.22316965677E+03  0.34250319664E+02 -0.59662036074E+03  0.65004498019E+03  0.12499936530E+03 0.  0.
          2    1    1    2  501    0 -0.60416437956E+02 -0.38033400479E+02 -0.16499978902E+04  0.16515416201E+04  0.00000000000E+00 0. -1.
          1    1    1    2  502    0  0.28358609473E+03  0.37830808145E+01  0.13300249437E+04  0.13599271068E+04  0.00000000000E+00 0. -1.
         22    1    3    3    0    0 -0.89678729659E+02  0.76202814753E+02 -0.29206138402E+03  0.31487933493E+03  0.00000000000E+00 0.  1.
         22    1    3    3    0    0 -0.13349092712E+03 -0.41952495089E+02 -0.30455897672E+03  0.33516564527E+03  0.00000000000E+00 0.  1.
</event>
<event>
 7    1  0.6058736E-006  0.1057346E+03  0.7818608E-02  0.1405891E+00
          2   -1    0    0  502    0  0.00000000000E+00  0.00000000000E+00  0.76140199004E+03  0.76140199004E+03  0.00000000000E+00 0. -1.
          1   -1    0    0  501    0 -0.00000000000E+00 -0.00000000000E+00 -0.73220576941E+02  0.73220576941E+02  0.00000000000E+00 0. -1.
         25    2    1    2    0    0 -0.77945615517E+02  0.32260619783E+02  0.14054973226E+03  0.20614710466E+03  0.12500453973E+03 0.  0.
          2    1    1    2  501    0 -0.12291815149E+02  0.29488948036E+02 -0.28042184054E+02  0.42509420867E+02  0.00000000000E+00 0. -1.
          1    1    1    2  502    0  0.90237430666E+02 -0.61749567819E+02  0.57567386489E+03  0.58596604145E+03  0.00000000000E+00 0. -1.
         22    1    3    3    0    0 -0.45814161770E+01  0.14658711969E+02  0.12889411518E+03  0.12980585557E+03  0.00000000000E+00 0. -1.
         22    1    3    3    0    0 -0.73364199340E+02  0.17601907814E+02  0.11655617077E+02  0.76341249092E+02  0.00000000000E+00 0. -1.
</event>
<event>
 7    1  0.6058736E-006  0.8116066E+02  0.7818608E-02  0.1495092E+00
          2   -1    0    0  502    0  0.00000000000E+00  0.00000000000E+00  0.26155508715E+03  0.26155508715E+03  0.00000000000E+00 0. -1.
          1   -1    0    0  501    0 -0.00000000000E+00 -0.00000000000E+00 -0.31484973660E+03  0.31484973660E+03  0.00000000000E+00 0. -1.
         25    2    1    2    0    0  0.68639920071E+02  0.62074794833E+02  0.19212592865E+02  0.15669678205E+03  0.12498015442E+03 0.  0.
          2    1    1    2  501    0  0.18094305123E+00 -0.21568594998E+02 -0.23640709046E+03  0.23738902555E+03  0.00000000000E+00 0. -1.
          1    1    1    2  502    0 -0.68820863122E+02 -0.40506199835E+02  0.16389984815E+03  0.18231901615E+03  0.00000000000E+00 0. -1.
         22    1    3    3    0    0  0.54724541078E+02  0.10061337972E+03  0.14828340980E+02  0.11548899199E+03  0.00000000000E+00 0.  1.
         22    1    3    3    0    0  0.13915378993E+02 -0.38538584882E+02  0.43842518847E+01  0.41207790063E+02  0.00000000000E+00 0.  1.
</event>
<event>
 7    1  0.6058736E-006  0.7146246E+02  0.7818608E-02  0.1413396E+00
          2   -1    0    0  502    0  0.00000000000E+00  0.00000000000E+00  0.90245135444E+02  0.90245135444E+02  0.00000000000E+00 0. -1.
          1   -1    0    0  501    0 -0.00000000000E+00 -0.00000000000E+00 -0.21223036627E+03  0.21223036627E+03  0.00000000000E+00 0. -1.
         25    2    1    2    0    0 -0.77890191109E+00  0.50298485416E+02 -0.21398068856E+02  0.13643207823E+03  0.12500116118E+03 0.  0.
          2    1    1    2  501    0 -0.40457218729E+02 -0.67238396492E+02 -0.91510829254E+02  0.12054882986E+03  0.00000000000E+00 0. -1.
          1    1    1    2  502    0  0.41236120641E+02  0.16939911076E+02 -0.90763327133E+01  0.45494593616E+02  0.00000000000E+00 0. -1.
         22    1    3    3    0    0 -0.21595931169E+02 -0.30946779232E+02 -0.34996650265E+02  0.51467008051E+02  0.00000000000E+00 0. -1.
         22    1    3    3    0    0  0.20817029258E+02  0.81245264648E+02  0.13598581410E+02  0.84965070183E+02  0.00000000000E+00 0. -1.
</event>
<event>
 7    1  0.6058736E-006  0.1106783E+03  0.7818608E-02  0.1304080E+00
          2   -1    0    0  502    0  0.00000000000E+00  0.00000000000E+00  0.16729765617E+03  0.16729765617E+03  0.00000000000E+00 0. -1.
          1   -1    0    0  501    0 -0.00000000000E+00 -0.00000000000E+00 -0.33679183991E+04  0.33679183991E+04  0.00000000000E+00 0. -1.
         25    2    1    2    0    0  0.15831597107E+03 -0.34572288042E+02 -0.66318738873E+03  0.69404710051E+03  0.12499870143E+03 0.  0.
          2    1    1    2  501    0 -0.67374046729E+02 -0.26410840811E+02 -0.26690102510E+04  0.26699911076E+04  0.00000000000E+00 0. -1.
          1    1    1    2  502    0 -0.90941924338E+02  0.60983128853E+02  0.13157689677E+03  0.17117784720E+03  0.00000000000E+00 0. -1.
         22    1    3    3    0    0  0.12983318279E+03  0.23378843002E+02 -0.34474407108E+03  0.36912287953E+03  0.00000000000E+00 0. -1.
         22    1    3    3    0    0  0.28482788274E+02 -0.57951131044E+02 -0.31844331765E+03  0.32492422097E+03  0.00000000000E+00 0. -1.
</event>
<event>
 7    1  0.6058736E-006  0.5534938E+02  0.7818608E-02  0.1555177E+00
          2   -1    0    0  502    0  0.00000000000E+00  0.00000000000E+00  0.10966688583E+04  0.10966688583E+04  0.00000000000E+00 0. -1.
          1   -1    0    0  501    0 -0.00000000000E+00 -0.00000000000E+00 -0.13593748300E+04  0.13593748300E+04  0.00000000000E+00 0. -1.
         25    2    1    2    0    0  0.46476681127E+02 -0.54933008614E+02 -0.11606189406E+04  0.11695462784E+04  0.12499781826E+03 0.  0.
          2    1    1    2  501    0 -0.27271948590E+01  0.21042980526E+02 -0.19300940680E+03  0.19417228364E+03  0.00000000000E+00 0. -1.
          1    1    1    2  502    0 -0.43749486268E+02  0.33890028089E+02  0.10909223757E+04  0.10923251262E+04  0.00000000000E+00 0. -1.
         22    1    3    3    0    0  0.66942982795E+02  0.17297012825E+02 -0.56471777728E+03  0.56893472172E+03  0.00000000000E+00 0. -1.
         22    1    3    3    0    0 -0.20466301667E+02 -0.72230021439E+02 -0.59590116333E+03  0.60061155663E+03  0.00000000000E+00 0. -1.
</event>
<event>
 7    1  0.6058736E-006  0.9402851E+02  0.7818608E-02  0.1391607E+00
          2   -1    0    0  502    0  0.00000000000E+00  0.00000000000E+00  0.21433788323E+03  0.21433788323E+03  0.00000000000E+00 0. -1.
          1   -1    0    0  501    0 -0.00000000000E+00 -0.00000000000E+00 -0.50156648094E+03  0.50156648094E+03  0.00000000000E+00 0. -1.
         25    2    1    2    0    0  0.38847054300E+02  0.46622114153E+02 -0.18685687920E+03  0.23285944279E+03  0.12500124653E+03 0.  0.
          2    1    1    2  501    0  0.39086993385E+02  0.95465022765E+01 -0.27811052259E+03  0.28100603469E+03  0.00000000000E+00 0. -1.
          1    1    1    2  502    0 -0.77934047685E+02 -0.56168616429E+02  0.17773880408E+03  0.20203888670E+03  0.00000000000E+00 0. -1.
         22    1    3    3    0    0 -0.10326640564E+02  0.60586993163E+02 -0.16712014615E+03  0.17806337775E+03  0.00000000000E+00 0.  1.
         22    1    3    3    0    0  0.49173694863E+02 -0.13964879010E+02 -0.19736733052E+02  0.54796065040E+02  0.00000000000E+00 0.  1.
</event>
<event>
 7    1  0.6058736E-006  0.1039939E+03  0.7818608E-02  0.1370362E+00
          2   -1    0    0  502    0  0.00000000000E+00  0.00000000000E+00  0.95182607103E+03  0.95182607103E+03  0.00000000000E+00 0. -1.
          1   -1    0    0  501    0 -0.00000000000E+00 -0.00000000000E+00 -0.23253370553E+04  0.23253370553E+04  0.00000000000E+00 0. -1.
         25    2    1    2    0    0 -0.13412989536E+03  0.40869108362E+02  0.17373322841E+03  0.25587246121E+03  0.12500547550E+03 0.  0.
          2    1    1    2  501    0  0.43139646887E+02  0.31151103604E+01 -0.22805968653E+04  0.22810069695E+04  0.00000000000E+00 0. -1.
          1    1    1    2  502    0  0.90990248477E+02 -0.43984218723E+02  0.73335265263E+03  0.74028369558E+03  0.00000000000E+00 0. -1.
         22    1    3    3    0    0 -0.70874041185E+02  0.74032090211E+02  0.14786369256E+03  0.17990984318E+03  0.00000000000E+00 0. -1.
         22    1    3    3    0    0 -0.63255854179E+02 -0.33162981849E+02  0.25869535842E+02  0.75962618028E+02  0.00000000000E+00 0. -1.
</event>
<event>
 7    1  0.6058736E-006  0.8020806E+02  0.7818608E-02  0.1356214E+00
          2   -1    0    0  502    0  0.00000000000E+00  0.00000000000E+00  0.34981005308E+03  0.34981005308E+03  0.00000000000E+00 0. -1.
          1   -1    0    0  501    0 -0.00000000000E+00 -0.00000000000E+00 -0.65192341994E+03  0.65192341994E+03  0.00000000000E+00 0. -1.
         25    2    1    2    0    0 -0.87212280799E+02  0.31699528052E+02 -0.27863176874E+03  0.31917417243E+03  0.12500259115E+03 0.  0.
          2    1    1    2  501    0  0.38645357864E+02 -0.72017146790E+02 -0.34518142072E+03  0.35472545204E+03  0.00000000000E+00 0. -1.
          1    1    1    2  502    0  0.48566922935E+02  0.40317618738E+02  0.32169982260E+03  0.32783384854E+03  0.00000000000E+00 0. -1.
         22    1    3    3    0    0 -0.43466202796E+02  0.79258894001E+02 -0.14773496019E+03  0.17319613600E+03  0.00000000000E+00 0.  1.
         22    1    3    3    0    0 -0.43746078003E+02 -0.47559365949E+02 -0.13089680855E+03  0.14597803643E+03  0.00000000000E+00 0.  1.
</event>
<event>
 7    1  0.6058736E-006  0.1841352E+03  0.7818608E-02  0.1234649E+00
          2   -1    0    0  502    0  0.00000000000E+00  0.00000000000E+00  0.23596187836E+04  0.23596187836E+04  0.00000000000E+00 0. -1.
          1   -1    0    0  501    0 -0.00000000000E+00 -0.00000000000E+00 -0.10100253473E+04  0.10100253473E+04  0.00000000000E+00 0. -1.
         25    2    1    2    0    0 -0.18265556390E+03 -0.34768594544E+02 -0.39076593044E+03  0.45043143811E+03  0.12497422877E+03 0.  0.
          2    1    1    2  501    0  0.53594636247E+01  0.85053421310E+02 -0.58267778635E+03  0.58887707633E+03  0.00000000000E+00 0. -1.
          1    1    1    2  502    0  0.17729610027E+03 -0.50284826766E+02  0.23230371531E+04  0.23303356165E+04  0.00000000000E+00 0. -1.
         22    1    3    3    0    0 -0.15999732946E+03  0.51820309550E+01 -0.21077809006E+03  0.26467603240E+03  0.00000000000E+00 0.  1.
         22    1    3    3    0    0 -0.22658234440E+02 -0.39950625499E+02 -0.17998784038E+03  0.18575540571E+03  0.00000000000E+00 0.  1.
</event>
<event>
 7    1  0.6058736E-006  0.4708498E+02  0.7818608E-02  0.1491918E+00
          2   -1    0    0  502    0  0.00000000000E+00  0.00000000000E+00  0.36272151458E+02  0.36272151458E+02  0.00000000000E+00 0. -1.
          1   -1    0    0  501    0 -0.00000000000E+00 -0.00000000000E+00 -0.40074872582E+04  0.40074872582E+04  0.00000000000E+00 0. -1.
         25    2    1    2    0    0 -0.47714781816E+02  0.63740402728E+02 -0.74832039360E+03  0.76285508456E+03  0.12499971686E+03 0.  0.
          2    1    1    2  501    0  0.37708314120E+02 -0.27074940229E+02 -0.32392110095E+04  0.32395436304E+04  0.00000000000E+00 0. -1.
          1    1    1    2  502    0  0.10006467695E+02 -0.36665462500E+02  0.16316296370E+02  0.41360694666E+02  0.00000000000E+00 0. -1.
         22    1    3    3    0    0  0.30468790410E+02  0.10633098814E+01 -0.37766261083E+03  0.37889117888E+03  0.00000000000E+00 0.  1.
         22    1    3    3    0    0 -0.78183572226E+02  0.62677092847E+02 -0.37065778278E+03  0.38396390568E+03  0.00000000000E+00 0.  1.
</event>
<event>
 7    1  0.6058736E-006  0.6333460E+02  0.7818608E-02  0.1423040E+00
          2   -1    0    0  502    0  0.00000000000E+00  0.00000000000E+00  0.20782837090E+03  0.20782837090E+03  0.00000000000E+00 0. -1.
          1   -1    0    0  501    0 -0.00000000000E+00 -0.00000000000E+00 -0.10036039695E+04  0.10036039695E+04  0.00000000000E+00 0. -1.
         25    2    1    2    0    0 -0.18255385637E+02 -0.54964240597E+02 -0.13599229787E+03  0.19358346692E+03  0.12500530684E+03 0.  0.
          2    1    1    2  501    0  0.46629162298E+02 -0.25054261394E+01 -0.83240451435E+03  0.83371327892E+03  0.00000000000E+00 0. -1.
          1    1    1    2  502    0 -0.28373776662E+02  0.57469666736E+02  0.17262121361E+03  0.18413559456E+03  0.00000000000E+00 0. -1.
         22    1    3    3    0    0  0.10472065449E+02  0.38077234660E+02 -0.49659274703E+02  0.63447486303E+02  0.00000000000E+00 0. -1.
         22    1    3    3    0    0 -0.28727451086E+02 -0.93041475257E+02 -0.86333023163E+02  0.13013598062E+03  0.00000000000E+00 0. -1.
</event>
<event>
 7    1  0.6058736E-006  0.7719787E+02  0.7818608E-02  0.1383593E+00
          2   -1    0    0  502    0  0.00000000000E+00  0.00000000000E+00  0.12094924401E+04  0.12094924401E+04  0.00000000000E+00 0. -1.
          1   -1    0    0  501    0 -0.00000000000E+00 -0.00000000000E+00 -0.59258582010E+03  0.59258582010E+03  0.00000000000E+00 0. -1.
         25    2    1    2    0    0  0.45294627327E+02  0.66559095561E+02 -0.33925240460E+03  0.37040248976E+03  0.12499637563E+03 0.  0.
          2    1    1    2  501    0  0.28527947949E+02 -0.43810246497E+02 -0.23361669735E+03  0.23939495147E+03  0.00000000000E+00 0. -1.
          1    1    1    2  502    0 -0.73822575276E+02 -0.22748849063E+02  0.11897757219E+04  0.11922808190E+04  0.00000000000E+00 0. -1.
         22    1    3    3    0    0  0.33282806646E+02  0.38900846187E+02 -0.29301241140E+02  0.58987996954E+02  0.00000000000E+00 0. -1.
         22    1    3    3    0    0  0.12011820681E+02  0.27658249373E+02 -0.30995116346E+03  0.31141449280E+03  0.00000000000E+00 0. -1.
</event>
<event>
 7    1  0.6058736E-006  0.1115775E+03  0.7818608E-02  0.1299476E+00
          2   -1    0    0  502    0  0.00000000000E+00  0.00000000000E+00  0.35543641021E+04  0.35543641021E+04  0.00000000000E+00 0. -1.
          1   -1    0    0  501    0 -0.00000000000E+00 -0.00000000000E+00 -0.96728060280E+03  0.96728060280E+03  0.00000000000E+00 0. -1.
         25    2    1    2    0    0 -0.31516663751E+02 -0.17215490693E+03  0.12810158741E+04  0.12989451270E+04  0.12500464409E+03 0.  0.
          2    1    1    2  501    0 -0.35155403513E+01  0.74803001648E+02 -0.95566861022E+03  0.95859811216E+03  0.00000000000E+00 0. -1.
          1    1    1    2  502    0  0.35032204103E+02  0.97351905282E+02  0.22617362354E+04  0.22641014657E+04  0.00000000000E+00 0. -1.
         22    1    3    3    0    0  0.21655229908E+02 -0.88236205956E+02  0.31519161025E+03  0.32802488960E+03  0.00000000000E+00 0. -1.
         22    1    3    3    0    0 -0.53171893659E+02 -0.83918700975E+02  0.96582426388E+03  0.97092023738E+03  0.00000000000E+00 0. -1.
</event>
<event>
 7    1  0.6058736E-006  0.3072614E+02  0.7818608E-02  0.1618890E+00
          2   -1    0    0  502    0  0.00000000000E+00  0.00000000000E+00  0.18438639261E+04  0.18438639261E+04  0.00000000000E+00 0. -1.
          1   -1    0    0  501    0 -0.00000000000E+00 -0.00000000000E+00 -0.34830301395E+02  0.34830301395E+02  0.00000000000E+00 0. -1.
         25    2    1    2    0    0  0.41834347063E+02 -0.32986264669E+02  0.95728164672E+03  0.96687697366E+03  0.12499889915E+03 0.  0.
          2    1    1    2  501    0 -0.17115155715E+02  0.25321222076E+02 -0.22015469204E+02  0.37666612893E+02  0.00000000000E+00 0. -1.
          1    1    1    2  502    0 -0.24719191348E+02  0.76650425932E+01  0.87376744714E+03  0.87415064089E+03  0.00000000000E+00 0. -1.
         22    1    3    3    0    0  0.69172283455E+02 -0.59403191436E+02  0.51888064469E+03  0.52683077680E+03  0.00000000000E+00 0.  1.
         22    1    3    3    0    0 -0.27337936391E+02  0.26416926768E+02  0.43840100203E+03  0.44004619686E+03  0.00000000000E+00 0.  1.
</event>
<event>
 7    1  0.6566997E-006  0.5683105E+02  0.7818608E-02  0.1456886E+00
          2   -1    0    0  502    0  0.00000000000E+00  0.00000000000E+00  0.11135791420E+04  0.11135791420E+04  0.00000000000E+00 0. -1.
          1   -1    0    0  501    0 -0.00000000000E+00 -0.00000000000E+00 -0.83074995352E+03  0.83074995352E+03  0.00000000000E+00 0. -1.
         25    2    1    2    0    0 -0.86823349179E+02  0.39520546260E+02 -0.39528256125E+03  0.42540744049E+03  0.12499207837E+03 0.  0.
          2    1    1    2  501    0  0.32053496206E+02 -0.24605884568E+02 -0.41869828734E+03  0.42064371146E+03  0.00000000000E+00 0. -1.
          1    1    1    2  502    0  0.54769852973E+02 -0.14914661692E+02  0.10968100371E+04  0.10982779436E+04  0.00000000000E+00 0. -1.
         22    1    3    3    0    0 -0.21837225489E+01  0.41840946364E+01  0.93693463861E+01  0.10490945801E+02  0.00000000000E+00 0. -1.
         22    1    3    3    0    0 -0.84639626630E+02  0.35336451624E+02 -0.40465190763E+03  0.41491649468E+03  0.00000000000E+00 0. -1.
</event>
<event>
 7    1  0.6058736E-006  0.7120680E+02  0.7818608E-02  0.1368008E+00
          2   -1    0    0  502    0  0.00000000000E+00  0.00000000000E+00  0.11444197411E+04  0.11444197411E+04  0.00000000000E+00 0. -1.
          1   -1    0    0  501    0 -0.00000000000E+00 -0.00000000000E+00 -0.64465410816E+03  0.64465410816E+03  0.00000000000E+00 0. -1.
         25    2    1    2    0    0  0.39935190431E+02 -0.50887138202E+02 -0.45924516088E+02  0.14804785369E+03  0.12499914214E+03 0.  0.
          2    1    1    2  501    0  0.21733136655E+02  0.69484906201E+02 -0.54429338817E+03  0.54914094167E+03  0.00000000000E+00 0. -1.
          1    1    1    2  502    0 -0.61668327086E+02 -0.18597767999E+02  0.10899835372E+04  0.10918850539E+04  0.00000000000E+00 0. -1.
         22    1    3    3    0    0 -0.27930060384E+02  0.25844833318E+02 -0.85247137242E+01  0.38996338627E+02  0.00000000000E+00 0. -1.
         22    1    3    3    0    0  0.67865250815E+02 -0.76731971520E+02 -0.37399802364E+02  0.10905151507E+03  0.00000000000E+00 0. -1.
</event>
<event>
 7    1  0.6058736E-006  0.9690622E+02  0.7818608E-02  0.1397149E+00
          2   -1    0    0  502    0  0.00000000000E+00  0.00000000000E+00  0.12018698642E+04  0.12018698642E+04  0.00000000000E+00 0. -1.
          1   -1    0    0  501    0 -0.00000000000E+00 -0.00000000000E+00 -0.10307226875E+04  0.10307226875E+04  0.00000000000E+00 0. -1.
         25    2    1    2    0    0 -0.70496115522E+02  0.24583523165E+02  0.96363764848E+02  0.17459302661E+03  0.12499079106E+03 0.  0.
          2    1    1    2  501    0  0.75409152131E+02 -0.61610444943E+02 -0.98888880372E+03  0.99367170297E+03  0.00000000000E+00 0. -1.
          1    1    1    2  502    0 -0.49130366092E+01  0.37026921778E+02  0.10636722155E+04  0.10643278221E+04  0.00000000000E+00 0. -1.
         22    1    3    3    0    0 -0.14875012935E+02  0.60074573524E+02  0.88718224606E+02  0.10817182522E+03  0.00000000000E+00 0. -1.
         22    1    3    3    0    0 -0.55621102587E+02 -0.35491050359E+02  0.76455402423E+01  0.66421201390E+02  0.00000000000E+00 0. -1.
</event>
<event>
 7    1  0.6058736E-006  0.2910461E+02  0.7818608E-02  0.1609977E+00
          2   -1    0    0  502    0  0.00000000000E+00  0.00000000000E+00  0.96644779071E+03  0.96644779071E+03  0.00000000000E+00 0. -1.
          1   -1    0    0  501    0 -0.00000000000E+00 -0.00000000000E+00 -0.18210342377E+03  0.18210342377E+03  0.00000000000E+00 0. -1.
         25    2    1    2    0    0 -0.28793957148E+02 -0.19050970455E+02  0.27100801334E+03  0.30043506488E+03  0.12499541379E+03 0.  0.
          2    1    1    2  501    0  0.17996793387E+01  0.29085690331E+02 -0.16581409505E+03  0.16835536922E+03  0.00000000000E+00 0. -1.
          1    1    1    2  502    0  0.26994277809E+02 -0.10034719876E+02  0.67915044865E+03  0.67976078038E+03  0.00000000000E+00 0. -1.
         22    1    3    3    0    0 -0.11536083890E+02  0.52008964625E+02  0.14844742869E+03  0.15771700199E+03  0.00000000000E+00 0. -1.
         22    1    3    3    0    0 -0.17257873258E+02 -0.71059935081E+02  0.12256058466E+03  0.14271806289E+03  0.00000000000E+00 0. -1.
</event>
<event>
 7    1  0.6058736E-006  0.7201420E+02  0.7818608E-02  0.1366715E+00
          2   -1    0    0  502    0  0.00000000000E+00  0.00000000000E+00  0.21195277839E+03  0.21195277839E+03  0.00000000000E+00 0. -1.
          1   -1    0    0  501    0 -0.00000000000E+00 -0.00000000000E+00 -0.28533874826E+04  0.28533874826E+04  0.00000000000E+00 0. -1.
         25    2    1    2    0    0  0.76183238397E+02 -0.31149998657E+02 -0.17996021429E+03  0.23406914732E+03  0.12501391431E+03 0.  0.
          2    1    1    2  501    0 -0.23645103067E+02  0.68354858304E+02 -0.26402587899E+04  0.26412493171E+04  0.00000000000E+00 0. -1.
          1    1    1    2  502    0 -0.52538135330E+02 -0.37204859647E+02  0.17878429998E+03  0.19002179655E+03  0.00000000000E+00 0. -1.
         22    1    3    3    0    0 -0.21522754163E+02 -0.37686977594E+02 -0.23132809343E+02  0.49179915566E+02  0.00000000000E+00 0. -1.
         22    1    3    3    0    0  0.97705992560E+02  0.65369789374E+01 -0.15682740494E+03  0.18488923175E+03  0.00000000000E+00 0. -1.
</event>
<event>
 7    1  0.6058736E-006  0.2879250E+02  0.7818608E-02  0.1657188E+00
          2   -1    0    0  502    0  0.00000000000E+00  0.00000000000E+00  0.21100189174E+03  0.21100189174E+03  0.00000000000E+00 0. -1.
          1   -1    0    0  501    0 -0.00000000000E+00 -0.00000000000E+00 -0.81130952881E+03  0.81130952881E+03  0.00000000000E+00 0. -1.
         25    2    1    2    0    0 -0.32996763082E+02 -0.35528952732E+02 -0.39318243777E+03  0.41541394265E+03  0.12500088610E+03 0.  0.
          2    1    1    2  501    0  0.13868392656E+02  0.24312858602E+02 -0.40591293339E+03  0.40687683259E+03  0.00000000000E+00 0. -1.
          1    1    1    2  502    0  0.19128370426E+02  0.11216094130E+02  0.19878773408E+03  0.20002064530E+03  0.00000000000E+00 0. -1.
         22    1    3    3    0    0 -0.65722844760E+02 -0.50588611136E+02 -0.34736977558E+03  0.35713367370E+03  0.00000000000E+00 0.  1.
         22    1    3    3    0    0  0.32726081678E+02  0.15059658404E+02 -0.45812662186E+02  0.58280268958E+02  0.00000000000E+00 0.  1.
</event>
<event>
 7    1  0.6058736E-006  0.1583527E+03  0.7818608E-02  0.1381998E+00
          2   -1    0    0  502    0  0.00000000000E+00  0.00000000000E+00  0.35122686640E+03  0.35122686640E+03  0.00000000000E+00 0. -1.
          1   -1    0    0  501    0 -0.00000000000E+00 -0.00000000000E+00 -0.37129671234E+03  0.37129671234E+03  0.00000000000E+00 0. -1.
         25    2    1    2    0    0 -0.17418604882E+03 -0.13637308158E+02 -0.11710031456E+03  0.24467325176E+03  0.12500304269E+03 0.  0.
          2    1    1    2  501    0  0.20443235292E+02 -0.15770105011E+02 -0.16804040694E+03  0.17001235380E+03  0.00000000000E+00 0. -1.
          1    1    1    2  502    0  0.15374281353E+03  0.29407413168E+02  0.26507087556E+03  0.30783797318E+03  0.00000000000E+00 0. -1.
         22    1    3    3    0    0 -0.35182549820E+02  0.14310727285E+02  0.23768402477E+02  0.44805643434E+02  0.00000000000E+00 0.  1.
         22    1    3    3    0    0 -0.13900349900E+03 -0.27948035443E+02 -0.14086871703E+03  0.19986760833E+03  0.00000000000E+00 0.  1.
</event>
<event>
 7    1  0.6058736E-006  0.1055722E+03  0.7818608E-02  0.1356401E+00
          2   -1    0    0  502    0  0.00000000000E+00  0.00000000000E+00  0.45353083793E+03  0.45353083793E+03  0.00000000000E+00 0. -1.
          1   -1    0    0  501    0 -0.00000000000E+00 -0.00000000000E+00 -0.39069742254E+03  0.39069742254E+03  0.00000000000E+00 0. -1.
         25    2    1    2    0    0 -0.18920950844E+02  0.96810521941E+02 -0.25895309298E+03  0.30399323512E+03  0.12499961236E+03 0.  0.
          2    1    1    2  501    0 -0.23632932890E+02 -0.11875752241E+03 -0.73772042541E+02  0.14178920589E+03  0.00000000000E+00 0. -1.
          1    1    1    2  502    0  0.42553883733E+02  0.21947000470E+02  0.39555855091E+03  0.39844581947E+03  0.00000000000E+00 0. -1.
         22    1    3    3    0    0  0.48539121367E+02  0.30534409183E+02 -0.56309024358E+02  0.80368542797E+02  0.00000000000E+00 0. -1.
         22    1    3    3    0    0 -0.67460072211E+02  0.66276112758E+02 -0.20264406863E+03  0.22362469232E+03  0.00000000000E+00 0. -1.
</event>
<event>
 7    1  0.6058736E-006  0.1509083E+03  0.7818608E-02  0.1240952E+00
          2   -1    0    0  502    0  0.00000000000E+00  0.00000000000E+00  0.31813768417E+03  0.31813768417E+03  0.00000000000E+00 0. -1.
          1   -1    0    0  501    0 -0.00000000000E+00 -0.00000000000E+00 -0.98830069029E+03  0.98830069029E+03  0.00000000000E+00 0. -1.
         25    2    1    2    0    0  0.13984472129E+03 -0.13716962192E+03 -0.18301515316E+03  0.29578977473E+03  0.12499997319E+03 0.  0.
          2    1    1    2  501    0 -0.97361361709E+02 -0.54958663047E+01 -0.72419910031E+03  0.73073509303E+03  0.00000000000E+00 0. -1.
          1    1    1    2  502    0 -0.42483359578E+02  0.14266548823E+03  0.23705124734E+03  0.27991350670E+03  0.00000000000E+00 0. -1.
         22    1    3    3    0    0 -0.36706396527E+01  0.19458087510E+02 -0.18519702666E+02  0.27112177188E+02  0.00000000000E+00 0. -1.
         22    1    3    3    0    0  0.14351536094E+03 -0.15662770943E+03 -0.16449545049E+03  0.26867759754E+03  0.00000000000E+00 0. -1.
</event>
<event>
 7    1  0.6058736E-006  0.7369760E+02  0.7818608E-02  0.1392963E+00
          2   -1    0    0  502    0  0.00000000000E+00  0.00000000000E+00  0.48101554590E+02  0.48101554590E+02  0.00000000000E+00 0. -1.
          1   -1    0    0  501    0 -0.00000000000E+00 -0.00000000000E+00 -0.61219764497E+03  0.61219764497E+03  0.00000000000E+00 0. -1.
         25    2    1    2    0    0  0.18483158577E+02  0.65941962204E+02 -0.20819119115E+03  0.25230991213E+03  0.12500700043E+03 0.  0.
          2    1    1    2  501    0  0.32099316135E+02 -0.70430250685E+02 -0.34811287121E+03  0.35661373699E+03  0.00000000000E+00 0. -1.
          1    1    1    2  502    0 -0.50582474712E+02  0.44882884807E+01 -0.77920280142E+01  0.51375550431E+02  0.00000000000E+00 0. -1.
         22    1    3    3    0    0  0.32808260298E+02  0.26561829430E+02 -0.23840730009E+01  0.42279977892E+02  0.00000000000E+00 0.  1.
         22    1    3    3    0    0 -0.14325101721E+02  0.39380132774E+02 -0.20580711815E+03  0.21002993424E+03  0.00000000000E+00 0.  1.
</event>
<event>
 7    1  0.6058736E-006  0.1210218E+03  0.7818608E-02  0.1241500E+00
          2   -1    0    0  502    0  0.00000000000E+00  0.00000000000E+00  0.41076279898E+03  0.41076279898E+03  0.00000000000E+00 0. -1.
          1   -1    0    0  501    0 -0.00000000000E+00 -0.00000000000E+00 -0.57509299995E+03  0.57509299995E+03  0.00000000000E+00 0. -1.
         25    2    1    2    0    0 -0.47602120947E+02  0.11271277659E+02  0.68159594662E+02  0.15054748130E+03  0.12500324061E+03 0.  0.
          2    1    1    2  501    0  0.14335850244E+02 -0.12763119984E+03 -0.51351479195E+03  0.52933229764E+03  0.00000000000E+00 0. -1.
          1    1    1    2  502    0  0.33266270703E+02  0.11635992218E+03  0.28102499631E+03  0.30597601999E+03  0.00000000000E+00 0. -1.
         22    1    3    3    0    0  0.18546970303E+02  0.39266987563E+02 -0.98242453201E+01  0.44524175634E+02  0.00000000000E+00 0. -1.
         22    1    3    3    0    0 -0.66149091251E+02 -0.27995709904E+02  0.77983839982E+02  0.10602330567E+03  0.00000000000E+00 0. -1.
</event>
<event>
 7    1  0.6058736E-006  0.1598119E+03  0.7818608E-02  0.1251545E+00
          2   -1    0    0  502    0  0.00000000000E+00  0.00000000000E+00  0.85423357714E+03  0.85423357714E+03  0.00000000000E+00 0. -1.
          1   -1    0    0  501    0 -0.00000000000E+00 -0.00000000000E+00 -0.98147011213E+03  0.98147011213E+03  0.00000000000E+00 0. -1.
         25    2    1    2    0    0  0.15753512988E+02  0.13568336380E+03 -0.52483723966E+03  0.55653905244E+03  0.12499376132E+03 0.  0.
          2    1    1    2  501    0  0.43711354754E+02 -0.19327687059E+03 -0.41630478524E+03  0.46105998032E+03  0.00000000000E+00 0. -1.
          1    1    1    2  502    0 -0.59464867742E+02  0.57593506787E+02  0.81390548991E+03  0.81810465652E+03  0.00000000000E+00 0. -1.
         22    1    3    3    0    0  0.66087500617E+02  0.10574848284E+03 -0.31816602204E+03  0.34173076675E+03  0.00000000000E+00 0.  1.
         22    1    3    3    0    0 -0.50333987629E+02  0.29934880962E+02 -0.20667121762E+03  0.21480828569E+03  0.00000000000E+00 0.  1.
</event>
<event>
 7    1  0.6058736E-006  0.4350149E+02  0.7818608E-02  0.1506578E+00
          2   -1    0    0  502    0  0.00000000000E+00  0.00000000000E+00  0.90469677287E+01  0.90469677287E+01  0.00000000000E+00 0. -1.
          1   -1    0    0  501    0 -0.00000000000E+00 -0.00000000000E+00 -0.23195942737E+04  0.23195942737E+04  0.00000000000E+00 0. -1.
         25    2    1    2    0    0 -0.84292767931E+01  0.10973753843E+02 -0.75192942707E+03  0.76237666774E+03  0.12501537598E+03 0.  0.
          2    1    1    2  501    0 -0.30277877319E+02  0.21597100970E+02 -0.13831521227E+04  0.13836520441E+04  0.00000000000E+00 0. -1.
          1    1    1    2  502    0  0.38707154112E+02 -0.32570854813E+02 -0.17546575612E+03  0.18261252951E+03  0.00000000000E+00 0. -1.
         22    1    3    3    0    0 -0.50730498899E+02  0.47106414663E+02 -0.37061051405E+03  0.37702088927E+03  0.00000000000E+00 0.  1.
         22    1    3    3    0    0  0.42301222106E+02 -0.36132660821E+02 -0.38131891302E+03  0.38535577847E+03  0.00000000000E+00 0.  1.
</event>
<event>
 7    1  0.6058736E-006  0.1153117E+03  0.7818608E-02  0.1298807E+00
          2   -1    0    0  502    0  0.00000000000E+00  0.00000000000E+00  0.79266095568E+03  0.79266095568E+03  0.00000000000E+00 0. -1.
          1   -1    0    0  501    0 -0.00000000000E+00 -0.00000000000E+00 -0.13356235344E+04  0.13356235344E+04  0.00000000000E+00 0. -1.
         25    2    1    2    0    0  0.57864335252E+02 -0.81479019628E+02  0.14189013176E+03  0.21387937940E+03  0.12499787001E+03 0.  0.
          2    1    1    2  501    0  0.57329607794E+02  0.45044748270E+02 -0.12926557905E+04  0.12947102788E+04  0.00000000000E+00 0. -1.
          1    1    1    2  502    0 -0.11519394305E+03  0.36434271358E+02  0.60780308000E+03  0.61969483192E+03  0.00000000000E+00 0. -1.
         22    1    3    3    0    0  0.47361066657E+02 -0.43841230524E+02  0.15871546896E+03  0.17133512254E+03  0.00000000000E+00 0. -1.
         22    1    3    3    0    0  0.10503268595E+02 -0.37637789104E+02 -0.16825337199E+02  0.42544256859E+02  0.00000000000E+00 0. -1.
</event>
<event>
 7    1  0.6058736E-006  0.8209737E+02  0.7818608E-02  0.1346465E+00
          2   -1    0    0  502    0  0.00000000000E+00  0.00000000000E+00  0.58246267977E+03  0.58246267977E+03  0.00000000000E+00 0. -1.
          1   -1    0    0  501    0 -0.00000000000E+00 -0.00000000000E+00 -0.19320350071E+03  0.19320350071E+03  0.00000000000E+00 0. -1.
         25    2    1    2    0    0  0.85683105991E+01  0.43094816609E+02  0.13234326861E+03  0.18727101406E+03  0.12500045118E+03 0.  0.
          2    1    1    2  501    0  0.54153517379E+02 -0.66668793625E+02 -0.15169672757E+03  0.17432506602E+03  0.00000000000E+00 0. -1.
          1    1    1    2  502    0 -0.62721827978E+02  0.23573977016E+02  0.40861263802E+03  0.41407010040E+03  0.00000000000E+00 0. -1.
         22    1    3    3    0    0 -0.73386611645E+01 -0.40311757780E+02  0.72885494726E+02  0.83613330901E+02  0.00000000000E+00 0. -1.
         22    1    3    3    0    0  0.15906971764E+02  0.83406574389E+02  0.59457773881E+02  0.10365768315E+03  0.00000000000E+00 0. -1.
</event>
<event>
 7    1  0.6058736E-006  0.1629154E+03  0.7818608E-02  0.1290818E+00
          2   -1    0    0  502    0  0.00000000000E+00  0.00000000000E+00  0.29603924983E+03  0.29603924983E+03  0.00000000000E+00 0. -1.
          1   -1    0    0  501    0 -0.00000000000E+00 -0.00000000000E+00 -0.80292259728E+03  0.80292259728E+03  0.00000000000E+00 0. -1.
         25    2    1    2    0    0 -0.20048334162E+03 -0.29266245357E+02 -0.12131057048E+03  0.26719217754E+03  0.12500128735E+03 0.  0.
          2    1    1    2  501    0  0.42991550883E+02  0.35229912307E+02 -0.57933978738E+03  0.58200000809E+03  0.00000000000E+00 0. -1.
          1    1    1    2  502    0  0.15749179074E+03 -0.59636669508E+01  0.19376701042E+03  0.24976966149E+03  0.00000000000E+00 0. -1.
         22    1    3    3    0    0 -0.13475865945E+03 -0.78418386493E+02 -0.76163856339E+02  0.17352311849E+03  0.00000000000E+00 0.  1.
         22    1    3    3    0    0 -0.65724682171E+02  0.49152141136E+02 -0.45146714146E+02  0.93669059048E+02  0.00000000000E+00 0.  1.
</event>
<event>
 7    1  0.6058736E-006  0.9279416E+02  0.7818608E-02  0.1402839E+00
          2   -1    0    0  502    0  0.00000000000E+00  0.00000000000E+00  0.16382773194E+04  0.16382773194E+04  0.00000000000E+00 0. -1.
          1   -1    0    0  501    0 -0.00000000000E+00 -0.00000000000E+00 -0.38023995773E+03  0.38023995773E+03  0.00000000000E+00 0. -1.
         25    2    1    2    0    0 -0.87091911807E+02 -0.18659594061E+02 -0.47802365405E+02  0.16075698790E+03  0.12499824586E+03 0.  0.
          2    1    1    2  501    0 -0.40046106769E+01  0.37072582159E+02 -0.27332815098E+03  0.27585991259E+03  0.00000000000E+00 0. -1.
          1    1    1    2  502    0  0.91096522484E+02 -0.18412988099E+02  0.15791678780E+04  0.15819003766E+04  0.00000000000E+00 0. -1.
         22    1    3    3    0    0 -0.17515382537E+01  0.46223481339E+02 -0.13101243541E+02  0.48076196768E+02  0.00000000000E+00 0.  1.
         22    1    3    3    0    0 -0.85340373554E+02 -0.64883075400E+02 -0.34701121863E+02  0.11268079113E+03  0.00000000000E+00 0.  1.
</event>
<event>
 7    1  0.6058736E-006  0.6278988E+02  0.7818608E-02  0.1429982E+00
          2   -1    0    0  502    0  0.00000000000E+00  0.00000000000E+00  0.22208444632E+03  0.22208444632E+03  0.00000000000E+00 0. -1.
          1   -1    0    0  501    0 -0.00000000000E+00 -0.00000000000E+00 -0.39001291387E+03  0.39001291387E+03  0.00000000000E+00 0. -1.
         25    2    1    2    0    0  0.33266857244E+02 -0.81861239796E+02 -0.14838465660E+03  0.21319220290E+03  0.12499985077E+03 0.  0.
          2    1    1    2  501    0 -0.46126061470E+02  0.39076806661E+02 -0.20210730513E+03  0.21095490786E+03  0.00000000000E+00 0. -1.
          1    1    1    2  502    0  0.12859204226E+02  0.42784433135E+02  0.18256349417E+03  0.18795024942E+03  0.00000000000E+00 0. -1.
         22    1    3    3    0    0  0.35200537962E+01 -0.37665559120E+02 -0.15496281193E+03  0.15951350477E+03  0.00000000000E+00 0.  1.
         22    1    3    3    0    0  0.29746803447E+02 -0.44195680676E+02  0.65781553301E+01  0.53678698134E+02  0.00000000000E+00 0.  1.
</event>
<event>
 7    1  0.6058736E-006  0.1077410E+03  0.7818608E-02  0.1351174E+00
          2   -1    0    0  502    0  0.00000000000E+00  0.00000000000E+00  0.74129413565E+02  0.74129413565E+02  0.00000000000E+00 0. -1.
          1   -1    0    0  501    0 -0.00000000000E+00 -0.00000000000E+00 -0.53418935145E+03  0.53418935145E+03  0.00000000000E+00 0. -1.
         25    2    1    2    0    0  0.98324957310E+02 -0.10179566399E+03 -0.22864827954E+03  0.29654245522E+03  0.12500894998E+03 0.  0.
          2    1    1    2  501    0 -0.52886840325E+02  0.83339091384E+02 -0.24221756717E+03  0.26155644109E+03  0.00000000000E+00 0. -1.
          1    1    1    2  502    0 -0.45438116986E+02  0.18456572609E+02  0.10805908814E+02  0.50219868707E+02  0.00000000000E+00 0. -1.
         22    1    3    3    0    0  0.69172293218E+02 -0.93805884292E+02 -0.71985208024E+02  0.13698985455E+03  0.00000000000E+00 0. -1.
         22    1    3    3    0    0  0.29152664093E+02 -0.79897797012E+01 -0.15666307151E+03  0.15955260066E+03  0.00000000000E+00 0. -1.
</event>
<event>
 7    1  0.6058736E-006  0.6809411E+02  0.7818608E-02  0.1409092E+00
          2   -1    0    0  502    0  0.00000000000E+00  0.00000000000E+00  0.17053289051E+03  0.17053289051E+03  0.00000000000E+00 0. -1.
          1   -1    0    0  501    0 -0.00000000000E+00 -0.00000000000E+00 -0.14199743888E+04  0.14199743888E+04  0.00000000000E+00 0. -1.
         25    2    1    2    0    0  0.96597692637E+02 -0.33492625545E+01  0.67832492025E+02  0.17195726530E+03  0.12500288930E+03 0.  0.
          2    1    1    2  501    0 -0.40878475410E+02  0.25876818486E+02 -0.13494914914E+04  0.13503584505E+04  0.00000000000E+00 0. -1.
          1    1    1    2  502    0 -0.55719217227E+02 -0.22527555932E+02  0.32217501148E+02  0.68191563443E+02  0.00000000000E+00 0. -1.
         22    1    3    3    0    0 -0.24174329452E+02 -0.82069641670E+01  0.40756531843E+02  0.48092071625E+02  0.00000000000E+00 0.  1.
         22    1    3    3    0    0  0.12077202209E+03  0.48577016126E+01  0.27075960181E+02  0.12386519367E+03  0.00000000000E+00 0.  1.
</event>
<event>
 7    1  0.6058736E-006  0.3975673E+02  0.7818608E-02  0.1573089E+00
          2   -1    0    0  502    0  0.00000000000E+00  0.00000000000E+00  0.19828006519E+04  0.19828006519E+04  0.00000000000E+00 0. -1.
          1   -1    0    0  501    0 -0.00000000000E+00 -0.00000000000E+00 -0.22295559673E+02  0.22295559673E+02  0.00000000000E+00 0. -1.
         25    2    1    2    0    0  0.21505122380E+02  0.26573779637E+02  0.26749782940E+03  0.29723903846E+03  0.12500928445E+03 0.  0.
          2    1    1    2  501    0 -0.41350314410E+02 -0.91833352334E+01  0.53968309210E+02  0.68605834640E+02  0.00000000000E+00 0. -1.
          1    1    1    2  502    0  0.19845192030E+02 -0.17390444404E+02  0.16390389536E+04  0.16392513385E+04  0.00000000000E+00 0. -1.
         22    1    3    3    0    0  0.16407847556E+02  0.27698827712E+02  0.26096422416E+01  0.32299423380E+02  0.00000000000E+00 0. -1.
         22    1    3    3    0    0  0.50972748236E+01 -0.11250480746E+01  0.26488818715E+03  0.26493961508E+03  0.00000000000E+00 0. -1.
</event>
<event>
 7    1  0.6058736E-006  0.1596357E+03  0.7818608E-02  0.1355499E+00
          2   -1    0    0  502    0  0.00000000000E+00  0.00000000000E+00  0.19353535876E+04  0.19353535876E+04  0.00000000000E+00 0. -1.
          1   -1    0    0  501    0 -0.00000000000E+00 -0.00000000000E+00 -0.75631933562E+03  0.75631933562E+03  0.00000000000E+00 0. -1.
         25    2    1    2    0    0  0.14020475479E+03 -0.42571853473E+02  0.57916604699E+03  0.61035072034E+03  0.12499982342E+03 0.  0.
          2    1    1    2  501    0  0.67289733731E+01 -0.31189466082E+02 -0.73533902205E+03  0.73603093632E+03  0.00000000000E+00 0. -1.
          1    1    1    2  502    0 -0.14693372816E+03  0.73761319556E+02  0.13352072270E+04  0.13452912665E+04  0.00000000000E+00 0. -1.
         22    1    3    3    0    0  0.68142319034E+02 -0.15903687102E+02  0.47911838321E+03  0.48420112354E+03  0.00000000000E+00 0.  1.
         22    1    3    3    0    0  0.72062435753E+02 -0.26668166371E+02  0.10004766378E+03  0.12614959680E+03  0.00000000000E+00 0.  1.
</event>
<event>
 7    1  0.6058736E-006  0.3667494E+02  0.7818608E-02  0.1552705E+00
          2   -1    0    0  502    0  0.00000000000E+00  0.00000000000E+00  0.52554884705E+03  0.52554884705E+03  0.00000000000E+00 0. -1.
          1   -1    0    0  501    0 -0.00000000000E+00 -0.00000000000E+00 -0.21884963307E+03  0.21884963307E+03  0.00000000000E+00 0. -1.
         25    2    1    2    0    0  0.49664114250E+01 -0.75921504341E+01  0.51342787592E+02  0.13542962239E+03  0.12499117886E+03 0.  0.
          2    1    1    2  501    0  0.32192677864E+02  0.46950822813E+01 -0.17449635441E+03  0.17750321126E+03  0.00000000000E+00 0. -1.
          1    1    1    2  502    0 -0.37159089289E+02  0.28970681528E+01  0.42985278080E+03  0.43146564647E+03  0.00000000000E+00 0. -1.
         22    1    3    3    0    0 -0.33514690952E+02 -0.42684330946E+02 -0.97638542341E+01  0.55140905573E+02  0.00000000000E+00 0.  1.
         22    1    3    3    0    0  0.38481102377E+02  0.35092180512E+02  0.61106641826E+02  0.80288716819E+02  0.00000000000E+00 0.  1.
</event>
<event>
 7    1  0.6058736E-006  0.1217437E+03  0.7818608E-02  0.1286532E+00
          2   -1    0    0  502    0  0.00000000000E+00  0.00000000000E+00  0.57619351974E+03  0.57619351974E+03  0.00000000000E+00 0. -1.
          1   -1    0    0  501    0 -0.00000000000E+00 -0.00000000000E+00 -0.49767189780E+03  0.49767189780E+03  0.00000000000E+00 0. -1.
         25    2    1    2    0    0 -0.11710218288E+03  0.60190473820E+02  0.19072991455E+03  0.26332196702E+03  0.12499897453E+03 0.  0.
          2    1    1    2  501    0 -0.60632305318E+01 -0.77194500590E+02 -0.44687146122E+03  0.45353043618E+03  0.00000000000E+00 0. -1.
          1    1    1    2  502    0  0.12316541341E+03  0.17004026770E+02  0.33466316861E+03  0.35701301435E+03  0.00000000000E+00 0. -1.
         22    1    3    3    0    0  0.19388754818E+02 -0.13229007227E+02  0.10775506364E+02  0.25827155921E+02  0.00000000000E+00 0.  1.
         22    1    3    3    0    0 -0.13649093770E+03  0.73419481047E+02  0.17995440819E+03  0.23749481110E+03  0.00000000000E+00 0.  1.
</event>
<event>
 7    1  0.6058736E-006  0.8757718E+02  0.7818608E-02  0.1422066E+00
          2   -1    0    0  502    0  0.00000000000E+00  0.00000000000E+00  0.53838399277E+03  0.53838399277E+03  0.00000000000E+00 0. -1.
          1   -1    0    0  501    0 -0.00000000000E+00 -0.00000000000E+00 -0.46902274038E+03  0.46902274038E+03  0.00000000000E+00 0. -1.
         25    2    1    2    0    0 -0.48155818309E+01 -0.55181392756E+02 -0.63107844395E+02  0.15058319825E+03  0.12499809453E+03 0.  0.
          2    1    1    2  501    0  0.53159400600E+01 -0.33605257725E+02 -0.35737843901E+03  0.35899431922E+03  0.00000000000E+00 0. -1.
          1    1    1    2  502    0 -0.50035822912E+00  0.88786650481E+02  0.48984753579E+03  0.49782921568E+03  0.00000000000E+00 0. -1.
         22    1    3    3    0    0  0.19946102043E+02  0.15359704653E+02 -0.71072386556E+02  0.75399281459E+02  0.00000000000E+00 0. -1.
         22    1    3    3    0    0 -0.24761683874E+02 -0.70541097410E+02  0.79645421609E+01  0.75183916790E+02  0.00000000000E+00 0. -1.
</event>
<event>
 7    1  0.6058736E-006  0.5616007E+02  0.7818608E-02  0.1552893E+00
          2   -1    0    0  502    0  0.00000000000E+00  0.00000000000E+00  0.15031631958E+04  0.15031631958E+04  0.00000000000E+00 0. -1.
          1   -1    0    0  501    0 -0.00000000000E+00 -0.00000000000E+00 -0.33568662710E+02  0.33568662710E+02  0.00000000000E+00 0. -1.
         25    2    1    2    0    0 -0.22208911232E+02  0.71704985619E+02  0.51717585394E+03  0.53733719405E+03  0.12500222204E+03 0.  0.
          2    1    1    2  501    0  0.11293271547E+01 -0.21190032356E+02 -0.17760997833E+02  0.27672114034E+02  0.00000000000E+00 0. -1.
          1    1    1    2  502    0  0.21079584077E+02 -0.50514953264E+02  0.97017967703E+03  0.97172255046E+03  0.00000000000E+00 0. -1.
         22    1    3    3    0    0  0.24126248872E+02  0.64371923015E+02  0.45106378431E+03  0.45627224097E+03  0.00000000000E+00 0.  1.
         22    1    3    3    0    0 -0.46335160103E+02  0.73330626044E+01  0.66112069626E+02  0.81064953088E+02  0.00000000000E+00 0.  1.
</event>
<event>
 7    1  0.6058736E-006  0.5181261E+02  0.7818608E-02  0.1527723E+00
          2   -1    0    0  502    0  0.00000000000E+00  0.00000000000E+00  0.16116980464E+03  0.16116980464E+03  0.00000000000E+00 0. -1.
          1   -1    0    0  501    0 -0.00000000000E+00 -0.00000000000E+00 -0.71991065386E+03  0.71991065386E+03  0.00000000000E+00 0. -1.
         25    2    1    2    0    0  0.16962548176E+02  0.27867603010E+02 -0.44439192042E+03  0.46280189894E+03  0.12504834023E+03 0.  0.
          2    1    1    2  501    0  0.27092903679E+02 -0.17608240169E+00 -0.26113774722E+03  0.26253948171E+03  0.00000000000E+00 0. -1.
          1    1    1    2  502    0 -0.44055451855E+02 -0.27691520608E+02  0.14678881842E+03  0.15573907784E+03  0.00000000000E+00 0. -1.
         22    1    3    3    0    0  0.88790023525E+01  0.18206172592E+02 -0.44894909869E+03  0.44940582397E+03  0.00000000000E+00 0.  1.
         22    1    3    3    0    0  0.80835458238E+01  0.96614304176E+01  0.45571782738E+01  0.13396074971E+02  0.00000000000E+00 0.  1.
</event>
<event>
 7    1  0.6058736E-006  0.1087683E+03  0.7818608E-02  0.1337423E+00
          2   -1    0    0  502    0  0.00000000000E+00  0.00000000000E+00  0.13832328405E+04  0.13832328405E+04  0.00000000000E+00 0. -1.
          1   -1    0    0  501    0 -0.00000000000E+00 -0.00000000000E+00 -0.45250333175E+03  0.45250333175E+03  0.00000000000E+00 0. -1.
         25    2    1    2    0    0 -0.10531408139E+03  0.61204468844E+02  0.16455655733E+03  0.23987821812E+03  0.12500262488E+03 0.  0.
          2    1    1    2  501    0  0.45851958278E+02  0.29797238420E+02 -0.41052418978E+03  0.41415019968E+03  0.00000000000E+00 0. -1.
          1    1    1    2  502    0  0.59462123107E+02 -0.91001707264E+02  0.11766971412E+04  0.11817077544E+04  0.00000000000E+00 0. -1.
         22    1    3    3    0    0  0.27234669425E+02  0.18064903994E+02  0.48568737040E+02  0.58540500448E+02  0.00000000000E+00 0.  1.
         22    1    3    3    0    0 -0.13254875081E+03  0.43139564850E+02  0.11598782029E+03  0.18133771767E+03  0.00000000000E+00 0.  1.
</event>
<event>
 7    1  0.6058736E-006  0.2748197E+03  0.7818608E-02  0.1280198E+00
          2   -1    0    0  502    0  0.00000000000E+00  0.00000000000E+00  0.31541491562E+03  0.31541491562E+03  0.00000000000E+00 0. -1.
          1   -1    0    0  501    0 -0.00000000000E+00 -0.00000000000E+00 -0.87827920209E+03  0.87827920209E+03  0.00000000000E+00 0. -1.
         25    2    1    2    0    0  0.14096320936E+03  0.24946705923E+03 -0.41743449088E+03  0.52151626581E+03  0.12499288497E+03 0.  0.
          2    1    1    2  501    0 -0.36296245188E+02  0.30166186331E+01 -0.33664636730E+03  0.33861082974E+03  0.00000000000E+00 0. -1.
          1    1    1    2  502    0 -0.10466696418E+03 -0.25248367786E+03  0.19121657171E+03  0.33356702216E+03  0.00000000000E+00 0. -1.
         22    1    3    3    0    0  0.10275112730E+03  0.61361148064E+02 -0.14046868707E+03  0.18453844234E+03  0.00000000000E+00 0. -1.
         22    1    3    3    0    0  0.38212082062E+02  0.18810591117E+03 -0.27696580380E+03  0.33697782346E+03  0.00000000000E+00 0. -1.
</event>
<event>
 7    1  0.6058736E-006  0.5740983E+02  0.7818608E-02  0.1463706E+00
          2   -1    0    0  502    0  0.00000000000E+00  0.00000000000E+00  0.39279632333E+03  0.39279632333E+03  0.00000000000E+00 0. -1.
          1   -1    0    0  501    0 -0.00000000000E+00 -0.00000000000E+00 -0.83873926998E+02  0.83873926998E+02  0.00000000000E+00 0. -1.
         25    2    1    2    0    0 -0.72909597714E+02 -0.26699642208E+02  0.69923322255E+02  0.16291946391E+03  0.12499920156E+03 0.  0.
          2    1    1    2  501    0  0.37369530633E+02  0.40343059658E+02 -0.14931544075E+02  0.56982412118E+02  0.00000000000E+00 0. -1.
          1    1    1    2  502    0  0.35540067081E+02 -0.13643417450E+02  0.25393061815E+03  0.25676837430E+03  0.00000000000E+00 0. -1.
         22    1    3    3    0    0 -0.10309543814E+03 -0.16269863164E+02  0.77617687700E+02  0.13006876357E+03  0.00000000000E+00 0. -1.
         22    1    3    3    0    0  0.30185840425E+02 -0.10429779044E+02 -0.76943654445E+01  0.32850700338E+02  0.00000000000E+00 0. -1.
</event>
<event>
 7    1  0.6058736E-006  0.5572223E+02  0.7818608E-02  0.1454650E+00
          2   -1    0    0  502    0  0.00000000000E+00  0.00000000000E+00  0.20544601339E+03  0.20544601339E+03  0.00000000000E+00 0. -1.
          1   -1    0    0  501    0 -0.00000000000E+00 -0.00000000000E+00 -0.19089529646E+04  0.19089529646E+04  0.00000000000E+00 0. -1.
         25    2    1    2    0    0 -0.50920206739E+02 -0.24052415415E+02 -0.34230635815E+03  0.36874058702E+03  0.12499836617E+03 0.  0.
          2    1    1    2  501    0  0.20198836986E+02  0.52532606040E+02 -0.15506305399E+04  0.15516516165E+04  0.00000000000E+00 0. -1.
          1    1    1    2  502    0  0.30721369753E+02 -0.28480190624E+02  0.18942994680E+03  0.19400677452E+03  0.00000000000E+00 0. -1.
         22    1    3    3    0    0 -0.44690763276E+02  0.77245739901E+01 -0.29147680130E+02  0.53912156537E+02  0.00000000000E+00 0.  1.
         22    1    3    3    0    0 -0.62294434625E+01 -0.31776989405E+02 -0.31315867802E+03  0.31482843049E+03  0.00000000000E+00 0.  1.
</event>
<event>
 7    1  0.6058736E-006  0.4683143E+02  0.7818608E-02  0.1564555E+00
          2   -1    0    0  502    0  0.00000000000E+00  0.00000000000E+00  0.90793904062E+03  0.90793904062E+03  0.00000000000E+00 0. -1.
          1   -1    0    0  501    0 -0.00000000000E+00 -0.00000000000E+00 -0.54797009507E+03  0.54797009507E+03  0.00000000000E+00 0. -1.
         25    2    1    2    0    0  0.52482040313E+02 -0.24577148021E+02  0.23035524039E+03  0.26841593279E+03  0.12500070176E+03 0.  0.
          2    1    1    2  501    0 -0.21387119085E+02 -0.10050294115E+02 -0.52785283603E+03  0.52838152294E+03  0.00000000000E+00 0. -1.
          1    1    1    2  502    0 -0.31094921229E+02  0.34627442136E+02  0.65746654120E+03  0.65911167997E+03  0.00000000000E+00 0. -1.
         22    1    3    3    0    0  0.52374198732E+02 -0.63776650119E+02  0.87490722307E+02  0.12027112822E+03  0.00000000000E+00 0. -1.
         22    1    3    3    0    0  0.10784158134E+00  0.39199502098E+02  0.14286451808E+03  0.14814480457E+03  0.00000000000E+00 0. -1.
</event>
<event>
 7    1  0.6058736E-006  0.8556437E+02  0.7818608E-02  0.1327541E+00
          2   -1    0    0  502    0  0.00000000000E+00  0.00000000000E+00  0.68445880731E+02  0.68445880731E+02  0.00000000000E+00 0. -1.
          1   -1    0    0  501    0 -0.00000000000E+00 -0.00000000000E+00 -0.96618551378E+03  0.96618551378E+03  0.00000000000E+00 0. -1.
         25    2    1    2    0    0 -0.21031304978E+02  0.48926629271E+02 -0.31169047217E+03  0.34001428192E+03  0.12499052215E+03 0.  0.
          2    1    1    2  501    0  0.87965308667E+02  0.43753513725E+01 -0.60128989645E+03  0.60770599701E+03  0.00000000000E+00 0. -1.
          1    1    1    2  502    0 -0.66934003688E+02 -0.53301980643E+02  0.15240735574E+02  0.86911115578E+02  0.00000000000E+00 0. -1.
         22    1    3    3    0    0 -0.45956687630E+02  0.13660118861E+02 -0.28552098884E+03  0.28951830867E+03  0.00000000000E+00 0. -1.
         22    1    3    3    0    0  0.24925382651E+02  0.35266510410E+02 -0.26169483327E+02  0.50495973250E+02  0.00000000000E+00 0. -1.
</event>
<event>
 7    1  0.6058736E-006  0.1435547E+03  0.7818608E-02  0.1283243E+00
          2   -1    0    0  502    0  0.00000000000E+00  0.00000000000E+00  0.10050832232E+04  0.10050832232E+04  0.00000000000E+00 0. -1.
          1   -1    0    0  501    0 -0.00000000000E+00 -0.00000000000E+00 -0.48615975446E+03  0.48615975446E+03  0.00000000000E+00 0. -1.
         25    2    1    2    0    0 -0.30836589866E+02  0.14945014581E+03  0.26052002489E+03  0.32677516070E+03  0.12500032369E+03 0.  0.
          2    1    1    2  501    0  0.67044168326E+02 -0.96789990664E+01 -0.44310598500E+03  0.44825385383E+03  0.00000000000E+00 0. -1.
          1    1    1    2  502    0 -0.36207578459E+02 -0.13977114675E+03  0.70150942881E+03  0.71621396308E+03  0.00000000000E+00 0. -1.
         22    1    3    3    0    0  0.44621215279E+02  0.24788190206E+02  0.78043514381E+02  0.93253940204E+02  0.00000000000E+00 0. -1.
         22    1    3    3    0    0 -0.75457805145E+02  0.12466195561E+03  0.18247651051E+03  0.23352122050E+03  0.00000000000E+00 0. -1.
</event>
<event>
 7    1  0.6058736E-006  0.6103540E+02  0.7818608E-02  0.1409056E+00
          2   -1    0    0  502    0  0.00000000000E+00  0.00000000000E+00  0.26273315044E+04  0.26273315044E+04  0.00000000000E+00 0. -1.
          1   -1    0    0  501    0 -0.00000000000E+00 -0.00000000000E+00 -0.19965433693E+03  0.19965433693E+03  0.00000000000E+00 0. -1.
         25    2    1    2    0    0 -0.20325097119E+02  0.29004448085E+02  0.20711147257E+03  0.24448650261E+03  0.12499648118E+03 0.  0.
          2    1    1    2  501    0  0.61806050273E+02  0.55544396284E+01 -0.17533392670E+03  0.18599146621E+03  0.00000000000E+00 0. -1.
          1    1    1    2  502    0 -0.41480953153E+02 -0.34558887713E+02  0.23958996216E+04  0.23965078726E+04  0.00000000000E+00 0. -1.
         22    1    3    3    0    0  0.85355139475E+01  0.56794710367E+02  0.33877349499E+02  0.66679599077E+02  0.00000000000E+00 0. -1.
         22    1    3    3    0    0 -0.28860611067E+02 -0.27790262282E+02  0.17323412307E+03  0.17780690353E+03  0.00000000000E+00 0. -1.
</event>
<event>
 7    1  0.6058736E-006  0.4445336E+02  0.7818608E-02  0.1549387E+00
          2   -1    0    0  502    0  0.00000000000E+00  0.00000000000E+00  0.14369997548E+03  0.14369997548E+03  0.00000000000E+00 0. -1.
          1   -1    0    0  501    0 -0.00000000000E+00 -0.00000000000E+00 -0.24694719722E+03  0.24694719722E+03  0.00000000000E+00 0. -1.
         25    2    1    2    0    0  0.26445637463E+02 -0.21462235847E+01 -0.25895999262E+02  0.13038213865E+03  0.12499968514E+03 0.  0.
          2    1    1    2  501    0  0.10591606186E+02 -0.25289483173E+02 -0.16177314077E+03  0.16408013029E+03  0.00000000000E+00 0. -1.
          1    1    1    2  502    0 -0.37037243649E+02  0.27435706758E+02  0.84421918291E+02  0.96184903755E+02  0.00000000000E+00 0. -1.
         22    1    3    3    0    0  0.53439582942E+02  0.98154871790E+01  0.33655804747E+02  0.63912800023E+02  0.00000000000E+00 0. -1.
         22    1    3    3    0    0 -0.26993945479E+02 -0.11961710764E+02 -0.59551804009E+02  0.66469338628E+02  0.00000000000E+00 0. -1.
</event>
<event>
 7    1  0.6058736E-006  0.8996671E+02  0.7818608E-02  0.1339802E+00
          2   -1    0    0  502    0  0.00000000000E+00  0.00000000000E+00  0.28171925230E+04  0.28171925230E+04  0.00000000000E+00 0. -1.
          1   -1    0    0  501    0 -0.00000000000E+00 -0.00000000000E+00 -0.52526925884E+02  0.52526925884E+02  0.00000000000E+00 0. -1.
         25    2    1    2    0    0 -0.86798887094E+02  0.23069849424E+02  0.53989783021E+03  0.56141372091E+03  0.12501773558E+03 0.  0.
          2    1    1    2  501    0  0.48782216431E+01 -0.64575708939E+02 -0.15148325109E+02  0.66507826494E+02  0.00000000000E+00 0. -1.
          1    1    1    2  502    0  0.81920665451E+02  0.41505859514E+02  0.22399160920E+04  0.22417979015E+04  0.00000000000E+00 0. -1.
         22    1    3    3    0    0 -0.11874365515E+03  0.16287154278E+02  0.45282089006E+03  0.46841443777E+03  0.00000000000E+00 0.  1.
         22    1    3    3    0    0  0.31944768059E+02  0.67826951463E+01  0.87076940150E+02  0.92999283146E+02  0.00000000000E+00 0.  1.
</event>
<event>
 7    1  0.6058736E-006  0.4511421E+02  0.7818608E-02  0.1497564E+00
          2   -1    0    0  502    0  0.00000000000E+00  0.00000000000E+00  0.10196393416E+03  0.10196393416E+03  0.00000000000E+00 0. -1.
          1   -1    0    0  501    0 -0.00000000000E+00 -0.00000000000E+00 -0.14101597500E+04  0.14101597500E+04  0.00000000000E+00 0. -1.
         25    2    1    2    0    0 -0.23949871589E+02  0.24874143352E+02 -0.24558322508E+03  0.27771945684E+03  0.12499862764E+03 0.  0.
          2    1    1    2  501    0 -0.21234684877E+02 -0.31689759750E+02 -0.11420899439E+04  0.11427268233E+04  0.00000000000E+00 0. -1.
          1    1    1    2  502    0  0.45184556466E+02  0.68156163977E+01  0.79477353068E+02  0.91677404089E+02  0.00000000000E+00 0. -1.
         22    1    3    3    0    0 -0.63308816312E+02 -0.20769829760E+02 -0.15725356802E+03  0.17078664089E+03  0.00000000000E+00 0.  1.
         22    1    3    3    0    0  0.39358944723E+02  0.45643973113E+02 -0.88329657057E+02  0.10693281595E+03  0.00000000000E+00 0.  1.
</event>
<event>
 7    1  0.6058736E-006  0.7997911E+02  0.7818608E-02  0.1336896E+00
          2   -1    0    0  502    0  0.00000000000E+00  0.00000000000E+00  0.52612069034E+03  0.52612069034E+03  0.00000000000E+00 0. -1.
          1   -1    0    0  501    0 -0.00000000000E+00 -0.00000000000E+00 -0.54981013722E+03  0.54981013722E+03  0.00000000000E+00 0. -1.
         25    2    1    2    0    0  0.74034333035E+02  0.46018491089E+02  0.48318219881E+02  0.15987177927E+03  0.12500220576E+03 0.  0.
          2    1    1    2  501    0 -0.75557033359E+02  0.28674944364E+02 -0.48737330553E+03  0.49402819421E+03  0.00000000000E+00 0. -1.
          1    1    1    2  502    0  0.15227003238E+01 -0.74693435453E+02  0.41536563878E+03  0.42203085408E+03  0.00000000000E+00 0. -1.
         22    1    3    3    0    0  0.78005246855E+02 -0.14611449148E+02 -0.43234579150E+01  0.79479590282E+02  0.00000000000E+00 0.  1.
         22    1    3    3    0    0 -0.39709138195E+01  0.60629940237E+02  0.52641677796E+02  0.80392188992E+02  0.00000000000E+00 0.  1.
</event>
<event>
 7    1  0.6058736E-006  0.3693163E+02  0.7818608E-02  0.1555486E+00
          2   -1    0    0  502    0  0.00000000000E+00  0.00000000000E+00  0.14091506435E+04  0.14091506435E+04  0.00000000000E+00 0. -1.
          1   -1    0    0  501    0 -0.00000000000E+00 -0.00000000000E+00 -0.66642685155E+03  0.66642685155E+03  0.00000000000E+00 0. -1.
         25    2    1    2    0    0 -0.40997074719E+02 -0.46704294842E+02  0.13207819783E+04  0.13281386840E+04  0.12500111429E+03 0.  0.
          2    1    1    2  501    0  0.33321017978E+02  0.15908280036E+02 -0.65924010368E+03  0.66027333575E+03  0.00000000000E+00 0. -1.
          1    1    1    2  502    0  0.76760567403E+01  0.30796014807E+02  0.81181917302E+02  0.87165475228E+02  0.00000000000E+00 0. -1.
         22    1    3    3    0    0 -0.79533321858E+02 -0.39674367673E+02  0.11231971470E+04  0.11267082301E+04  0.00000000000E+00 0. -1.
         22    1    3    3    0    0  0.38536247139E+02 -0.70299271692E+01  0.19758483123E+03  0.20143045389E+03  0.00000000000E+00 0. -1.
</event>
<event>
 7    1  0.6058736E-006  0.8992551E+02  0.7818608E-02  0.1322980E+00
          2   -1    0    0  502    0  0.00000000000E+00  0.00000000000E+00  0.31781365920E+03  0.31781365920E+03  0.00000000000E+00 0. -1.
          1   -1    0    0  501    0 -0.00000000000E+00 -0.00000000000E+00 -0.11183579384E+04  0.11183579384E+04  0.00000000000E+00 0. -1.
         25    2    1    2    0    0  0.40238065628E+02 -0.15429616872E+03 -0.79895167326E+02  0.21779566187E+03  0.12500121183E+03 0.  0.
          2    1    1    2  501    0 -0.38275217720E+02  0.79222646950E+02 -0.96179280065E+03  0.96580878618E+03  0.00000000000E+00 0. -1.
          1    1    1    2  502    0 -0.19628479085E+01  0.75073521771E+02  0.24114368873E+03  0.25256714960E+03  0.00000000000E+00 0. -1.
         22    1    3    3    0    0  0.27313531043E+02 -0.29248776505E+02 -0.82891633417E+02  0.92046416528E+02  0.00000000000E+00 0. -1.
         22    1    3    3    0    0  0.12924534586E+02 -0.12504739222E+03  0.29964660907E+01  0.12574924534E+03  0.00000000000E+00 0. -1.
</event>
<event>
 7    1  0.6058736E-006  0.7224411E+02  0.7818608E-02  0.1393313E+00
          2   -1    0    0  502    0  0.00000000000E+00  0.00000000000E+00  0.21031605834E+02  0.21031605834E+02  0.00000000000E+00 0. -1.
          1   -1    0    0  501    0 -0.00000000000E+00 -0.00000000000E+00 -0.22760258373E+04  0.22760258373E+04  0.00000000000E+00 0. -1.
         25    2    1    2    0    0 -0.47739737728E+02  0.29499817742E+02 -0.12323719589E+04  0.12399647552E+04  0.12499050849E+03 0.  0.
          2    1    1    2  501    0  0.29317201169E+02  0.42533040127E+02 -0.95559071689E+03  0.95698598526E+03  0.00000000000E+00 0. -1.
          1    1    1    2  502    0  0.18422536559E+02 -0.72032857869E+02 -0.67031555676E+02  0.10010670268E+03  0.00000000000E+00 0. -1.
         22    1    3    3    0    0 -0.86349913820E+02  0.18854793770E+02 -0.61793864739E+03  0.62422750884E+03  0.00000000000E+00 0. -1.
         22    1    3    3    0    0  0.38610176092E+02  0.10645023973E+02 -0.61443331153E+03  0.61573724635E+03  0.00000000000E+00 0. -1.
</event>
<event>
 7    1  0.6058736E-006  0.8028779E+02  0.7818608E-02  0.1387095E+00
          2   -1    0    0  502    0  0.00000000000E+00  0.00000000000E+00  0.41911589926E+03  0.41911589926E+03  0.00000000000E+00 0. -1.
          1   -1    0    0  501    0 -0.00000000000E+00 -0.00000000000E+00 -0.21640710088E+03  0.21640710088E+03  0.00000000000E+00 0. -1.
         25    2    1    2    0    0 -0.55310272786E+02  0.10866039081E+03 -0.18290342410E+02  0.17557185081E+03  0.12499852544E+03 0.  0.
          2    1    1    2  501    0  0.40670260136E+02 -0.62041423333E+02 -0.10596748790E+03  0.12935345670E+03  0.00000000000E+00 0. -1.
          1    1    1    2  502    0  0.14640012650E+02 -0.46618967477E+02  0.32696662868E+03  0.33059769263E+03  0.00000000000E+00 0. -1.
         22    1    3    3    0    0  0.22317806987E+02  0.23907468123E+02  0.35850099591E+02  0.48527118001E+02  0.00000000000E+00 0.  1.
         22    1    3    3    0    0 -0.77628079773E+02  0.84752922687E+02 -0.54140442001E+02  0.12704473280E+03  0.00000000000E+00 0.  1.
</event>
<event>
 7    1  0.6058736E-006  0.4088919E+02  0.7818608E-02  0.1523489E+00
          2   -1    0    0  502    0  0.00000000000E+00  0.00000000000E+00  0.95033211656E+03  0.95033211656E+03  0.00000000000E+00 0. -1.
          1   -1    0    0  501    0 -0.00000000000E+00 -0.00000000000E+00 -0.47148122387E+03  0.47148122387E+03  0.00000000000E+00 0. -1.
         25    2    1    2    0    0  0.31079457445E+02  0.64992508906E+02 -0.20986397453E+02  0.14579161613E+03  0.12499923027E+03 0.  0.
          2    1    1    2  501    0 -0.27191889352E+02 -0.29897328486E+02 -0.38668770834E+03  0.38879381795E+03  0.00000000000E+00 0. -1.
          1    1    1    2  502    0 -0.38875680924E+01 -0.35095180420E+02  0.88652499848E+03  0.88722790635E+03  0.00000000000E+00 0. -1.
         22    1    3    3    0    0 -0.11220654654E+02  0.98018266364E+01 -0.62872904060E+02  0.64614092590E+02  0.00000000000E+00 0.  1.
         22    1    3    3    0    0  0.42300112099E+02  0.55190682270E+02  0.41886506607E+02  0.81177523544E+02  0.00000000000E+00 0.  1.
</event>
<event>
 7    1  0.6058736E-006  0.6102519E+02  0.7818608E-02  0.1394803E+00
          2   -1    0    0  502    0  0.00000000000E+00  0.00000000000E+00  0.11422839611E+04  0.11422839611E+04  0.00000000000E+00 0. -1.
          1   -1    0    0  501    0 -0.00000000000E+00 -0.00000000000E+00 -0.16552622107E+02  0.16552622107E+02  0.00000000000E+00 0. -1.
         25    2    1    2    0    0  0.10005995313E+01  0.29752495351E+02  0.48432589334E+03  0.50108124227E+03  0.12499851285E+03 0.  0.
          2    1    1    2  501    0 -0.56383182262E+02  0.21746421498E+02  0.17224169100E+03  0.18253539439E+03  0.00000000000E+00 0. -1.
          1    1    1    2  502    0  0.55382582731E+02 -0.51498916849E+02  0.46916375462E+03  0.47521994650E+03  0.00000000000E+00 0. -1.
         22    1    3    3    0    0  0.29443371802E+02  0.71120912856E+02  0.25710765983E+03  0.26838301945E+03  0.00000000000E+00 0. -1.
         22    1    3    3    0    0 -0.28442772271E+02 -0.41368417505E+02  0.22721823352E+03  0.23269822282E+03  0.00000000000E+00 0. -1.
</event>
<event>
 7    1  0.6058736E-006  0.2360322E+03  0.7818608E-02  0.1275240E+00
          2   -1    0    0  502    0  0.00000000000E+00  0.00000000000E+00  0.13345777072E+03  0.13345777072E+03  0.00000000000E+00 0. -1.
          1   -1    0    0  501    0 -0.00000000000E+00 -0.00000000000E+00 -0.21403653887E+04  0.21403653887E+04  0.00000000000E+00 0. -1.
         25    2    1    2    0    0 -0.19898276726E+03  0.18561076336E+03 -0.51447074121E+03  0.59528622983E+03  0.12506020437E+03 0.  0.
          2    1    1    2  501    0  0.16116345238E+03 -0.16223002916E+03 -0.15713809392E+04  0.15879327116E+04  0.00000000000E+00 0. -1.
          1    1    1    2  502    0  0.37819314886E+02 -0.23380734199E+02  0.78944062429E+02  0.90604217909E+02  0.00000000000E+00 0. -1.
         22    1    3    3    0    0 -0.14251848526E+03  0.59278278244E+02 -0.20793071420E+03  0.25896064339E+03  0.00000000000E+00 0. -1.
         22    1    3    3    0    0 -0.56464282000E+02  0.12633248511E+03 -0.30654002701E+03  0.33632558644E+03  0.00000000000E+00 0. -1.
</event>
<event>
 7    1  0.6058736E-006  0.9502075E+02  0.7818608E-02  0.1320155E+00
          2   -1    0    0  502    0  0.00000000000E+00  0.00000000000E+00  0.29620149217E+03  0.29620149217E+03  0.00000000000E+00 0. -1.
          1   -1    0    0  501    0 -0.00000000000E+00 -0.00000000000E+00 -0.10280680555E+04  0.10280680555E+04  0.00000000000E+00 0. -1.
         25    2    1    2    0    0 -0.75830247397E+02  0.10035341968E+03 -0.12620230137E+03  0.21765747793E+03  0.12500688608E+03 0.  0.
          2    1    1    2  501    0  0.72647903297E+02 -0.58665029121E+01 -0.84559335868E+03  0.84872861502E+03  0.00000000000E+00 0. -1.
          1    1    1    2  502    0  0.31823441000E+01 -0.94486916770E+02  0.23992909673E+03  0.25788345471E+03  0.00000000000E+00 0. -1.
         22    1    3    3    0    0 -0.85909730546E+02  0.66878623621E+02 -0.14229845800E+03  0.17917054236E+03  0.00000000000E+00 0.  1.
         22    1    3    3    0    0  0.10079483149E+02  0.33474796061E+02  0.16096156627E+02  0.38486935576E+02  0.00000000000E+00 0.  1.
</event>
<event>
 7    1  0.6058736E-006  0.7563034E+02  0.7818608E-02  0.1445518E+00
          2   -1    0    0  502    0  0.00000000000E+00  0.00000000000E+00  0.70595501558E+03  0.70595501558E+03  0.00000000000E+00 0. -1.
          1   -1    0    0  501    0 -0.00000000000E+00 -0.00000000000E+00 -0.58518643195E+03  0.58518643195E+03  0.00000000000E+00 0. -1.
         25    2    1    2    0    0 -0.80809080480E+02 -0.20724492573E+02 -0.23683956279E+03  0.28049366330E+03  0.12499641824E+03 0.  0.
          2    1    1    2  501    0  0.59519145875E+02  0.45954359586E+02 -0.32178447121E+03  0.33045359402E+03  0.00000000000E+00 0. -1.
          1    1    1    2  502    0  0.21289934604E+02 -0.25229867013E+02  0.67939261763E+03  0.68019419021E+03  0.00000000000E+00 0. -1.
         22    1    3    3    0    0 -0.10080328052E+03  0.17324895830E+02 -0.13057531601E+03  0.16586550735E+03  0.00000000000E+00 0.  1.
         22    1    3    3    0    0  0.19994200043E+02 -0.38049388403E+02 -0.10626424678E+03  0.11462815595E+03  0.00000000000E+00 0.  1.
</event>
<event>
 7    1  0.6058736E-006  0.6795177E+02  0.7818608E-02  0.1389091E+00
          2   -1    0    0  502    0  0.00000000000E+00  0.00000000000E+00  0.53119653743E+03  0.53119653743E+03  0.00000000000E+00 0. -1.
          1   -1    0    0  501    0 -0.00000000000E+00 -0.00000000000E+00 -0.39851331295E+03  0.39851331295E+03  0.00000000000E+00 0. -1.
         25    2    1    2    0    0  0.16088982091E+02 -0.11437533913E+03 -0.66925322304E+01  0.17032723525E+03  0.12500401407E+03 0.  0.
          2    1    1    2  501    0  0.12055026139E+02  0.65023262831E+02 -0.30464592282E+03  0.31174105705E+03  0.00000000000E+00 0. -1.
          1    1    1    2  502    0 -0.28144008230E+02  0.49352076296E+02  0.44402167953E+03  0.44764155809E+03  0.00000000000E+00 0. -1.
         22    1    3    3    0    0  0.42318001772E+02 -0.85609418800E+02  0.45038379143E+02  0.10558523314E+03  0.00000000000E+00 0. -1.
         22    1    3    3    0    0 -0.26229019681E+02 -0.28765920327E+02 -0.51730911373E+02  0.64742002110E+02  0.00000000000E+00 0. -1.
</event>
<event>
 7    1  0.6058736E-006  0.6797802E+02  0.7818608E-02  0.1383767E+00
          2   -1    0    0  502    0  0.00000000000E+00  0.00000000000E+00  0.18054186133E+04  0.18054186133E+04  0.00000000000E+00 0. -1.
          1   -1    0    0  501    0 -0.00000000000E+00 -0.00000000000E+00 -0.10283661634E+04  0.10283661634E+04  0.00000000000E+00 0. -1.
         25    2    1    2    0    0  0.74490436396E+02 -0.75691032173E+02  0.95787285843E+02  0.18994197672E+03  0.12499917169E+03 0.  0.
          2    1    1    2  501    0 -0.58439290239E+02  0.99894450797E+01 -0.97970447995E+03  0.98149671813E+03  0.00000000000E+00 0. -1.
          1    1    1    2  502    0 -0.16051146157E+02  0.65701587093E+02  0.16609696440E+04  0.16623460819E+04  0.00000000000E+00 0. -1.
         22    1    3    3    0    0 -0.20905059231E+02 -0.59909409115E+02  0.18317425299E+02  0.66043068308E+02  0.00000000000E+00 0.  1.
         22    1    3    3    0    0  0.95395495626E+02 -0.15781623057E+02  0.77469860544E+02  0.12389890841E+03  0.00000000000E+00 0.  1.
</event>
<event>
 7    1  0.6058736E-006  0.9523676E+02  0.7818608E-02  0.1332065E+00
          2   -1    0    0  502    0  0.00000000000E+00  0.00000000000E+00  0.70532002521E+03  0.70532002521E+03  0.00000000000E+00 0. -1.
          1   -1    0    0  501    0 -0.00000000000E+00 -0.00000000000E+00 -0.34490877765E+03  0.34490877765E+03  0.00000000000E+00 0. -1.
         25    2    1    2    0    0  0.15571270897E+02  0.46005105741E+02  0.29869968170E+03  0.32742235303E+03  0.12499985273E+03 0.  0.
          2    1    1    2  501    0  0.31829889160E+02 -0.91128009640E+02 -0.32066064823E+03  0.33487416638E+03  0.00000000000E+00 0. -1.
          1    1    1    2  502    0 -0.47401160058E+02  0.45122903899E+02  0.38237221409E+03  0.38793228345E+03  0.00000000000E+00 0. -1.
         22    1    3    3    0    0 -0.31044835636E+02  0.67302512014E+02  0.23042701522E+03  0.24205375288E+03  0.00000000000E+00 0. -1.
         22    1    3    3    0    0  0.46616106533E+02 -0.21297406273E+02  0.68272666487E+02  0.85368600149E+02  0.00000000000E+00 0. -1.
</event>
<event>
 7    1  0.6058736E-006  0.9904829E+02  0.7818608E-02  0.1388786E+00
          2   -1    0    0  502    0  0.00000000000E+00  0.00000000000E+00  0.27061430915E+04  0.27061430915E+04  0.00000000000E+00 0. -1.
          1   -1    0    0  501    0 -0.00000000000E+00 -0.00000000000E+00 -0.94970090137E+02  0.94970090137E+02  0.00000000000E+00 0. -1.
         25    2    1    2    0    0  0.45901735045E+01  0.91086570931E+02  0.10589537041E+03  0.18750031834E+03  0.12499882723E+03 0.  0.
          2    1    1    2  501    0  0.39032412826E+02 -0.17645789045E+01 -0.46025606433E+02  0.60373830732E+02  0.00000000000E+00 0. -1.
          1    1    1    2  502    0 -0.43622586331E+02 -0.89321992027E+02  0.25513032374E+04  0.25532390326E+04  0.00000000000E+00 0. -1.
         22    1    3    3    0    0  0.35079003457E+02  0.38339274727E+02  0.11471876465E+03  0.12593979289E+03  0.00000000000E+00 0.  1.
         22    1    3    3    0    0 -0.30488829952E+02  0.52747296204E+02 -0.88233942379E+01  0.61560525457E+02  0.00000000000E+00 0.  1.
</event>
<event>
 7    1  0.6058736E-006  0.8824396E+02  0.7818608E-02  0.1319417E+00
          2   -1    0    0  502    0  0.00000000000E+00  0.00000000000E+00  0.19375771062E+03  0.19375771062E+03  0.00000000000E+00 0. -1.
          1   -1    0    0  501    0 -0.00000000000E+00 -0.00000000000E+00 -0.15914783232E+04  0.15914783232E+04  0.00000000000E+00 0. -1.
         25    2    1    2    0    0 -0.46945971429E+02  0.90734774540E+01 -0.11768453159E+04  0.11844310533E+04  0.12500308093E+03 0.  0.
          2    1    1    2  501    0  0.21462676109E+02  0.76029741080E+02 -0.39633803159E+03  0.40413488253E+03  0.00000000000E+00 0. -1.
          1    1    1    2  502    0  0.25483295320E+02 -0.85103218534E+02  0.17546273485E+03  0.19667009805E+03  0.00000000000E+00 0. -1.
         22    1    3    3    0    0 -0.83633569684E+02  0.18731645675E+02 -0.57069095242E+03  0.57709064426E+03  0.00000000000E+00 0. -1.
         22    1    3    3    0    0  0.36687598255E+02 -0.96581682206E+01 -0.60615436346E+03  0.60734040901E+03  0.00000000000E+00 0. -1.
</event>
<event>
 7    1  0.6058736E-006  0.1915515E+03  0.7818608E-02  0.1374878E+00
          2   -1    0    0  502    0  0.00000000000E+00  0.00000000000E+00  0.89909473439E+02  0.89909473439E+02  0.00000000000E+00 0. -1.
          1   -1    0    0  501    0 -0.00000000000E+00 -0.00000000000E+00 -0.20707063922E+04  0.20707063922E+04  0.00000000000E+00 0. -1.
         25    2    1    2    0    0  0.10412386680E+03 -0.17667523704E+03 -0.28200014816E+03  0.37041273621E+03  0.12500237025E+03 0.  0.
          2    1    1    2  501    0 -0.17371867431E+02  0.14492490882E+02 -0.15590368635E+04  0.15592009992E+04  0.00000000000E+00 0. -1.
          1    1    1    2  502    0 -0.86751999365E+02  0.16218274615E+03 -0.13975990708E+03  0.23100213023E+03  0.00000000000E+00 0. -1.
         22    1    3    3    0    0  0.12358477973E+03 -0.15024804800E+03 -0.18677180462E+03  0.26968756128E+03  0.00000000000E+00 0. -1.
         22    1    3    3    0    0 -0.19460912933E+02 -0.26427189041E+02 -0.95228343534E+02  0.10072517493E+03  0.00000000000E+00 0. -1.
</event>
<event>
 7    1  0.6058736E-006  0.9824539E+02  0.7818608E-02  0.1384005E+00
          2   -1    0    0  502    0  0.00000000000E+00  0.00000000000E+00  0.27222398797E+03  0.27222398797E+03  0.00000000000E+00 0. -1.
          1   -1    0    0  501    0 -0.00000000000E+00 -0.00000000000E+00 -0.14469982369E+04  0.14469982369E+04  0.00000000000E+00 0. -1.
         25    2    1    2    0    0  0.91739499406E+02 -0.91131556388E+02 -0.15347878811E+03  0.23643532702E+03  0.12499931656E+03 0.  0.
          2    1    1    2  501    0 -0.82301566668E+02  0.51291509954E+02 -0.12483295178E+04  0.12520906324E+04  0.00000000000E+00 0. -1.
          1    1    1    2  502    0 -0.94379327374E+01  0.39840046435E+02  0.22703405695E+03  0.23069626544E+03  0.00000000000E+00 0. -1.
         22    1    3    3    0    0  0.85402379031E+02  0.19281479323E+01 -0.86747624110E+02  0.12174742046E+03  0.00000000000E+00 0. -1.
         22    1    3    3    0    0  0.63371203745E+01 -0.93059704321E+02 -0.66731164001E+02  0.11468790656E+03  0.00000000000E+00 0. -1.
</event>
<event>
 7    1  0.6058736E-006  0.4800119E+02  0.7818608E-02  0.1577660E+00
          2   -1    0    0  502    0  0.00000000000E+00  0.00000000000E+00  0.74016112032E+02  0.74016112032E+02  0.00000000000E+00 0. -1.
          1   -1    0    0  501    0 -0.00000000000E+00 -0.00000000000E+00 -0.10134026341E+04  0.10134026341E+04  0.00000000000E+00 0. -1.
         25    2    1    2    0    0 -0.24336825994E+02  0.28305211559E+02 -0.35969238054E+03  0.38261858103E+03  0.12499961530E+03 0.  0.
          2    1    1    2  501    0  0.14264040707E+02 -0.47008071402E+02 -0.63947402270E+03  0.64135812721E+03  0.00000000000E+00 0. -1.
          1    1    1    2  502    0  0.10072785287E+02  0.18702859844E+02  0.59779881211E+02  0.63442037856E+02  0.00000000000E+00 0. -1.
         22    1    3    3    0    0 -0.26497180410E+02  0.82100476889E+01 -0.36128182188E+03  0.36234522250E+03  0.00000000000E+00 0.  1.
         22    1    3    3    0    0  0.21603544159E+01  0.20095163870E+02  0.15894413308E+01  0.20273358526E+02  0.00000000000E+00 0.  1.
</event>
<event>
 7    1  0.6058736E-006  0.5793458E+02  0.7818608E-02  0.1499340E+00
          2   -1    0    0  502    0  0.00000000000E+00  0.00000000000E+00  0.16366593264E+04  0.16366593264E+04  0.00000000000E+00 0. -1.
          1   -1    0    0  501    0 -0.00000000000E+00 -0.00000000000E+00 -0.14447305536E+03  0.14447305536E+03  0.00000000000E+00 0. -1.
         25    2    1    2    0    0  0.64110534019E+01 -0.76802659208E+02  0.20843439856E+03  0.25496887928E+03  0.12499792331E+03 0.  0.
          2    1    1    2  501    0 -0.23079621024E+02  0.52652499845E+02 -0.11422635278E+03  0.12787734090E+03  0.00000000000E+00 0. -1.
          1    1    1    2  502    0  0.16668567622E+02  0.24150159363E+02  0.13979782253E+04  0.13982861616E+04  0.00000000000E+00 0. -1.
         22    1    3    3    0    0 -0.30847865182E+02  0.16788985054E+02  0.17842360982E+02  0.39393027947E+02  0.00000000000E+00 0.  1.
         22    1    3    3    0    0  0.37258918584E+02 -0.93591644262E+02  0.19059203758E+03  0.21557585133E+03  0.00000000000E+00 0.  1.
</event>
<event>
 7    1  0.6058736E-006  0.6214637E+02  0.7818608E-02  0.1438060E+00
          2   -1    0    0  502    0  0.00000000000E+00  0.00000000000E+00  0.81452105364E+03  0.81452105364E+03  0.00000000000E+00 0. -1.
          1   -1    0    0  501    0 -0.00000000000E+00 -0.00000000000E+00 -0.69877459989E+03  0.69877459989E+03  0.00000000000E+00 0. -1.
         25    2    1    2    0    0  0.48293035443E+02 -0.49782202151E+01  0.35135957674E+03  0.37607768921E+03  0.12499550474E+03 0.  0.
          2    1    1    2  501    0 -0.12198293264E+01 -0.42454045333E+02 -0.68327602574E+03  0.68459474238E+03  0.00000000000E+00 0. -1.
          1    1    1    2  502    0 -0.47073206117E+02  0.47432265548E+02  0.44766290275E+03  0.45262322195E+03  0.00000000000E+00 0. -1.
         22    1    3    3    0    0 -0.23543174679E+02  0.32018701528E+02  0.48914777453E+02  0.63024866321E+02  0.00000000000E+00 0. -1.
         22    1    3    3    0    0  0.71836210122E+02 -0.36996921743E+02  0.30244479928E+03  0.31305282289E+03  0.00000000000E+00 0. -1.
</event>
<event>
 7    1  0.6058736E-006  0.8748698E+02  0.7818608E-02  0.1334404E+00
          2   -1    0    0  502    0  0.00000000000E+00  0.00000000000E+00  0.16351483790E+04  0.16351483790E+04  0.00000000000E+00 0. -1.
          1   -1    0    0  501    0 -0.00000000000E+00 -0.00000000000E+00 -0.55785829884E+03  0.55785829884E+03  0.00000000000E+00 0. -1.
         25    2    1    2    0    0  0.33572481058E+02  0.47338354287E+02  0.17962693571E+03  0.22640454326E+03  0.12500059963E+03 0.  0.
          2    1    1    2  501    0  0.56724248297E+02 -0.40671046824E+02 -0.53075121646E+03  0.53532105149E+03  0.00000000000E+00 0. -1.
          1    1    1    2  502    0 -0.90296729355E+02 -0.66673074634E+01  0.14284143609E+04  0.14312810830E+04  0.00000000000E+00 0. -1.
         22    1    3    3    0    0 -0.30876711363E+02 -0.25623509727E+02  0.45369803638E+02  0.60566943438E+02  0.00000000000E+00 0. -1.
         22    1    3    3    0    0  0.64449192421E+02  0.72961864014E+02  0.13425713207E+03  0.16583759983E+03  0.00000000000E+00 0. -1.
</event>
<event>
 7    1  0.9561878E-006  0.5941964E+02  0.7818608E-02  0.1452118E+00
          2   -1    0    0  502    0  0.00000000000E+00  0.00000000000E+00  0.26108299774E+04  0.26108299774E+04  0.00000000000E+00 0. -1.
          1   -1    0    0  501    0 -0.00000000000E+00 -0.00000000000E+00 -0.17188783604E+04  0.17188783604E+04  0.00000000000E+00 0. -1.
         25    2    1    2    0    0  0.65219767739E+02 -0.54370744613E+02 -0.13696295068E+03  0.20394609311E+03  0.12500145224E+03 0.  0.
          2    1    1    2  501    0 -0.57140146767E+02  0.15173760512E+02 -0.15477040635E+04  0.15488328210E+04  0.00000000000E+00 0. -1.
          1    1    1    2  502    0 -0.80796209718E+01  0.39196984101E+02  0.25766186312E+04  0.25769294236E+04  0.00000000000E+00 0. -1.
         22    1    3    3    0    0  0.96496754377E+02 -0.11745163152E+02 -0.77049789036E+02  0.12404129334E+03  0.00000000000E+00 0. -1.
         22    1    3    3    0    0 -0.31276986639E+02 -0.42625581460E+02 -0.59913161644E+02  0.79904799770E+02  0.00000000000E+00 0. -1.
</event>
<event>
 7    1  0.6058736E-006  0.9464077E+02  0.7818608E-02  0.1301466E+00
          2   -1    0    0  502    0  0.00000000000E+00  0.00000000000E+00  0.32575296637E+04  0.32575296637E+04  0.00000000000E+00 0. -1.
          1   -1    0    0  501    0 -0.00000000000E+00 -0.00000000000E+00 -0.25872672745E+02  0.25872672745E+02  0.00000000000E+00 0. -1.
         25    2    1    2    0    0  0.87829943690E+01  0.27000594344E+02  0.92248843632E+03  0.93135129857E+03  0.12499661249E+03 0.  0.
          2    1    1    2  501    0  0.44182062800E+02 -0.95620965782E+02  0.11416055979E+03  0.15533208678E+03  0.00000000000E+00 0. -1.
          1    1    1    2  502    0 -0.52965057169E+02  0.68620371438E+02  0.21950079948E+04  0.21967189510E+04  0.00000000000E+00 0. -1.
         22    1    3    3    0    0 -0.28471008518E+02 -0.41404952976E+02  0.35049294730E+03  0.35407665069E+03  0.00000000000E+00 0. -1.
         22    1    3    3    0    0  0.37254002887E+02  0.68405547320E+02  0.57199548902E+03  0.57727464788E+03  0.00000000000E+00 0. -1.
</event>
<event>
 7    1  0.6058736E-006  0.7512962E+02  0.7818608E-02  0.1444392E+00
          2   -1    0    0  502    0  0.00000000000E+00  0.00000000000E+00  0.10550017600E+04  0.10550017600E+04  0.00000000000E+00 0. -1.
          1   -1    0    0  501    0 -0.00000000000E+00 -0.00000000000E+00 -0.19876761096E+04  0.19876761096E+04  0.00000000000E+00 0. -1.
         25    2    1    2    0    0  0.34503260899E+02 -0.36828868949E+02  0.11395871106E+03  0.17653140427E+03  0.12501963153E+03 0.  0.
          2    1    1    2  501    0 -0.67766401428E+02  0.32759537054E+02 -0.19553568347E+04  0.19568050039E+04  0.00000000000E+00 0. -1.
          1    1    1    2  502    0  0.33263140530E+02  0.40693318948E+01  0.90872377403E+03  0.90934146142E+03  0.00000000000E+00 0. -1.
         22    1    3    3    0    0 -0.32932852007E+02 -0.26312756855E+02 -0.17536612956E+01  0.42190155755E+02  0.00000000000E+00 0.  1.
         22    1    3    3    0    0  0.67436112906E+02 -0.10516112094E+02  0.11571237235E+03  0.13434124852E+03  0.00000000000E+00 0.  1.
</event>
<event>
 7    1  0.6058736E-006  0.7998841E+02  0.7818608E-02  0.1366088E+00
          2   -1    0    0  502    0  0.00000000000E+00  0.00000000000E+00  0.17295866000E+04  0.17295866000E+04  0.00000000000E+00 0. -1.
          1   -1    0    0  501    0 -0.00000000000E+00 -0.00000000000E+00 -0.35456927415E+03  0.35456927415E+03  0.00000000000E+00 0. -1.
         25    2    1    2    0    0  0.59558933018E+02  0.67430533334E+02  0.54550780725E+02  0.16338521996E+03  0.12499919638E+03 0.  0.
          2    1    1    2  501    0 -0.27613608264E+01 -0.80416291262E+02 -0.29422458556E+03  0.30502870646E+03  0.00000000000E+00 0. -1.
          1    1    1    2  502    0 -0.56797572192E+02  0.12985757927E+02  0.16146911306E+04  0.16157419477E+04  0.00000000000E+00 0. -1.
         22    1    3    3    0    0 -0.90412664201E+01  0.29712885734E+01 -0.33296041961E+02  0.34629459490E+02  0.00000000000E+00 0.  1.
         22    1    3    3    0    0  0.68600199438E+02  0.64459244761E+02  0.87846822687E+02  0.12875576047E+03  0.00000000000E+00 0.  1.
</event>
<event>
 7    1  0.6058736E-006  0.1951988E+03  0.7818608E-02  0.1183767E+00
          2   -1    0    0  502    0  0.00000000000E+00  0.00000000000E+00  0.12430710652E+04  0.12430710652E+04  0.00000000000E+00 0. -1.
          1   -1    0    0  501    0 -0.00000000000E+00 -0.00000000000E+00 -0.83888836695E+02  0.83888836695E+02  0.00000000000E+00 0. -1.
         25    2    1    2    0    0 -0.20707731446E+03  0.55311512970E+02  0.51420087102E+03  0.57093635868E+03  0.12500164909E+03 0.  0.
          2    1    1    2  501    0  0.87876594881E+02  0.10710109927E+03  0.88988961818E+02  0.16465714901E+03  0.00000000000E+00 0. -1.
          1    1    1    2  502    0  0.11920071957E+03 -0.16241261224E+03  0.55599239571E+03  0.59136639426E+03  0.00000000000E+00 0. -1.
         22    1    3    3    0    0 -0.79870641770E+02  0.51483124320E+02  0.35293105159E+03  0.36549987508E+03  0.00000000000E+00 0. -1.
         22    1    3    3    0    0 -0.12720667269E+03  0.38283886506E+01  0.16126981943E+03  0.20543648360E+03  0.00000000000E+00 0. -1.
</event>
<event>
 7    1  0.6058736E-006  0.8857807E+02  0.7818608E-02  0.1390940E+00
          2   -1    0    0  502    0  0.00000000000E+00  0.00000000000E+00  0.96498039888E+03  0.96498039888E+03  0.00000000000E+00 0. -1.
          1   -1    0    0  501    0 -0.00000000000E+00 -0.00000000000E+00 -0.17884271161E+03  0.17884271161E+03  0.00000000000E+00 0. -1.
         25    2    1    2    0    0  0.11295617116E+03 -0.49682405080E+02 -0.54844762693E+02  0.18401048681E+03  0.12499789312E+03 0.  0.
          2    1    1    2  501    0 -0.42801988592E+02 -0.34519557771E+01 -0.49192534512E+02  0.65298022006E+02  0.00000000000E+00 0. -1.
          1    1    1    2  502    0 -0.70154182565E+02  0.53134360857E+02  0.89017498447E+03  0.89451460168E+03  0.00000000000E+00 0. -1.
         22    1    3    3    0    0 -0.15748388236E+02  0.23430210337E+01  0.20581511647E+02  0.26021147194E+02  0.00000000000E+00 0.  1.
         22    1    3    3    0    0  0.12870455939E+03 -0.52025426114E+02 -0.75426274340E+02  0.15798933961E+03  0.00000000000E+00 0.  1.
</event>
<event>
 7    1  0.6058736E-006  0.1512279E+03  0.7818608E-02  0.1369263E+00
          2   -1    0    0  502    0  0.00000000000E+00  0.00000000000E+00  0.86603723210E+03  0.86603723210E+03  0.00000000000E+00 0. -1.
          1   -1    0    0  501    0 -0.00000000000E+00 -0.00000000000E+00 -0.64658289212E+02  0.64658289212E+02  0.00000000000E+00 0. -1.
         25    2    1    2    0    0 -0.15659324545E+03 -0.46709937394E+02  0.26560325781E+03  0.33596667499E+03  0.12500101348E+03 0.  0.
          2    1    1    2  501    0  0.23504629439E+02 -0.18665671790E+02 -0.80299449088E+01  0.31070161308E+02  0.00000000000E+00 0. -1.
          1    1    1    2  502    0  0.13308861601E+03  0.65375609184E+02  0.54380562998E+03  0.56365868501E+03  0.00000000000E+00 0. -1.
         22    1    3    3    0    0  0.94898700088E+00  0.30215184693E+02  0.34129438000E+02  0.45592504872E+02  0.00000000000E+00 0. -1.
         22    1    3    3    0    0 -0.15754223245E+03 -0.76925122087E+02  0.23147381981E+03  0.29037417012E+03  0.00000000000E+00 0. -1.
</event>
<event>
 7    1  0.6058736E-006  0.8798316E+02  0.7818608E-02  0.1402745E+00
          2   -1    0    0  502    0  0.00000000000E+00  0.00000000000E+00  0.41616684367E+03  0.41616684367E+03  0.00000000000E+00 0. -1.
          1   -1    0    0  501    0 -0.00000000000E+00 -0.00000000000E+00 -0.30382428091E+03  0.30382428091E+03  0.00000000000E+00 0. -1.
         25    2    1    2    0    0  0.52815840903E+02 -0.76129216846E+02 -0.66314094107E+02  0.16913874754E+03  0.12500074453E+03 0.  0.
          2    1    1    2  501    0 -0.37862212170E+02 -0.10740958115E+02 -0.17859841602E+03  0.18288332208E+03  0.00000000000E+00 0. -1.
          1    1    1    2  502    0 -0.14953628733E+02  0.86870174961E+02  0.35725507288E+03  0.36796905496E+03  0.00000000000E+00 0. -1.
         22    1    3    3    0    0  0.13044337760E+02 -0.10419169793E+03 -0.32677961812E+02  0.10997233221E+03  0.00000000000E+00 0.  1.
         22    1    3    3    0    0  0.39771503143E+02  0.28062481081E+02 -0.33636132295E+02  0.59166415325E+02  0.00000000000E+00 0.  1.
</event>
<event>
 7    1  0.6058736E-006  0.1525941E+03  0.7818608E-02  0.1354618E+00
          2   -1    0    0  502    0  0.00000000000E+00  0.00000000000E+00  0.19277548222E+04  0.19277548222E+04  0.00000000000E+00 0. -1.
          1   -1    0    0  501    0 -0.00000000000E+00 -0.00000000000E+00 -0.17641496921E+03  0.17641496921E+03  0.00000000000E+00 0. -1.
         25    2    1    2    0    0 -0.99218810050E+02 -0.96154922214E+02  0.44113091727E+03  0.47886514915E+03  0.12500081427E+03 0.  0.
          2    1    1    2  501    0  0.86608669262E+02  0.12733067747E+03 -0.11967277020E+03  0.19502752355E+03  0.00000000000E+00 0. -1.
          1    1    1    2  502    0  0.12610140788E+02 -0.31175755254E+02  0.14298817060E+04  0.14302771188E+04  0.00000000000E+00 0. -1.
         22    1    3    3    0    0 -0.10592123217E+03 -0.11819238267E+03  0.34108322206E+03  0.37620009452E+03  0.00000000000E+00 0. -1.
         22    1    3    3    0    0  0.67024221237E+01  0.22037460456E+02  0.10004769521E+03  0.10266505463E+03  0.00000000000E+00 0. -1.
</event>
<event>
 7    1  0.6058736E-006  0.7289810E+02  0.7818608E-02  0.1432634E+00
          2   -1    0    0  502    0  0.00000000000E+00  0.00000000000E+00  0.35964161808E+02  0.35964161808E+02  0.00000000000E+00 0. -1.
          1   -1    0    0  501    0 -0.00000000000E+00 -0.00000000000E+00 -0.36152660253E+04  0.36152660253E+04  0.00000000000E+00 0. -1.
         25    2    1    2    0    0  0.74813324445E+02  0.75175870659E+02 -0.32106875540E+03  0.36049758844E+03  0.12499968215E+03 0.  0.
          2    1    1    2  501    0 -0.59790167327E+02 -0.40581079727E+02 -0.32516422457E+04  0.32524450775E+04  0.00000000000E+00 0. -1.
          1    1    1    2  502    0 -0.15023157118E+02 -0.34594790933E+02 -0.65908623916E+01  0.38287521160E+02  0.00000000000E+00 0. -1.
         22    1    3    3    0    0  0.34533159048E+02  0.10065567259E+02 -0.62580530896E+01  0.36510518300E+02  0.00000000000E+00 0. -1.
         22    1    3    3    0    0  0.40280165398E+02  0.65110303400E+02 -0.31481070231E+03  0.32398707015E+03  0.00000000000E+00 0. -1.
</event>
<event>
 7    1  0.6058736E-006  0.1792025E+03  0.7818608E-02  0.1273945E+00
          2   -1    0    0  502    0  0.00000000000E+00  0.00000000000E+00  0.15080644062E+04  0.15080644062E+04  0.00000000000E+00 0. -1.
          1   -1    0    0  501    0 -0.00000000000E+00 -0.00000000000E+00 -0.10263895519E+03  0.10263895519E+03  0.00000000000E+00 0. -1.
         25    2    1    2    0    0  0.17647210893E+03  0.15981114398E+02  0.99162642820E+03  0.10150591029E+04  0.12499683234E+03 0.  0.
          2    1    1    2  501    0 -0.17492281832E+03  0.43294003179E+02  0.26283504079E+01  0.18022006356E+03  0.00000000000E+00 0. -1.
          1    1    1    2  502    0 -0.15492906099E+01 -0.59275117577E+02  0.41117067241E+03  0.41542419491E+03  0.00000000000E+00 0. -1.
         22    1    3    3    0    0  0.17365359871E+03 -0.14476578037E+02  0.93084436949E+03  0.94701445811E+03  0.00000000000E+00 0. -1.
         22    1    3    3    0    0  0.28185102262E+01  0.30457692435E+02  0.60782058705E+02  0.68044644821E+02  0.00000000000E+00 0. -1.
</event>
<event>
 7    1  0.6058736E-006  0.8907891E+02  0.7818608E-02  0.1334470E+00
          2   -1    0    0  502    0  0.00000000000E+00  0.00000000000E+00  0.70729325257E+03  0.70729325257E+03  0.00000000000E+00 0. -1.
          1   -1    0    0  501    0 -0.00000000000E+00 -0.00000000000E+00 -0.15420847976E+04  0.15420847976E+04  0.00000000000E+00 0. -1.
         25    2    1    2    0    0  0.14596643061E+03 -0.39491671646E+02 -0.48178345563E+03  0.52019774044E+03  0.12499840014E+03 0.  0.
          2    1    1    2  501    0 -0.57236807141E+02  0.37652301672E+02 -0.10370975804E+04  0.10393580419E+04  0.00000000000E+00 0. -1.
          1    1    1    2  502    0 -0.88729623470E+02  0.18393699743E+01  0.68408949107E+03  0.68982226781E+03  0.00000000000E+00 0. -1.
         22    1    3    3    0    0  0.72519491139E+02  0.37953432871E+02 -0.14038737630E+03  0.16250586170E+03  0.00000000000E+00 0. -1.
         22    1    3    3    0    0  0.73446939472E+02 -0.77445104517E+02 -0.34139607934E+03  0.35769187874E+03  0.00000000000E+00 0. -1.
</event>
<event>
 7    1  0.6058736E-006  0.6503169E+02  0.7818608E-02  0.1402617E+00
          2   -1    0    0  502    0  0.00000000000E+00  0.00000000000E+00  0.20179932112E+04  0.20179932112E+04  0.00000000000E+00 0. -1.
          1   -1    0    0  501    0 -0.00000000000E+00 -0.00000000000E+00 -0.66861494459E+03  0.66861494459E+03  0.00000000000E+00 0. -1.
         25    2    1    2    0    0 -0.10372904229E+03 -0.54273278537E+02  0.88253491922E+03  0.89899786679E+03  0.12499591142E+03 0.  0.
          2    1    1    2  501    0  0.53245008911E+02  0.37177645845E+02 -0.65815448611E+03  0.66135053936E+03  0.00000000000E+00 0. -1.
          1    1    1    2  502    0  0.50484033375E+02  0.17095632692E+02  0.11249978335E+04  0.11262597496E+04  0.00000000000E+00 0. -1.
         22    1    3    3    0    0  0.26233364735E+02 -0.22003352762E+02  0.25846157478E+03  0.26071962449E+03  0.00000000000E+00 0. -1.
         22    1    3    3    0    0 -0.12996240702E+03 -0.32269925775E+02  0.62407334444E+03  0.63827824230E+03  0.00000000000E+00 0. -1.
</event>
<event>
 7    1  0.6058736E-006  0.9020562E+02  0.7818608E-02  0.1463357E+00
          2   -1    0    0  502    0  0.00000000000E+00  0.00000000000E+00  0.36440588875E+02  0.36440588875E+02  0.00000000000E+00 0. -1.
          1   -1    0    0  501    0 -0.00000000000E+00 -0.00000000000E+00 -0.11975549490E+04  0.11975549490E+04  0.00000000000E+00 0. -1.
         25    2    1    2    0    0  0.62546185295E+02 -0.30654491008E+02 -0.46729282959E+03  0.48871118044E+03  0.12499722472E+03 0.  0.
          2    1    1    2  501    0  0.21302774986E+02 -0.11669139134E+02 -0.63282503340E+03  0.63329100730E+03  0.00000000000E+00 0. -1.
          1    1    1    2  502    0 -0.83848960281E+02  0.42323630142E+02 -0.60996497108E+02  0.11199335011E+03  0.00000000000E+00 0. -1.
         22    1    3    3    0    0  0.80099533172E+02 -0.35611641026E+02 -0.17382731303E+03  0.19467937473E+03  0.00000000000E+00 0.  1.
         22    1    3    3    0    0 -0.17553347878E+02  0.49571500181E+01 -0.29346551656E+03  0.29403180571E+03  0.00000000000E+00 0.  1.
</event>
<event>
 7    1  0.6058736E-006  0.1429597E+03  0.7818608E-02  0.1371224E+00
          2   -1    0    0  502    0  0.00000000000E+00  0.00000000000E+00  0.17482026545E+04  0.17482026545E+04  0.00000000000E+00 0. -1.
          1   -1    0    0  501    0 -0.00000000000E+00 -0.00000000000E+00 -0.37792545452E+03  0.37792545452E+03  0.00000000000E+00 0. -1.
         25    2    1    2    0    0  0.12002320496E+02  0.16257022114E+03 -0.12270647294E+03  0.23928058003E+03  0.12500073992E+03 0.  0.
          2    1    1    2  501    0  0.20416603451E+02 -0.23644560674E+02 -0.19266085111E+03  0.19517711571E+03  0.00000000000E+00 0. -1.
          1    1    1    2  502    0 -0.32418923947E+02 -0.13892566046E+03  0.16856445240E+04  0.16916704132E+04  0.00000000000E+00 0. -1.
         22    1    3    3    0    0  0.58404779207E+02  0.67224732683E+02 -0.19197156990E+02  0.91097825194E+02  0.00000000000E+00 0. -1.
         22    1    3    3    0    0 -0.46402458711E+02  0.95345488452E+02 -0.10350931595E+03  0.14818275483E+03  0.00000000000E+00 0. -1.
</event>
<event>
 7    1  0.6058736E-006  0.7966210E+02  0.7818608E-02  0.1486642E+00
          2   -1    0    0  502    0  0.00000000000E+00  0.00000000000E+00  0.17433614965E+04  0.17433614965E+04  0.00000000000E+00 0. -1.
          1   -1    0    0  501    0 -0.00000000000E+00 -0.00000000000E+00 -0.34194867915E+02  0.34194867915E+02  0.00000000000E+00 0. -1.
         25    2    1    2    0    0  0.94953764244E+02 -0.20284902252E+01  0.14101229890E+04  0.14188346286E+04  0.12499810860E+03 0.  0.
          2    1    1    2  501    0 -0.77924167896E+02 -0.13882327447E+02  0.24024429060E+02  0.82716794844E+02  0.00000000000E+00 0. -1.
          1    1    1    2  502    0 -0.17029596348E+02  0.15910817673E+02  0.27501921046E+03  0.27600494089E+03  0.00000000000E+00 0. -1.
         22    1    3    3    0    0  0.55344447231E+02 -0.24097562207E+02  0.12725744674E+04  0.12740052886E+04  0.00000000000E+00 0.  1.
         22    1    3    3    0    0  0.39609317013E+02  0.22069071982E+02  0.13754852162E+03  0.14482934002E+03  0.00000000000E+00 0.  1.
</event>
<event>
 7    1  0.6058736E-006  0.6764375E+02  0.7818608E-02  0.1377911E+00
          2   -1    0    0  502    0  0.00000000000E+00  0.00000000000E+00  0.29016747959E+03  0.29016747959E+03  0.00000000000E+00 0. -1.
          1   -1    0    0  501    0 -0.00000000000E+00 -0.00000000000E+00 -0.12301257401E+04  0.12301257401E+04  0.00000000000E+00 0. -1.
         25    2    1    2    0    0 -0.11023482139E+03  0.97717765768E+01 -0.35845993998E+03  0.39543022642E+03  0.12499732768E+03 0.  0.
          2    1    1    2  501    0  0.55283423002E+02  0.29134324650E+02 -0.84784146680E+03  0.85014129329E+03  0.00000000000E+00 0. -1.
          1    1    1    2  502    0  0.54951398391E+02 -0.38906101227E+02  0.26634314625E+03  0.27472170000E+03  0.00000000000E+00 0. -1.
         22    1    3    3    0    0 -0.12952634771E+03 -0.19499618292E+02 -0.26483216656E+03  0.29545454187E+03  0.00000000000E+00 0. -1.
         22    1    3    3    0    0  0.19291526319E+02  0.29271394869E+02 -0.93627773424E+02  0.99975684552E+02  0.00000000000E+00 0. -1.
</event>
<event>
 7    1  0.6058736E-006  0.9667506E+02  0.7818608E-02  0.1351734E+00
          2   -1    0    0  502    0  0.00000000000E+00  0.00000000000E+00  0.39647094916E+04  0.39647094916E+04  0.00000000000E+00 0. -1.
          1   -1    0    0  501    0 -0.00000000000E+00 -0.00000000000E+00 -0.21615123036E+04  0.21615123036E+04  0.00000000000E+00 0. -1.
         25    2    1    2    0    0 -0.41124833907E+02 -0.41700486785E+02  0.80566461535E+02  0.15983101443E+03  0.12499926354E+03 0.  0.
          2    1    1    2  501    0  0.15309015623E+02 -0.52198466508E+02 -0.21209145459E+04  0.21216120184E+04  0.00000000000E+00 0. -1.
          1    1    1    2  502    0  0.25815818284E+02  0.93898953293E+02  0.38435452724E+04  0.38447787623E+04  0.00000000000E+00 0. -1.
         22    1    3    3    0    0 -0.46429769102E+02  0.35186573398E+02  0.50521394729E+02  0.77111800210E+02  0.00000000000E+00 0. -1.
         22    1    3    3    0    0  0.53049351948E+01 -0.76887060183E+02  0.30045066806E+02  0.82719214215E+02  0.00000000000E+00 0. -1.
</event>
<event>
 7    1  0.6462916E-006  0.6953238E+02  0.7818608E-02  0.1377497E+00
          2   -1    0    0  502    0  0.00000000000E+00  0.00000000000E+00  0.38391804907E+03  0.38391804907E+03  0.00000000000E+00 0. -1.
          1   -1    0    0  501    0 -0.00000000000E+00 -0.00000000000E+00 -0.16063208236E+04  0.16063208236E+04  0.00000000000E+00 0. -1.
         25    2    1    2    0    0 -0.80268112075E+01 -0.46154083469E+01 -0.49197316432E+03  0.50769070648E+03  0.12500610918E+03 0.  0.
          2    1    1    2  501    0 -0.42075787963E+02 -0.44165052055E+02 -0.11023877085E+04  0.11040740843E+04  0.00000000000E+00 0. -1.
          1    1    1    2  502    0  0.50102599170E+02  0.48780460402E+02  0.37195809831E+03  0.37847408189E+03  0.00000000000E+00 0. -1.
         22    1    3    3    0    0 -0.43634404236E+01  0.59568968007E+02 -0.27400422968E+03  0.28043861974E+03  0.00000000000E+00 0.  1.
         22    1    3    3    0    0 -0.36633707839E+01 -0.64184376354E+02 -0.21796893465E+03  0.22725208673E+03  0.00000000000E+00 0.  1.
</event>
<event>
 7    1  0.6058736E-006  0.9102711E+02  0.7818608E-02  0.1378609E+00
          2   -1    0    0  502    0  0.00000000000E+00  0.00000000000E+00  0.12703642171E+04  0.12703642171E+04  0.00000000000E+00 0. -1.
          1   -1    0    0  501    0 -0.00000000000E+00 -0.00000000000E+00 -0.79609710861E+02  0.79609710861E+02  0.00000000000E+00 0. -1.
         25    2    1    2    0    0  0.23862973785E+02 -0.72472441672E+02  0.45439769349E+03  0.47741400272E+03  0.12500067930E+03 0.  0.
          2    1    1    2  501    0  0.45847262060E+02  0.54794910207E+01 -0.56987792704E+02  0.73345789092E+02  0.00000000000E+00 0. -1.
          1    1    1    2  502    0 -0.69710235845E+02  0.66992950651E+02  0.79334460543E+03  0.79921413612E+03  0.00000000000E+00 0. -1.
         22    1    3    3    0    0 -0.91760434854E+01  0.33522034921E+02  0.12885442958E+03  0.13345932198E+03  0.00000000000E+00 0. -1.
         22    1    3    3    0    0  0.33039017271E+02 -0.10599447659E+03  0.32554326391E+03  0.34395468074E+03  0.00000000000E+00 0. -1.
</event>
<event>
 7    1  0.6058736E-006  0.5235130E+02  0.7818608E-02  0.1477639E+00
          2   -1    0    0  502    0  0.00000000000E+00  0.00000000000E+00  0.19076210982E+03  0.19076210982E+03  0.00000000000E+00 0. -1.
          1   -1    0    0  501    0 -0.00000000000E+00 -0.00000000000E+00 -0.48229423315E+03  0.48229423315E+03  0.00000000000E+00 0. -1.
         25    2    1    2    0    0 -0.11472956289E+02 -0.83663807700E+02 -0.10867871059E+02  0.15124105498E+03  0.12499793857E+03 0.  0.
          2    1    1    2  501    0 -0.76766518511E+01  0.51090117385E+02 -0.39656217611E+03  0.39991335387E+03  0.00000000000E+00 0. -1.
          1    1    1    2  502    0  0.19149608140E+02  0.32573690316E+02  0.11589792384E+03  0.12190193413E+03  0.00000000000E+00 0. -1.
         22    1    3    3    0    0 -0.20942885028E+02 -0.11607981187E+02 -0.59269125649E+02  0.63923226731E+02  0.00000000000E+00 0.  1.
         22    1    3    3    0    0  0.94699287393E+01 -0.72055826513E+02  0.48401254590E+02  0.87317828252E+02  0.00000000000E+00 0.  1.
</event>
<event>
 7    1  0.6058736E-006  0.7868219E+02  0.7818608E-02  0.1504336E+00
          2   -1    0    0  502    0  0.00000000000E+00  0.00000000000E+00  0.16594600624E+04  0.16594600624E+04  0.00000000000E+00 0. -1.
          1   -1    0    0  501    0 -0.00000000000E+00 -0.00000000000E+00 -0.17894568895E+04  0.17894568895E+04  0.00000000000E+00 0. -1.
         25    2    1    2    0    0 -0.87207227008E+02  0.44584510639E+02  0.94890301375E+02  0.18499105687E+03  0.12499857118E+03 0.  0.
          2    1    1    2  501    0  0.72840615346E+02 -0.29434088533E+02 -0.17434501523E+04  0.17452193427E+04  0.00000000000E+00 0. -1.
          1    1    1    2  502    0  0.14366611662E+02 -0.15150422106E+02  0.15185630238E+04  0.15187065523E+04  0.00000000000E+00 0. -1.
         22    1    3    3    0    0  0.12549621947E+02 -0.29219644120E+02  0.34717963895E+02  0.47080968878E+02  0.00000000000E+00 0. -1.
         22    1    3    3    0    0 -0.99756848956E+02  0.73804154759E+02  0.60172337479E+02  0.13791008800E+03  0.00000000000E+00 0. -1.
</event>
<event>
 7    1  0.6058736E-006  0.4059210E+02  0.7818608E-02  0.1598585E+00
          2   -1    0    0  502    0  0.00000000000E+00  0.00000000000E+00  0.29705077247E+03  0.29705077247E+03  0.00000000000E+00 0. -1.
          1   -1    0    0  501    0 -0.00000000000E+00 -0.00000000000E+00 -0.92506415922E+02  0.92506415922E+02  0.00000000000E+00 0. -1.
         25    2    1    2    0    0  0.35157731694E+02  0.43906246489E+00  0.94840835027E+02  0.16079113511E+03  0.12499098475E+03 0.  0.
          2    1    1    2  501    0 -0.35037847788E+02  0.21666229002E+02 -0.51558986331E+02  0.65995494757E+02  0.00000000000E+00 0. -1.
          1    1    1    2  502    0 -0.11988390656E+00 -0.22105291467E+02  0.16126250785E+03  0.16277055852E+03  0.00000000000E+00 0. -1.
         22    1    3    3    0    0 -0.34599644260E+02 -0.23091086346E+02  0.11187437849E+01  0.41612320762E+02  0.00000000000E+00 0.  1.
         22    1    3    3    0    0  0.69757375954E+02  0.23530148811E+02  0.93722091242E+02  0.11917881435E+03  0.00000000000E+00 0.  1.
</event>
<event>
 7    1  0.6058736E-006  0.1448942E+03  0.7818608E-02  0.1294064E+00
          2   -1    0    0  502    0  0.00000000000E+00  0.00000000000E+00  0.27376297949E+04  0.27376297949E+04  0.00000000000E+00 0. -1.
          1   -1    0    0  501    0 -0.00000000000E+00 -0.00000000000E+00 -0.79983389789E+03  0.79983389789E+03  0.00000000000E+00 0. -1.
         25    2    1    2    0    0  0.73129085471E+02  0.12132556062E+03 -0.81316946803E+02  0.20568151732E+03  0.12499874370E+03 0.  0.
          2    1    1    2  501    0  0.46392733355E+02 -0.39037526041E+02 -0.65296154309E+03  0.65577053220E+03  0.00000000000E+00 0. -1.
          1    1    1    2  502    0 -0.11952181883E+03 -0.82288034582E+02  0.26720743869E+04  0.26760116433E+04  0.00000000000E+00 0. -1.
         22    1    3    3    0    0  0.16925984435E+02  0.12081552026E+03 -0.86030677263E+02  0.14927878722E+03  0.00000000000E+00 0.  1.
         22    1    3    3    0    0  0.56203101036E+02  0.51004036669E+00  0.47137304606E+01  0.56402730095E+02  0.00000000000E+00 0.  1.
</event>
<event>
 7    1  0.6058736E-006  0.8871896E+02  0.7818608E-02  0.1315063E+00
          2   -1    0    0  502    0  0.00000000000E+00  0.00000000000E+00  0.18731530812E+03  0.18731530812E+03  0.00000000000E+00 0. -1.
          1   -1    0    0  501    0 -0.00000000000E+00 -0.00000000000E+00 -0.13479627651E+04  0.13479627651E+04  0.00000000000E+00 0. -1.
         25    2    1    2    0    0 -0.34948681311E+01  0.24537823648E+02 -0.23929944371E+03  0.27111426591E+03  0.12499761007E+03 0.  0.
          2    1    1    2  501    0  0.90513301814E+02 -0.72506452511E+01 -0.10792401814E+04  0.10830533684E+04  0.00000000000E+00 0. -1.
          1    1    1    2  502    0 -0.87018433683E+02 -0.17287178397E+02  0.15789216811E+03  0.18111043893E+03  0.00000000000E+00 0. -1.
         22    1    3    3    0    0  0.59337283328E+02  0.11012378882E+01 -0.95355505768E+02  0.11231561956E+03  0.00000000000E+00 0. -1.
         22    1    3    3    0    0 -0.62832151459E+02  0.23436585760E+02 -0.14394393795E+03  0.15879864634E+03  0.00000000000E+00 0. -1.
</event>
<event>
 7    1  0.6058736E-006  0.3009626E+03  0.7818608E-02  0.1094275E+00
          2   -1    0    0  502    0  0.00000000000E+00  0.00000000000E+00  0.29160390861E+04  0.29160390861E+04  0.00000000000E+00 0. -1.
          1   -1    0    0  501    0 -0.00000000000E+00 -0.00000000000E+00 -0.47920196338E+03  0.47920196338E+03  0.00000000000E+00 0. -1.
         25    2    1    2    0    0 -0.10247990108E+03  0.83929837151E+02 -0.10672734829E+03  0.21109625922E+03  0.12499822436E+03 0.  0.
          2    1    1    2  501    0 -0.19643042089E+03 -0.17842286353E+03 -0.25502886552E+03  0.36804802775E+03  0.00000000000E+00 0. -1.
          1    1    1    2  502    0  0.29891032197E+03  0.94493026380E+02  0.27985933365E+04  0.28160967625E+04  0.00000000000E+00 0. -1.
         22    1    3    3    0    0 -0.24928963518E+02  0.98182196750E+02 -0.44460560785E+02  0.11062521614E+03  0.00000000000E+00 0.  1.
         22    1    3    3    0    0 -0.77550937562E+02 -0.14252359599E+02 -0.62266787506E+02  0.10047104308E+03  0.00000000000E+00 0.  1.
</event>
<event>
 7    1  0.6058736E-006  0.1049550E+03  0.7818608E-02  0.1358834E+00
          2   -1    0    0  502    0  0.00000000000E+00  0.00000000000E+00  0.96049893344E+03  0.96049893344E+03  0.00000000000E+00 0. -1.
          1   -1    0    0  501    0 -0.00000000000E+00 -0.00000000000E+00 -0.11511699998E+04  0.11511699998E+04  0.00000000000E+00 0. -1.
         25    2    1    2    0    0  0.45504140624E+02  0.51017259634E+02 -0.60603985252E+01  0.14259846371E+03  0.12499682328E+03 0.  0.
          2    1    1    2  501    0 -0.92664457086E+02 -0.52501157212E+02 -0.10735799735E+04  0.10788498656E+04  0.00000000000E+00 0. -1.
          1    1    1    2  502    0  0.47160316461E+02  0.14838975782E+01  0.88896930559E+03  0.89022060394E+03  0.00000000000E+00 0. -1.
         22    1    3    3    0    0  0.25560310061E+02  0.89819061407E+02 -0.22361706359E+02  0.96025200618E+02  0.00000000000E+00 0.  1.
         22    1    3    3    0    0  0.19943830563E+02 -0.38801801773E+02  0.16301307834E+02  0.46573263096E+02  0.00000000000E+00 0.  1.
</event>
<event>
 7    1  0.6058736E-006  0.1178786E+03  0.7818608E-02  0.1430272E+00
          2   -1    0    0  502    0  0.00000000000E+00  0.00000000000E+00  0.28957695743E+03  0.28957695743E+03  0.00000000000E+00 0. -1.
          1   -1    0    0  501    0 -0.00000000000E+00 -0.00000000000E+00 -0.28301256968E+03  0.28301256968E+03  0.00000000000E+00 0. -1.
         25    2    1    2    0    0 -0.92256465152E+02 -0.96504997888E+02 -0.11644917740E+03  0.21679055177E+03  0.12495304094E+03 0.  0.
          2    1    1    2  501    0  0.75484013866E+02  0.79697422715E+02 -0.89703236277E+02  0.14176101769E+03  0.00000000000E+00 0. -1.
          1    1    1    2  502    0  0.16772451286E+02  0.16807575173E+02  0.21271680143E+03  0.21403795765E+03  0.00000000000E+00 0. -1.
         22    1    3    3    0    0 -0.11800903032E+02 -0.98111864761E+02 -0.85157039648E+02  0.13044891997E+03  0.00000000000E+00 0. -1.
         22    1    3    3    0    0 -0.80455562120E+02  0.16068668731E+01 -0.31292137752E+02  0.86341631803E+02  0.00000000000E+00 0. -1.
</event>
<event>
 7    1  0.6058736E-006  0.5312866E+02  0.7818608E-02  0.1447611E+00
          2   -1    0    0  502    0  0.00000000000E+00  0.00000000000E+00  0.15199149524E+04  0.15199149524E+04  0.00000000000E+00 0. -1.
          1   -1    0    0  501    0 -0.00000000000E+00 -0.00000000000E+00 -0.19507926087E+04  0.19507926087E+04  0.00000000000E+00 0. -1.
         25    2    1    2    0    0  0.35356092047E+02 -0.78632443826E+02  0.10677262145E+04  0.10784700181E+04  0.12500078509E+03 0.  0.
          2    1    1    2  501    0 -0.18288117730E+01  0.46235267475E+02 -0.19439284565E+04  0.19444790789E+04  0.00000000000E+00 0. -1.
          1    1    1    2  502    0 -0.33527280274E+02  0.32397176351E+02  0.44532458568E+03  0.44775846409E+03  0.00000000000E+00 0. -1.
         22    1    3    3    0    0  0.80557761724E+02 -0.31502261490E+02  0.59483859316E+03  0.60109474907E+03  0.00000000000E+00 0. -1.
         22    1    3    3    0    0 -0.45201669677E+02 -0.47130182336E+02  0.47288762139E+03  0.47737526904E+03  0.00000000000E+00 0. -1.
</event>
<event>
 7    1  0.6058736E-006  0.4773657E+02  0.7818608E-02  0.1496993E+00
          2   -1    0    0  502    0  0.00000000000E+00  0.00000000000E+00  0.65726040694E+03  0.65726040694E+03  0.00000000000E+00 0. -1.
          1   -1    0    0  501    0 -0.00000000000E+00 -0.00000000000E+00 -0.35158635877E+02  0.35158635877E+02  0.00000000000E+00 0. -1.
         25    2    1    2    0    0  0.10616452990E+02 -0.10043432925E+02  0.32476954618E+03  0.34832074554E+03  0.12505400445E+03 0.  0.
          2    1    1    2  501    0 -0.41522126480E+02  0.28879126563E+02  0.64663369190E+01  0.50989258198E+02  0.00000000000E+00 0. -1.
          1    1    1    2  502    0  0.30905673490E+02 -0.18835693637E+02  0.29086588797E+03  0.29310903908E+03  0.00000000000E+00 0. -1.
         22    1    3    3    0    0  0.18597418907E+02  0.55513121236E+02  0.17791837909E+03  0.18730328411E+03  0.00000000000E+00 0. -1.
         22    1    3    3    0    0 -0.79809659176E+01 -0.65556554161E+02  0.14685116709E+03  0.16101746143E+03  0.00000000000E+00 0. -1.
</event>
<event>
 7    1  0.6058736E-006  0.7341007E+02  0.7818608E-02  0.1365116E+00
          2   -1    0    0  502    0  0.00000000000E+00  0.00000000000E+00  0.19135599911E+04  0.19135599911E+04  0.00000000000E+00 0. -1.
          1   -1    0    0  501    0 -0.00000000000E+00 -0.00000000000E+00 -0.28636678491E+03  0.28636678491E+03  0.00000000000E+00 0. -1.
         25    2    1    2    0    0  0.77944377550E+02  0.10082832143E+03 -0.23611833355E+02  0.18007048742E+03  0.12500474139E+03 0.  0.
          2    1    1    2  501    0 -0.56076747656E+02 -0.40679720181E+02 -0.17744349449E+03  0.19048788675E+03  0.00000000000E+00 0. -1.
          1    1    1    2  502    0 -0.21867629894E+02 -0.60148601247E+02  0.18282485340E+04  0.18293684018E+04  0.00000000000E+00 0. -1.
         22    1    3    3    0    0  0.71921897080E+02 -0.36539455161E+01 -0.22364232156E+02  0.75407356918E+02  0.00000000000E+00 0.  1.
         22    1    3    3    0    0  0.60224804695E+01  0.10448226694E+03 -0.12476011984E+01  0.10466313050E+03  0.00000000000E+00 0.  1.
</event>
<event>
 7    1  0.6058736E-006  0.6277671E+02  0.7818608E-02  0.1408359E+00
          2   -1    0    0  502    0  0.00000000000E+00  0.00000000000E+00  0.21890770090E+03  0.21890770090E+03  0.00000000000E+00 0. -1.
          1   -1    0    0  501    0 -0.00000000000E+00 -0.00000000000E+00 -0.37140554869E+03  0.37140554869E+03  0.00000000000E+00 0. -1.
         25    2    1    2    0    0  0.52006680582E+02 -0.10187496383E+03  0.82392887509E+02  0.18839903794E+03  0.12498962559E+03 0.  0.
          2    1    1    2  501    0 -0.28579570362E+02  0.54579304243E+02 -0.30668207521E+03  0.31280918713E+03  0.00000000000E+00 0. -1.
          1    1    1    2  502    0 -0.23427110220E+02  0.47295659584E+02  0.71791339909E+02  0.89105024520E+02  0.00000000000E+00 0. -1.
         22    1    3    3    0    0 -0.45463909558E+01  0.23585776389E+02 -0.61029435452E+01  0.24783148276E+02  0.00000000000E+00 0. -1.
         22    1    3    3    0    0  0.56553071538E+02 -0.12546074022E+03  0.88495831054E+02  0.16361588966E+03  0.00000000000E+00 0. -1.
</event>
<event>
 7    1  0.6058736E-006  0.1253987E+03  0.7818608E-02  0.1293393E+00
          2   -1    0    0  502    0  0.00000000000E+00  0.00000000000E+00  0.10142882222E+04  0.10142882222E+04  0.00000000000E+00 0. -1.
          1   -1    0    0  501    0 -0.00000000000E+00 -0.00000000000E+00 -0.49059191951E+03  0.49059191951E+03  0.00000000000E+00 0. -1.
         25    2    1    2    0    0  0.18840490974E+03  0.40014161112E+02  0.58076538800E+02  0.23685090331E+03  0.12501169119E+03 0.  0.
          2    1    1    2  501    0 -0.69337364521E+02 -0.12735378133E+02 -0.39375519117E+03  0.40001626285E+03  0.00000000000E+00 0. -1.
          1    1    1    2  502    0 -0.11906754522E+03 -0.27278782979E+02  0.85937495502E+03  0.86801297550E+03  0.00000000000E+00 0. -1.
         22    1    3    3    0    0  0.13255622463E+03 -0.17125177635E+01  0.89941660859E+02  0.16019858852E+03  0.00000000000E+00 0.  1.
         22    1    3    3    0    0  0.55848685114E+02  0.41726678875E+02 -0.31865122059E+02  0.76652314790E+02  0.00000000000E+00 0.  1.
</event>
<event>
 7    1  0.6058736E-006  0.4602272E+02  0.7818608E-02  0.1494924E+00
          2   -1    0    0  502    0  0.00000000000E+00  0.00000000000E+00  0.23334706088E+04  0.23334706088E+04  0.00000000000E+00 0. -1.
          1   -1    0    0  501    0 -0.00000000000E+00 -0.00000000000E+00 -0.17237276445E+04  0.17237276445E+04  0.00000000000E+00 0. -1.
         25    2    1    2    0    0 -0.57893305844E+01 -0.20771968842E+02  0.18908306129E+03  0.22768915849E+03  0.12499983116E+03 0.  0.
          2    1    1    2  501    0 -0.37793720873E+02  0.46725493252E+01 -0.17039578765E+04  0.17043833615E+04  0.00000000000E+00 0. -1.
          1    1    1    2  502    0  0.43583051457E+02  0.16099419516E+02  0.21246177795E+04  0.21251257334E+04  0.00000000000E+00 0. -1.
         22    1    3    3    0    0 -0.60257194328E+02 -0.59406742902E+00  0.55085049671E+02  0.81643401948E+02  0.00000000000E+00 0.  1.
         22    1    3    3    0    0  0.54467863744E+02 -0.20177901413E+02  0.13399801162E+03  0.14604575654E+03  0.00000000000E+00 0.  1.
</event>
<event>
 7    1  0.6058736E-006  0.8672687E+02  0.7818608E-02  0.1475368E+00
          2   -1    0    0  502    0  0.00000000000E+00  0.00000000000E+00  0.47689516797E+03  0.47689516797E+03  0.00000000000E+00 0. -1.
          1   -1    0    0  501    0 -0.00000000000E+00 -0.00000000000E+00 -0.13515535424E+04  0.13515535424E+04  0.00000000000E+00 0. -1.
         25    2    1    2    0    0  0.72310648775E+02  0.18591227171E+02 -0.20806922237E+03  0.25395226972E+03  0.12499796138E+03 0.  0.
          2    1    1    2  501    0 -0.87767925381E+02 -0.13184227984E+01 -0.11185263067E+04  0.11219652605E+04  0.00000000000E+00 0. -1.
          1    1    1    2  502    0  0.15457276606E+02 -0.17272804373E+02  0.45193715469E+03  0.45253118010E+03  0.00000000000E+00 0. -1.
         22    1    3    3    0    0 -0.32526734849E+02 -0.63284971497E+01 -0.24948193078E+02  0.41478315949E+02  0.00000000000E+00 0. -1.
         22    1    3    3    0    0  0.10483738362E+03  0.24919724321E+02 -0.18312102929E+03  0.21247395378E+03  0.00000000000E+00 0. -1.
</event>
<event>
 7    1  0.6058736E-006  0.9473801E+02  0.7818608E-02  0.1381462E+00
          2   -1    0    0  502    0  0.00000000000E+00  0.00000000000E+00  0.87855580224E+03  0.87855580224E+03  0.00000000000E+00 0. -1.
          1   -1    0    0  501    0 -0.00000000000E+00 -0.00000000000E+00 -0.69206111636E+02  0.69206111636E+02  0.00000000000E+00 0. -1.
         25    2    1    2    0    0  0.89557108488E+02  0.71305555622E+02  0.43221859501E+03  0.46426639452E+03  0.12500165307E+03 0.  0.
          2    1    1    2  501    0 -0.89257776897E+02 -0.27961955049E+02 -0.98883977075E+01  0.94056377115E+02  0.00000000000E+00 0. -1.
          1    1    1    2  502    0 -0.29933159082E+00 -0.43343600573E+02  0.38701949330E+03  0.38943914223E+03  0.00000000000E+00 0. -1.
         22    1    3    3    0    0  0.30291772444E+02 -0.11724917727E+02  0.16924005922E+02  0.36626317723E+02  0.00000000000E+00 0.  1.
         22    1    3    3    0    0  0.59265336044E+02  0.83030473349E+02  0.41529458909E+03  0.42764007680E+03  0.00000000000E+00 0.  1.
</event>
<event>
 7    1  0.6058736E-006  0.1338746E+03  0.7818608E-02  0.1375344E+00
          2   -1    0    0  502    0  0.00000000000E+00  0.00000000000E+00  0.20378210861E+04  0.20378210861E+04  0.00000000000E+00 0. -1.
          1   -1    0    0  501    0 -0.00000000000E+00 -0.00000000000E+00 -0.16601706411E+02  0.16601706411E+02  0.00000000000E+00 0. -1.
         25    2    1    2    0    0  0.46102307783E+02  0.14122414320E+03  0.13637447301E+04  0.13774959682E+04  0.12500308841E+03 0.  0.
          2    1    1    2  501    0 -0.61815416198E+02 -0.11306525093E+03  0.52362815762E+03  0.53925072471E+03  0.00000000000E+00 0. -1.
          1    1    1    2  502    0  0.15713108416E+02 -0.28158892271E+02  0.13384649193E+03  0.13767609957E+03  0.00000000000E+00 0. -1.
         22    1    3    3    0    0  0.48901259371E+02  0.81165073281E+02  0.11875659966E+04  0.11913404629E+04  0.00000000000E+00 0. -1.
         22    1    3    3    0    0 -0.27989515881E+01  0.60059069924E+02  0.17617873352E+03  0.18615550530E+03  0.00000000000E+00 0. -1.
</event>
<event>
 7    1  0.6058736E-006  0.6333723E+02  0.7818608E-02  0.1389518E+00
          2   -1    0    0  502    0  0.00000000000E+00  0.00000000000E+00  0.66437368184E+03  0.66437368184E+03  0.00000000000E+00 0. -1.
          1   -1    0    0  501    0 -0.00000000000E+00 -0.00000000000E+00 -0.36776442350E+03  0.36776442350E+03  0.00000000000E+00 0. -1.
         25    2    1    2    0    0  0.24281980561E+02  0.84117884356E+02 -0.19226165530E+03  0.24546524470E+03  0.12499283662E+03 0.  0.
          2    1    1    2  501    0  0.28930711571E+02 -0.54823501816E+02 -0.14092415138E+03  0.15395524956E+03  0.00000000000E+00 0. -1.
          1    1    1    2  502    0 -0.53212692132E+02 -0.29294382540E+02  0.62979506502E+03  0.63271761108E+03  0.00000000000E+00 0. -1.
         22    1    3    3    0    0  0.24595911826E+02  0.86920597671E+02 -0.20942239551E+03  0.22807430570E+03  0.00000000000E+00 0. -1.
         22    1    3    3    0    0 -0.31393126493E+00 -0.28027133145E+01  0.17160740210E+02  0.17390939001E+02  0.00000000000E+00 0. -1.
</event>
<event>
 7    1  0.6058736E-006  0.1007362E+03  0.7818608E-02  0.1289946E+00
          2   -1    0    0  502    0  0.00000000000E+00  0.00000000000E+00  0.96827388240E+02  0.96827388240E+02  0.00000000000E+00 0. -1.
          1   -1    0    0  501    0 -0.00000000000E+00 -0.00000000000E+00 -0.21126688721E+04  0.21126688721E+04  0.00000000000E+00 0. -1.
         25    2    1    2    0    0 -0.32708774890E+02 -0.50147885477E+01 -0.52572017221E+03  0.54138023525E+03  0.12496338499E+03 0.  0.
          2    1    1    2  501    0  0.10954130378E+03  0.53078176268E+02 -0.15530310367E+04  0.15577939501E+04  0.00000000000E+00 0. -1.
          1    1    1    2  502    0 -0.76832528891E+02 -0.48063387720E+02  0.62909725018E+02  0.11032207502E+03  0.00000000000E+00 0. -1.
         22    1    3    3    0    0 -0.56074954569E+02 -0.48109789448E+02 -0.39324599933E+03  0.40012669038E+03  0.00000000000E+00 0. -1.
         22    1    3    3    0    0  0.23366179679E+02  0.43095000900E+02 -0.13247417288E+03  0.14125354486E+03  0.00000000000E+00 0. -1.
</event>
<event>
 7    1  0.6058736E-006  0.2174079E+03  0.7818608E-02  0.1352933E+00
          2   -1    0    0  502    0  0.00000000000E+00  0.00000000000E+00  0.25072381309E+03  0.25072381309E+03  0.00000000000E+00 0. -1.
          1   -1    0    0  501    0 -0.00000000000E+00 -0.00000000000E+00 -0.15086653766E+04  0.15086653766E+04  0.00000000000E+00 0. -1.
         25    2    1    2    0    0  0.37099775602E+02 -0.23257045811E+03 -0.95484218393E+03  0.99137005024E+03  0.12500227587E+03 0.  0.
          2    1    1    2  501    0  0.10699194898E+02  0.21420092419E+02 -0.48479394751E+03  0.48538486242E+03  0.00000000000E+00 0. -1.
          1    1    1    2  502    0 -0.47798970500E+02  0.21115036569E+03  0.18169456795E+03  0.28263427700E+03  0.00000000000E+00 0. -1.
         22    1    3    3    0    0 -0.74772342503E+01 -0.20644957398E+02 -0.14266549285E+02  0.26185066860E+02  0.00000000000E+00 0.  1.
         22    1    3    3    0    0  0.44577009852E+02 -0.21192550072E+03 -0.94057563464E+03  0.96518498338E+03  0.00000000000E+00 0.  1.
</event>
<event>
 7    1  0.6058736E-006  0.9445288E+02  0.7818608E-02  0.1324395E+00
          2   -1    0    0  502    0  0.00000000000E+00  0.00000000000E+00  0.58600412139E+03  0.58600412139E+03  0.00000000000E+00 0. -1.
          1   -1    0    0  501    0 -0.00000000000E+00 -0.00000000000E+00 -0.66427998015E+03  0.66427998015E+03  0.00000000000E+00 0. -1.
         25    2    1    2    0    0  0.64995717858E+02  0.55076144098E+01 -0.14392228219E+03  0.20147494289E+03  0.12499500848E+03 0.  0.
          2    1    1    2  501    0  0.52660202268E+01 -0.70410028067E+02 -0.48490094887E+03  0.49001452349E+03  0.00000000000E+00 0. -1.
          1    1    1    2  502    0 -0.70261738085E+02  0.64902413657E+02  0.55054737230E+03  0.55879463516E+03  0.00000000000E+00 0. -1.
         22    1    3    3    0    0  0.88984361544E+02  0.39968348688E+02 -0.11329228595E+03  0.14950193160E+03  0.00000000000E+00 0.  1.
         22    1    3    3    0    0 -0.23988643687E+02 -0.34460734278E+02 -0.30629996239E+02  0.51973011290E+02  0.00000000000E+00 0.  1.
</event>
<event>
 7    1  0.6058736E-006  0.1171936E+03  0.7818608E-02  0.1252470E+00
          2   -1    0    0  502    0  0.00000000000E+00  0.00000000000E+00  0.13913147647E+04  0.13913147647E+04  0.00000000000E+00 0. -1.
          1   -1    0    0  501    0 -0.00000000000E+00 -0.00000000000E+00 -0.30872251133E+04  0.30872251133E+04  0.00000000000E+00 0. -1.
         25    2    1    2    0    0  0.16469350404E+03 -0.53694508537E+02  0.41504544880E+02  0.21761080804E+03  0.12499914404E+03 0.  0.
          2    1    1    2  501    0 -0.56250411573E+02  0.96680071017E+02 -0.29954297538E+04  0.29975173986E+04  0.00000000000E+00 0. -1.
          1    1    1    2  502    0 -0.10844309247E+03 -0.42985562481E+02  0.12580148603E+04  0.12634116714E+04  0.00000000000E+00 0. -1.
         22    1    3    3    0    0 -0.17530637082E+02  0.79646213002E+01  0.12766387735E+02  0.23102793874E+02  0.00000000000E+00 0.  1.
         22    1    3    3    0    0  0.18222414112E+03 -0.61659129837E+02  0.28738157145E+02  0.19450801417E+03  0.00000000000E+00 0.  1.
</event>
<event>
 7    1  0.6058736E-006  0.6429655E+02  0.7818608E-02  0.1409566E+00
          2   -1    0    0  502    0  0.00000000000E+00  0.00000000000E+00  0.55953585188E+02  0.55953585188E+02  0.00000000000E+00 0. -1.
          1   -1    0    0  501    0 -0.00000000000E+00 -0.00000000000E+00 -0.17040617622E+04  0.17040617622E+04  0.00000000000E+00 0. -1.
         25    2    1    2    0    0 -0.50189047902E+02  0.40607782705E+02 -0.18571694558E+03  0.23298921621E+03  0.12500103379E+03 0.  0.
          2    1    1    2  501    0  0.51692729881E+01 -0.64673826069E+02 -0.14733803674E+04  0.14748081680E+04  0.00000000000E+00 0. -1.
          1    1    1    2  502    0  0.45019774914E+02  0.24066043364E+02  0.10989135966E+02  0.52217963248E+02  0.00000000000E+00 0. -1.
         22    1    3    3    0    0 -0.67579516839E+02  0.52195975458E+02 -0.57184615448E+02  0.10276911596E+03  0.00000000000E+00 0.  1.
         22    1    3    3    0    0  0.17390468937E+02 -0.11588192753E+02 -0.12853233013E+03  0.13022010025E+03  0.00000000000E+00 0.  1.
</event>
<event>
 7    1  0.6058736E-006  0.5986152E+02  0.7818608E-02  0.1432964E+00
          2   -1    0    0  502    0  0.00000000000E+00  0.00000000000E+00  0.20025693256E+03  0.20025693256E+03  0.00000000000E+00 0. -1.
          1   -1    0    0  501    0 -0.00000000000E+00 -0.00000000000E+00 -0.92555423002E+03  0.92555423002E+03  0.00000000000E+00 0. -1.
         25    2    1    2    0    0 -0.73397277048E+02 -0.42584050997E+02 -0.89674955858E+02  0.17569261863E+03  0.12500294739E+03 0.  0.
          2    1    1    2  501    0  0.44844804055E+02 -0.93806723170E+01 -0.78659085902E+03  0.78792400201E+03  0.00000000000E+00 0. -1.
          1    1    1    2  502    0  0.28552472994E+02  0.51964723314E+02  0.15096851742E+03  0.16219454194E+03  0.00000000000E+00 0. -1.
         22    1    3    3    0    0 -0.54710242692E+02 -0.37982892482E+02 -0.12146748452E+03  0.13852891602E+03  0.00000000000E+00 0. -1.
         22    1    3    3    0    0 -0.18687034356E+02 -0.46011585152E+01  0.31792528666E+02  0.37163702610E+02  0.00000000000E+00 0. -1.
</event>
<event>
 7    1  0.6058736E-006  0.7067799E+02  0.7818608E-02  0.1505926E+00
          2   -1    0    0  502    0  0.00000000000E+00  0.00000000000E+00  0.78261526011E+02  0.78261526011E+02  0.00000000000E+00 0. -1.
          1   -1    0    0  501    0 -0.00000000000E+00 -0.00000000000E+00 -0.62604142710E+03  0.62604142710E+03  0.00000000000E+00 0. -1.
         25    2    1    2    0    0 -0.42166755957E+01 -0.60457163601E+02 -0.15745328914E+02  0.13980988006E+03  0.12500415272E+03 0.  0.
          2    1    1    2  501    0 -0.17096577977E+02  0.69083228028E+02 -0.53639078190E+03  0.54109135669E+03  0.00000000000E+00 0. -1.
          1    1    1    2  502    0  0.21313253573E+02 -0.86260644265E+01  0.43562097300E+01  0.23401716360E+02  0.00000000000E+00 0. -1.
         22    1    3    3    0    0 -0.99165973603E+01 -0.36379715663E+02 -0.70373812312E+02  0.79839188838E+02  0.00000000000E+00 0.  1.
         22    1    3    3    0    0  0.56999217646E+01 -0.24077447939E+02  0.54628483398E+02  0.59970691223E+02  0.00000000000E+00 0.  1.
</event>
<event>
 7    1  0.6058736E-006  0.5277390E+02  0.7818608E-02  0.1559697E+00
          2   -1    0    0  502    0  0.00000000000E+00  0.00000000000E+00  0.37735224567E+02  0.37735224567E+02  0.00000000000E+00 0. -1.
          1   -1    0    0  501    0 -0.00000000000E+00 -0.00000000000E+00 -0.12599702611E+04  0.12599702611E+04  0.00000000000E+00 0. -1.
         25    2    1    2    0    0  0.19141344861E+02  0.28211256740E+02 -0.32524854798E+03  0.35010601365E+03  0.12500134694E+03 0.  0.
          2    1    1    2  501    0  0.18602836733E+02  0.11023981684E+02 -0.89272848375E+03  0.89299033556E+03  0.00000000000E+00 0. -1.
          1    1    1    2  502    0 -0.37744181594E+02 -0.39235238424E+02 -0.42580047862E+01  0.54609136444E+02  0.00000000000E+00 0. -1.
         22    1    3    3    0    0  0.48468315398E+02  0.50213198609E+02 -0.29326016678E+03  0.30144994333E+03  0.00000000000E+00 0.  1.
         22    1    3    3    0    0 -0.29326970537E+02 -0.22001941869E+02 -0.31988381196E+02  0.48656070314E+02  0.00000000000E+00 0.  1.
</event>
<event>
 7    1  0.6058736E-006  0.1076693E+03  0.7818608E-02  0.1342081E+00
          2   -1    0    0  502    0  0.00000000000E+00  0.00000000000E+00  0.14568671928E+04  0.14568671928E+04  0.00000000000E+00 0. -1.
          1   -1    0    0  501    0 -0.00000000000E+00 -0.00000000000E+00 -0.41160016867E+03  0.41160016867E+03  0.00000000000E+00 0. -1.
         25    2    1    2    0    0 -0.11654861727E+03  0.58129727473E+02 -0.13973427993E+03  0.22828241884E+03  0.12499819344E+03 0.  0.
          2    1    1    2  501    0  0.91737734236E+01 -0.52256978421E+02 -0.22242050164E+03  0.22866094870E+03  0.00000000000E+00 0. -1.
          1    1    1    2  502    0  0.10737484384E+03 -0.58727490520E+01  0.14074218057E+04  0.14115239939E+04  0.00000000000E+00 0. -1.
         22    1    3    3    0    0 -0.28387577872E+02 -0.11633392040E+02  0.17248151165E+02  0.35195015363E+02  0.00000000000E+00 0.  1.
         22    1    3    3    0    0 -0.88161039393E+02  0.69763119513E+02 -0.15698243109E+03  0.19308740348E+03  0.00000000000E+00 0.  1.
</event>
<event>
 7    1  0.6058736E-006  0.1558381E+03  0.7818608E-02  0.1252789E+00
          2   -1    0    0  502    0  0.00000000000E+00  0.00000000000E+00  0.23766084460E+04  0.23766084460E+04  0.00000000000E+00 0. -1.
          1   -1    0    0  501    0 -0.00000000000E+00 -0.00000000000E+00 -0.17616886966E+03  0.17616886966E+03  0.00000000000E+00 0. -1.
         25    2    1    2    0    0 -0.45958971999E+00  0.11987591121E+03  0.12940117464E+03  0.21619362283E+03  0.12499829296E+03 0.  0.
          2    1    1    2  501    0  0.77937853036E+02 -0.15193510303E+03 -0.76710979895E+02  0.18719818083E+03  0.00000000000E+00 0. -1.
          1    1    1    2  502    0 -0.77478263316E+02  0.32059191824E+02  0.21477493816E+04  0.21493855120E+04  0.00000000000E+00 0. -1.
         22    1    3    3    0    0 -0.55820090259E+02  0.22170528808E+02  0.35203246427E+02  0.69618125392E+02  0.00000000000E+00 0. -1.
         22    1    3    3    0    0  0.55360500539E+02  0.97705382397E+02  0.94197928213E+02  0.14657549744E+03  0.00000000000E+00 0. -1.
</event>
<event>
 7    1  0.6058736E-006  0.9007462E+02  0.7818608E-02  0.1346913E+00
          2   -1    0    0  502    0  0.00000000000E+00  0.00000000000E+00  0.28580354809E+03  0.28580354809E+03  0.00000000000E+00 0. -1.
          1   -1    0    0  501    0 -0.00000000000E+00 -0.00000000000E+00 -0.13634292462E+04  0.13634292462E+04  0.00000000000E+00 0. -1.
         25    2    1    2    0    0  0.34292252812E+02 -0.62178832363E+01 -0.11784903310E+03  0.17529482725E+03  0.12500104474E+03 0.  0.
          2    1    1    2  501    0 -0.93194690003E+02 -0.90028511236E+01 -0.12114262252E+04  0.12150390120E+04  0.00000000000E+00 0. -1.
          1    1    1    2  502    0  0.58902437191E+02  0.15220734360E+02  0.25164956011E+03  0.25889895512E+03  0.00000000000E+00 0. -1.
         22    1    3    3    0    0 -0.43276342928E+02 -0.24939831549E+02 -0.43725199452E+02  0.66383206626E+02  0.00000000000E+00 0. -1.
         22    1    3    3    0    0  0.77568595740E+02  0.18721948313E+02 -0.74123833645E+02  0.10891162063E+03  0.00000000000E+00 0. -1.
</event>
<event>
 7    1  0.6058736E-006  0.6400979E+02  0.7818608E-02  0.1394224E+00
          2   -1    0    0  502    0  0.00000000000E+00  0.00000000000E+00  0.41890503082E+03  0.41890503082E+03  0.00000000000E+00 0. -1.
          1   -1    0    0  501    0 -0.00000000000E+00 -0.00000000000E+00 -0.14592554999E+03  0.14592554999E+03  0.00000000000E+00 0. -1.
         25    2    1    2    0    0  0.12852328989E+02  0.33445168179E+02  0.28354988156E+03  0.31194473792E+03  0.12500089019E+03 0.  0.
          2    1    1    2  501    0 -0.29636536404E+02  0.56735610683E+02 -0.10389347812E+03  0.12202913015E+03  0.00000000000E+00 0. -1.
          1    1    1    2  502    0  0.16784207416E+02 -0.90180778862E+02  0.93323077387E+02  0.13085671273E+03  0.00000000000E+00 0. -1.
         22    1    3    3    0    0  0.29898642711E+02  0.82590402192E+01  0.46185650074E+01  0.31360352741E+02  0.00000000000E+00 0. -1.
         22    1    3    3    0    0 -0.17046313722E+02  0.25186127960E+02  0.27893131655E+03  0.28058438518E+03  0.00000000000E+00 0. -1.
</event>
<event>
 7    1  0.6058736E-006  0.1452507E+03  0.7818608E-02  0.1260710E+00
          2   -1    0    0  502    0  0.00000000000E+00  0.00000000000E+00  0.41836185789E+03  0.41836185789E+03  0.00000000000E+00 0. -1.
          1   -1    0    0  501    0 -0.00000000000E+00 -0.00000000000E+00 -0.84183529639E+03  0.84183529639E+03  0.00000000000E+00 0. -1.
         25    2    1    2    0    0  0.26130260020E+01  0.86774901138E+02  0.19701741358E+03  0.24895279807E+03  0.12499969215E+03 0.  0.
          2    1    1    2  501    0 -0.75781360906E+02 -0.12635985103E+03 -0.79996842250E+03  0.81342430724E+03  0.00000000000E+00 0. -1.
          1    1    1    2  502    0  0.73168334904E+02  0.39584949891E+02  0.17947757042E+03  0.19782004897E+03  0.00000000000E+00 0. -1.
         22    1    3    3    0    0 -0.79296890068E+01  0.57563069199E+02  0.20803710726E+03  0.21599959468E+03  0.00000000000E+00 0. -1.
         22    1    3    3    0    0  0.10542715009E+02  0.29211831939E+02 -0.11019693677E+02  0.32953203391E+02  0.00000000000E+00 0. -1.
</event>
<event>
 7    1  0.6058736E-006  0.2598599E+03  0.7818608E-02  0.1238792E+00
          2   -1    0    0  502    0  0.00000000000E+00  0.00000000000E+00  0.14540219950E+04  0.14540219950E+04  0.00000000000E+00 0. -1.
          1   -1    0    0  501    0 -0.00000000000E+00 -0.00000000000E+00 -0.69349716598E+03  0.69349716598E+03  0.00000000000E+00 0. -1.
         25    2    1    2    0    0  0.22606853685E+02 -0.30514466370E+03  0.54551422980E+03  0.63783678976E+03  0.12500263930E+03 0.  0.
          2    1    1    2  501    0  0.10586875329E+02  0.25772020337E+03 -0.62060028755E+03  0.67206882241E+03  0.00000000000E+00 0. -1.
          1    1    1    2  502    0 -0.33193729014E+02  0.47424460324E+02  0.83561088679E+03  0.83761354884E+03  0.00000000000E+00 0. -1.
         22    1    3    3    0    0  0.20096508242E+02 -0.13746060821E+02  0.66751951089E+01  0.25246426705E+02  0.00000000000E+00 0. -1.
         22    1    3    3    0    0  0.25103454430E+01 -0.29139860288E+03  0.53883903469E+03  0.61259036305E+03  0.00000000000E+00 0. -1.
</event>
<event>
 7    1  0.6058736E-006  0.5100741E+02  0.7818608E-02  0.1450233E+00
          2   -1    0    0  502    0  0.00000000000E+00  0.00000000000E+00  0.17998797528E+03  0.17998797528E+03  0.00000000000E+00 0. -1.
          1   -1    0    0  501    0 -0.00000000000E+00 -0.00000000000E+00 -0.37668667949E+03  0.37668667949E+03  0.00000000000E+00 0. -1.
         25    2    1    2    0    0 -0.48033829302E+02 -0.73729304461E+02 -0.58632632642E+02  0.16372708764E+03  0.12500205808E+03 0.  0.
          2    1    1    2  501    0  0.40341773862E+02  0.24641632266E+02 -0.25843705217E+03  0.26272491069E+03  0.00000000000E+00 0. -1.
          1    1    1    2  502    0  0.76920554402E+01  0.49087672194E+02  0.12037098061E+03  0.13022265644E+03  0.00000000000E+00 0. -1.
         22    1    3    3    0    0 -0.18702210399E+02 -0.93150410761E+02 -0.78572951894E+02  0.12329022860E+03  0.00000000000E+00 0.  1.
         22    1    3    3    0    0 -0.29331618903E+02  0.19421106300E+02  0.19940319252E+02  0.40436859043E+02  0.00000000000E+00 0.  1.
</event>
<event>
 7    1  0.6058736E-006  0.1284695E+03  0.7818608E-02  0.1305638E+00
          2   -1    0    0  502    0  0.00000000000E+00  0.00000000000E+00  0.24218034047E+03  0.24218034047E+03  0.00000000000E+00 0. -1.
          1   -1    0    0  501    0 -0.00000000000E+00 -0.00000000000E+00 -0.15374954259E+04  0.15374954259E+04  0.00000000000E+00 0. -1.
         25    2    1    2    0    0  0.44381619556E+02  0.87617549115E+02 -0.13713911421E+03  0.20994214682E+03  0.12498802061E+03 0.  0.
          2    1    1    2  501    0 -0.41114210939E+02  0.45685571176E+02 -0.13415757704E+04  0.13429829103E+04  0.00000000000E+00 0. -1.
          1    1    1    2  502    0 -0.32674086166E+01 -0.13330312029E+03  0.18339979912E+03  0.22675070927E+03  0.00000000000E+00 0. -1.
         22    1    3    3    0    0  0.56699061125E+02  0.75758373169E+02 -0.26886762535E+02  0.98371808143E+02  0.00000000000E+00 0. -1.
         22    1    3    3    0    0 -0.12317441569E+02  0.11859175946E+02 -0.11025235168E+03  0.11157033867E+03  0.00000000000E+00 0. -1.
</event>
<event>
 7    1  0.6058736E-006  0.4336314E+02  0.7818608E-02  0.1507156E+00
          2   -1    0    0  502    0  0.00000000000E+00  0.00000000000E+00  0.12661894868E+03  0.12661894868E+03  0.00000000000E+00 0. -1.
          1   -1    0    0  501    0 -0.00000000000E+00 -0.00000000000E+00 -0.18102287452E+04  0.18102287452E+04  0.00000000000E+00 0. -1.
         25    2    1    2    0    0 -0.56756324843E+01 -0.66910420122E+02 -0.10186181282E+03  0.17466977552E+03  0.12499793776E+03 0.  0.
          2    1    1    2  501    0 -0.19008424723E+02  0.31934433444E+02 -0.16666656323E+04  0.16670799196E+04  0.00000000000E+00 0. -1.
          1    1    1    2  502    0  0.24684057207E+02  0.34975986678E+02  0.84917648633E+02  0.95097998789E+02  0.00000000000E+00 0. -1.
         22    1    3    3    0    0 -0.23486437964E+02 -0.10039233361E+03 -0.82739956095E+02  0.13219732884E+03  0.00000000000E+00 0.  1.
         22    1    3    3    0    0  0.17810805480E+02  0.33481913493E+02 -0.19121856728E+02  0.42472446688E+02  0.00000000000E+00 0.  1.
</event>
<event>
 7    1  0.6058736E-006  0.8525867E+02  0.7818608E-02  0.1335053E+00
          2   -1    0    0  502    0  0.00000000000E+00  0.00000000000E+00  0.15980000591E+03  0.15980000591E+03  0.00000000000E+00 0. -1.
          1   -1    0    0  501    0 -0.00000000000E+00 -0.00000000000E+00 -0.18642597837E+04  0.18642597837E+04  0.00000000000E+00 0. -1.
         25    2    1    2    0    0 -0.53437112667E-01  0.90240119239E+02 -0.49001598776E+03  0.51369741700E+03  0.12500434390E+03 0.  0.
          2    1    1    2  501    0 -0.63410345570E+02 -0.32420234315E+02 -0.13489300843E+04  0.13508087636E+04  0.00000000000E+00 0. -1.
          1    1    1    2  502    0  0.63463782683E+02 -0.57819884924E+02  0.13448629426E+03  0.15955360901E+03  0.00000000000E+00 0. -1.
         22    1    3    3    0    0 -0.23392350673E+02 -0.23709947408E+02 -0.64788930217E+02  0.72848947520E+02  0.00000000000E+00 0. -1.
         22    1    3    3    0    0  0.23338913560E+02  0.11395006665E+03 -0.42522705754E+03  0.44084846948E+03  0.00000000000E+00 0. -1.
</event>
<event>
 7    1  0.6058736E-006  0.2910457E+03  0.7818608E-02  0.1256060E+00
          2   -1    0    0  502    0  0.00000000000E+00  0.00000000000E+00  0.21625940274E+04  0.21625940274E+04  0.00000000000E+00 0. -1.
          1   -1    0    0  501    0 -0.00000000000E+00 -0.00000000000E+00 -0.23171681080E+03  0.23171681080E+03  0.00000000000E+00 0. -1.
         25    2    1    2    0    0 -0.26182790556E+03 -0.56810648450E+02  0.49912459311E+03  0.58011335604E+03  0.12499937801E+03 0.  0.
          2    1    1    2  501    0 -0.22332187746E+02 -0.37287488593E+02 -0.17473550479E+03  0.18005993461E+03  0.00000000000E+00 0. -1.
          1    1    1    2  502    0  0.28416009331E+03  0.94098137043E+02  0.16064881283E+04  0.16341375476E+04  0.00000000000E+00 0. -1.
         22    1    3    3    0    0 -0.85604143817E+02 -0.49039608243E+02  0.29113171203E+03  0.30739327639E+03  0.00000000000E+00 0.  1.
         22    1    3    3    0    0 -0.17622376174E+03 -0.77710402070E+01  0.20799288107E+03  0.27272007965E+03  0.00000000000E+00 0.  1.
</event>
<event>
 7    1  0.6058736E-006  0.3204890E+02  0.7818608E-02  0.1592018E+00
          2   -1    0    0  502    0  0.00000000000E+00  0.00000000000E+00  0.54627590930E+03  0.54627590930E+03  0.00000000000E+00 0. -1.
          1   -1    0    0  501    0 -0.00000000000E+00 -0.00000000000E+00 -0.15571756591E+04  0.15571756591E+04  0.00000000000E+00 0. -1.
         25    2    1    2    0    0 -0.53787414305E+02  0.22603061719E+02 -0.66033019654E+02  0.15292964781E+03  0.12499253241E+03 0.  0.
          2    1    1    2  501    0  0.24752727850E+02 -0.20204407673E+02 -0.14470958288E+04  0.14474485322E+04  0.00000000000E+00 0. -1.
          1    1    1    2  502    0  0.29034686455E+02 -0.23986540460E+01  0.50222909866E+03  0.50307338839E+03  0.00000000000E+00 0. -1.
         22    1    3    3    0    0 -0.37609925961E+02  0.70206405885E+02 -0.14539857587E+02  0.80962049238E+02  0.00000000000E+00 0.  1.
         22    1    3    3    0    0 -0.16177488344E+02 -0.47603344167E+02 -0.51493162067E+02  0.71967598575E+02  0.00000000000E+00 0.  1.
</event>
<event>
 7    1  0.6058736E-006  0.4818345E+02  0.7818608E-02  0.1494046E+00
          2   -1    0    0  502    0  0.00000000000E+00  0.00000000000E+00  0.43326294824E+02  0.43326294824E+02  0.00000000000E+00 0. -1.
          1   -1    0    0  501    0 -0.00000000000E+00 -0.00000000000E+00 -0.14910436694E+04  0.14910436694E+04  0.00000000000E+00 0. -1.
         25    2    1    2    0    0 -0.67725306362E+02 -0.34757062024E+02 -0.22730012949E+03  0.27034355324E+03  0.12500206969E+03 0.  0.
          2    1    1    2  501    0  0.22247468855E+02  0.29056802223E+02 -0.12175534973E+04  0.12181033480E+04  0.00000000000E+00 0. -1.
          1    1    1    2  502    0  0.45477837507E+02  0.57002598009E+01 -0.28637478249E+01  0.45923063026E+02  0.00000000000E+00 0. -1.
         22    1    3    3    0    0 -0.44020982555E+02  0.35117999290E+02 -0.16306353569E+03  0.17251329644E+03  0.00000000000E+00 0.  1.
         22    1    3    3    0    0 -0.23704323807E+02 -0.69875061314E+02 -0.64236593808E+02  0.97830256796E+02  0.00000000000E+00 0.  1.
</event>
<event>
 7    1  0.6058736E-006  0.4114633E+02  0.7818608E-02  0.1584350E+00
          2   -1    0    0  502    0  0.00000000000E+00  0.00000000000E+00  0.12885341964E+04  0.12885341964E+04  0.00000000000E+00 0. -1.
          1   -1    0    0  501    0 -0.00000000000E+00 -0.00000000000E+00 -0.49196142583E+03  0.49196142583E+03  0.00000000000E+00 0. -1.
         25    2    1    2    0    0 -0.64351395487E+02 -0.58691812762E+01  0.12307129248E+03  0.18694042683E+03  0.12499852304E+03 0.  0.
          2    1    1    2  501    0  0.23561931859E+02  0.32160505394E+01 -0.45935068934E+03  0.45996582852E+03  0.00000000000E+00 0. -1.
          1    1    1    2  502    0  0.40789463628E+02  0.26531307367E+01  0.11328521674E+04  0.11335893669E+04  0.00000000000E+00 0. -1.
         22    1    3    3    0    0 -0.31109728537E+01 -0.30086638819E+02  0.11695396741E+03  0.12080196389E+03  0.00000000000E+00 0.  1.
         22    1    3    3    0    0 -0.61240422633E+02  0.24217457543E+02  0.61173250730E+01  0.66138462941E+02  0.00000000000E+00 0.  1.
</event>
<event>
 7    1  0.6058736E-006  0.1392250E+03  0.7818608E-02  0.1265538E+00
          2   -1    0    0  502    0  0.00000000000E+00  0.00000000000E+00  0.16480774676E+03  0.16480774676E+03  0.00000000000E+00 0. -1.
          1   -1    0    0  501    0 -0.00000000000E+00 -0.00000000000E+00 -0.11871043231E+04  0.11871043231E+04  0.00000000000E+00 0. -1.
         25    2    1    2    0    0 -0.70107435484E+02  0.82131574056E+02 -0.51166421120E+03  0.53765571312E+03  0.12495100183E+03 0.  0.
          2    1    1    2  501    0  0.57277198253E+02  0.59776005196E+02 -0.62567275052E+03  0.63112616725E+03  0.00000000000E+00 0. -1.
          1    1    1    2  502    0  0.12830237231E+02 -0.14190757925E+03  0.11504038538E+03  0.18313018950E+03  0.00000000000E+00 0. -1.
         22    1    3    3    0    0 -0.46363605604E+02  0.27346673689E+02 -0.44466590208E+03  0.44791203261E+03  0.00000000000E+00 0.  1.
         22    1    3    3    0    0 -0.23743829880E+02  0.54784900368E+02 -0.66998309120E+02  0.89743680505E+02  0.00000000000E+00 0.  1.
</event>
<event>
 7    1  0.6058736E-006  0.7169097E+02  0.7818608E-02  0.1462061E+00
          2   -1    0    0  502    0  0.00000000000E+00  0.00000000000E+00  0.44110819485E+03  0.44110819485E+03  0.00000000000E+00 0. -1.
          1   -1    0    0  501    0 -0.00000000000E+00 -0.00000000000E+00 -0.28238242109E+03  0.28238242109E+03  0.00000000000E+00 0. -1.
         25    2    1    2    0    0 -0.24020260656E+02  0.44159294398E+02  0.38330674061E+02  0.14007622540E+03  0.12500036858E+03 0.  0.
          2    1    1    2  501    0 -0.30397007970E+02  0.52682687399E+01 -0.22661374197E+03  0.22870400259E+03  0.00000000000E+00 0. -1.
          1    1    1    2  502    0  0.54417268626E+02 -0.49427563138E+02  0.34700884167E+03  0.35471038795E+03  0.00000000000E+00 0. -1.
         22    1    3    3    0    0  0.24460844226E+02 -0.27917399003E+02  0.38127845265E+02  0.53211339505E+02  0.00000000000E+00 0. -1.
         22    1    3    3    0    0 -0.48481104883E+02  0.72076693401E+02  0.20282879587E+00  0.86864885896E+02  0.00000000000E+00 0. -1.
</event>
<event>
 7    1  0.6058736E-006  0.5066621E+02  0.7818608E-02  0.1502569E+00
          2   -1    0    0  502    0  0.00000000000E+00  0.00000000000E+00  0.11285826716E+04  0.11285826716E+04  0.00000000000E+00 0. -1.
          1   -1    0    0  501    0 -0.00000000000E+00 -0.00000000000E+00 -0.62435452826E+02  0.62435452826E+02  0.00000000000E+00 0. -1.
         25    2    1    2    0    0  0.22766639403E+02  0.13345767018E+02  0.84259987515E+02  0.15303946465E+03  0.12499961151E+03 0.  0.
          2    1    1    2  501    0 -0.55568447513E+02 -0.12306159863E+02  0.13894004389E+01  0.56931751801E+02  0.00000000000E+00 0. -1.
          1    1    1    2  502    0  0.32801808110E+02 -0.10396071544E+01  0.98049783079E+03  0.98104690794E+03  0.00000000000E+00 0. -1.
         22    1    3    3    0    0  0.56222393212E+02 -0.32851712942E+02  0.67036642447E+02  0.93456428202E+02  0.00000000000E+00 0.  1.
         22    1    3    3    0    0 -0.33455753808E+02  0.46197479960E+02  0.17223345068E+02  0.59583036452E+02  0.00000000000E+00 0.  1.
</event>
<event>
 7    1  0.6058736E-006  0.2959888E+03  0.7818608E-02  0.1292919E+00
          2   -1    0    0  502    0  0.00000000000E+00  0.00000000000E+00  0.92966310252E+03  0.92966310252E+03  0.00000000000E+00 0. -1.
          1   -1    0    0  501    0 -0.00000000000E+00 -0.00000000000E+00 -0.15949137767E+04  0.15949137767E+04  0.00000000000E+00 0. -1.
         25    2    1    2    0    0 -0.19857118868E+03  0.25230442191E+03 -0.10158631005E+04  0.10727030621E+04  0.12500392841E+03 0.  0.
          2    1    1    2  501    0  0.27814529614E+02 -0.11238112241E+02 -0.52598336200E+03  0.52683815382E+03  0.00000000000E+00 0. -1.
          1    1    1    2  502    0  0.17075665906E+03 -0.24106630967E+03  0.87659578833E+03  0.92503566331E+03  0.00000000000E+00 0. -1.
         22    1    3    3    0    0 -0.11172242774E+03  0.62182294546E+02 -0.50031192395E+03  0.51639186657E+03  0.00000000000E+00 0. -1.
         22    1    3    3    0    0 -0.86848760935E+02  0.19012212736E+03 -0.51555117659E+03  0.55631119553E+03  0.00000000000E+00 0. -1.
</event>
<event>
 7    1  0.6058736E-006  0.5910194E+02  0.7818608E-02  0.1482352E+00
          2   -1    0    0  502    0  0.00000000000E+00  0.00000000000E+00  0.26507943918E+03  0.26507943918E+03  0.00000000000E+00 0. -1.
          1   -1    0    0  501    0 -0.00000000000E+00 -0.00000000000E+00 -0.63590996100E+02  0.63590996100E+02  0.00000000000E+00 0. -1.
         25    2    1    2    0    0  0.28943346235E+02  0.68444591508E+02  0.70146596935E+02  0.16145501195E+03  0.12499918569E+03 0.  0.
          2    1    1    2  501    0  0.13565991470E+02 -0.29394243469E+02  0.11782978413E+02  0.34451360698E+02  0.00000000000E+00 0. -1.
          1    1    1    2  502    0 -0.42509337705E+02 -0.39050348040E+02  0.11955886773E+03  0.13276406264E+03  0.00000000000E+00 0. -1.
         22    1    3    3    0    0  0.62471410812E+02  0.45570694611E+02  0.87971935349E+02  0.11712568798E+03  0.00000000000E+00 0.  1.
         22    1    3    3    0    0 -0.33528064577E+02  0.22873896897E+02 -0.17825338414E+02  0.44329323964E+02  0.00000000000E+00 0.  1.
</event>
<event>
 7    1  0.6058736E-006  0.6621626E+02  0.7818608E-02  0.1409499E+00
          2   -1    0    0  502    0  0.00000000000E+00  0.00000000000E+00  0.28254060210E+03  0.28254060210E+03  0.00000000000E+00 0. -1.
          1   -1    0    0  501    0 -0.00000000000E+00 -0.00000000000E+00 -0.14383001040E+04  0.14383001040E+04  0.00000000000E+00 0. -1.
         25    2    1    2    0    0  0.12845349137E+02  0.27029681137E+02  0.13158370744E+03  0.18394151587E+03  0.12499841014E+03 0.  0.
          2    1    1    2  501    0  0.21407729145E+02 -0.62895241114E+02 -0.14063778353E+04  0.14079462766E+04  0.00000000000E+00 0. -1.
          1    1    1    2  502    0 -0.34253078282E+02  0.35865559977E+02  0.11903462593E+03  0.12895291363E+03  0.00000000000E+00 0. -1.
         22    1    3    3    0    0  0.16276967740E+02  0.65831066281E+02  0.12796237203E+03  0.14482070854E+03  0.00000000000E+00 0. -1.
         22    1    3    3    0    0 -0.34316186026E+01 -0.38801385144E+02  0.36213354101E+01  0.39120807322E+02  0.00000000000E+00 0. -1.
</event>
<event>
 7    1  0.6058736E-006  0.7318254E+02  0.7818608E-02  0.1431426E+00
          2   -1    0    0  502    0  0.00000000000E+00  0.00000000000E+00  0.29917219930E+03  0.29917219930E+03  0.00000000000E+00 0. -1.
          1   -1    0    0  501    0 -0.00000000000E+00 -0.00000000000E+00 -0.14231014590E+04  0.14231014590E+04  0.00000000000E+00 0. -1.
         25    2    1    2    0    0 -0.74857749004E+01 -0.10927896109E+03  0.12347204126E+02  0.16666145930E+03  0.12500264158E+03 0.  0.
          2    1    1    2  501    0  0.12530279385E+02  0.71702191849E+02 -0.13432368972E+04  0.13452076324E+04  0.00000000000E+00 0. -1.
          1    1    1    2  502    0 -0.50445044842E+01  0.37576769240E+02  0.20696043345E+03  0.21040456655E+03  0.00000000000E+00 0. -1.
         22    1    3    3    0    0 -0.41347150044E+02 -0.11868330459E+03 -0.82102419718E+01  0.12594729722E+03  0.00000000000E+00 0.  1.
         22    1    3    3    0    0  0.33861375144E+02  0.94043434986E+01  0.20557446098E+02  0.40714162074E+02  0.00000000000E+00 0.  1.
</event>
<event>
 7    1  0.6961728E-006  0.9134092E+02  0.7818608E-02  0.1465973E+00
          2   -1    0    0  502    0  0.00000000000E+00  0.00000000000E+00  0.13833432040E+04  0.13833432040E+04  0.00000000000E+00 0. -1.
          1   -1    0    0  501    0 -0.00000000000E+00 -0.00000000000E+00 -0.90337973514E+03  0.90337973514E+03  0.00000000000E+00 0. -1.
         25    2    1    2    0    0 -0.10854159058E+02 -0.94032341333E+02 -0.37866621340E+03  0.40984276670E+03  0.12499239283E+03 0.  0.
          2    1    1    2  501    0 -0.21852450883E+02  0.87493354892E+01 -0.50732712009E+03  0.50787290463E+03  0.00000000000E+00 0. -1.
          1    1    1    2  502    0  0.32706609941E+02  0.85283005843E+02  0.13659568023E+04  0.13690072678E+04  0.00000000000E+00 0. -1.
         22    1    3    3    0    0 -0.64742815255E+02 -0.34098295379E+02 -0.22050878379E+03  0.23233262707E+03  0.00000000000E+00 0.  1.
         22    1    3    3    0    0  0.53888656197E+02 -0.59934045953E+02 -0.15815742961E+03  0.17751013963E+03  0.00000000000E+00 0.  1.
</event>
<event>
 7    1  0.6058736E-006  0.1857364E+03  0.7818608E-02  0.1191795E+00
          2   -1    0    0  502    0  0.00000000000E+00  0.00000000000E+00  0.15160377441E+03  0.15160377441E+03  0.00000000000E+00 0. -1.
          1   -1    0    0  501    0 -0.00000000000E+00 -0.00000000000E+00 -0.68481695619E+03  0.68481695619E+03  0.00000000000E+00 0. -1.
         25    2    1    2    0    0 -0.31962644976E+02 -0.60605577464E+02 -0.15841594021E+03  0.21310829129E+03  0.12499954803E+03 0.  0.
          2    1    1    2  501    0 -0.71302278329E+02  0.21498939615E+03 -0.37439010408E+03  0.43757559963E+03  0.00000000000E+00 0. -1.
          1    1    1    2  502    0  0.10326492330E+03 -0.15438381869E+03 -0.40713748404E+00  0.18573683969E+03  0.00000000000E+00 0. -1.
         22    1    3    3    0    0  0.22830259806E+02  0.25824888226E+02 -0.69343509839E+02  0.77438155786E+02  0.00000000000E+00 0.  1.
         22    1    3    3    0    0 -0.54792904782E+02 -0.86430465690E+02 -0.89072430375E+02  0.13567013550E+03  0.00000000000E+00 0.  1.
</event>
<event>
 7    1  0.6058736E-006  0.5438724E+02  0.7818608E-02  0.1426731E+00
          2   -1    0    0  502    0  0.00000000000E+00  0.00000000000E+00  0.40064415213E+03  0.40064415213E+03  0.00000000000E+00 0. -1.
          1   -1    0    0  501    0 -0.00000000000E+00 -0.00000000000E+00 -0.16396684537E+03  0.16396684537E+03  0.00000000000E+00 0. -1.
         25    2    1    2    0    0 -0.96655537160E+01 -0.79576242545E+02  0.92174858493E+01  0.14878100058E+03  0.12500009113E+03 0.  0.
          2    1    1    2  501    0  0.39620451697E+02  0.36014509527E+02 -0.84164999581E+02  0.99752555073E+02  0.00000000000E+00 0. -1.
          1    1    1    2  502    0 -0.29954897981E+02  0.43561733018E+02  0.31162482049E+03  0.31607744184E+03  0.00000000000E+00 0. -1.
         22    1    3    3    0    0  0.37057795531E+02 -0.91283542808E+02  0.17041681325E+02  0.99981919863E+02  0.00000000000E+00 0.  1.
         22    1    3    3    0    0 -0.46723349247E+02  0.11707300263E+02 -0.78241954756E+01  0.48799080720E+02  0.00000000000E+00 0.  1.
</event>
<event>
 7    1  0.6058736E-006  0.1266230E+03  0.7818608E-02  0.1322612E+00
          2   -1    0    0  502    0  0.00000000000E+00  0.00000000000E+00  0.27220945122E+03  0.27220945122E+03  0.00000000000E+00 0. -1.
          1   -1    0    0  501    0 -0.00000000000E+00 -0.00000000000E+00 -0.26585195334E+04  0.26585195334E+04  0.00000000000E+00 0. -1.
         25    2    1    2    0    0 -0.11589925274E+03 -0.17499494633E+02 -0.16971987126E+04  0.17058274577E+04  0.12499990501E+03 0.  0.
          2    1    1    2  501    0 -0.57744663144E+01  0.53196498342E+02 -0.94119912914E+03  0.94271894677E+03  0.00000000000E+00 0. -1.
          1    1    1    2  502    0  0.12167371905E+03 -0.35697003709E+02  0.25208775960E+03  0.28218258012E+03  0.00000000000E+00 0. -1.
         22    1    3    3    0    0 -0.94756009333E+02 -0.29225792689E+02 -0.58345930463E+03  0.59182565712E+03  0.00000000000E+00 0. -1.
         22    1    3    3    0    0 -0.21143243402E+02  0.11726298056E+02 -0.11137394080E+04  0.11140018006E+04  0.00000000000E+00 0. -1.
</event>
<event>
 7    1  0.6058736E-006  0.1184374E+03  0.7818608E-02  0.1336180E+00
          2   -1    0    0  502    0  0.00000000000E+00  0.00000000000E+00  0.52958304571E+03  0.52958304571E+03  0.00000000000E+00 0. -1.
          1   -1    0    0  501    0 -0.00000000000E+00 -0.00000000000E+00 -0.26254876659E+03  0.26254876659E+03  0.00000000000E+00 0. -1.
         25    2    1    2    0    0 -0.73132203872E+02  0.59766876198E+02  0.15350084746E+03  0.21933529244E+03  0.12500024643E+03 0.  0.
          2    1    1    2  501    0  0.11646358881E+03 -0.33318565791E+02 -0.21154786186E+03  0.24377529039E+03  0.00000000000E+00 0. -1.
          1    1    1    2  502    0 -0.43331384933E+02 -0.26448310407E+02  0.32508129353E+03  0.32902122948E+03  0.00000000000E+00 0. -1.
         22    1    3    3    0    0  0.30725538580E+02  0.61226418880E+01  0.73364269754E+01  0.32177144459E+02  0.00000000000E+00 0.  1.
         22    1    3    3    0    0 -0.10385774245E+03  0.53644234310E+02  0.14616442048E+03  0.18715814798E+03  0.00000000000E+00 0.  1.
</event>
<event>
 7    1  0.6058736E-006  0.1046409E+03  0.7818608E-02  0.1319751E+00
          2   -1    0    0  502    0  0.00000000000E+00  0.00000000000E+00  0.32816293925E+03  0.32816293925E+03  0.00000000000E+00 0. -1.
          1   -1    0    0  501    0 -0.00000000000E+00 -0.00000000000E+00 -0.79393917107E+03  0.79393917107E+03  0.00000000000E+00 0. -1.
         25    2    1    2    0    0 -0.74396693505E+02 -0.75607137350E+02 -0.20725363244E+03  0.26424592342E+03  0.12498212938E+03 0.  0.
          2    1    1    2  501    0  0.15576794191E+02  0.10646568347E+03 -0.54922299368E+03  0.55966371605E+03  0.00000000000E+00 0. -1.
          1    1    1    2  502    0  0.58819899314E+02 -0.30858546117E+02  0.29070039430E+03  0.29819247084E+03  0.00000000000E+00 0. -1.
         22    1    3    3    0    0 -0.65256751839E+02 -0.76746052373E+01 -0.17796260315E+03  0.18970511682E+03  0.00000000000E+00 0. -1.
         22    1    3    3    0    0 -0.91399416658E+01 -0.67932532113E+02 -0.29291029286E+02  0.74540806606E+02  0.00000000000E+00 0. -1.
</event>
<event>
 7    1  0.6058736E-006  0.2413927E+03  0.7818608E-02  0.1307860E+00
          2   -1    0    0  502    0  0.00000000000E+00  0.00000000000E+00  0.73026851135E+03  0.73026851135E+03  0.00000000000E+00 0. -1.
          1   -1    0    0  501    0 -0.00000000000E+00 -0.00000000000E+00 -0.16997446575E+04  0.16997446575E+04  0.00000000000E+00 0. -1.
         25    2    1    2    0    0  0.98677639184E+01  0.21750508790E+03 -0.92258072938E+03  0.95613091093E+03  0.12500112231E+03 0.  0.
          2    1    1    2  501    0  0.23160848039E+02  0.22158848747E+02 -0.73952354518E+03  0.74021788234E+03  0.00000000000E+00 0. -1.
          1    1    1    2  502    0 -0.33028611958E+02 -0.23966393665E+03  0.69262812841E+03  0.73366437558E+03  0.00000000000E+00 0. -1.
         22    1    3    3    0    0 -0.23509754665E+01  0.41043346352E+02 -0.44415020057E+03  0.44604874625E+03  0.00000000000E+00 0. -1.
         22    1    3    3    0    0  0.12218739385E+02  0.17646174155E+03 -0.47843052881E+03  0.51008216468E+03  0.00000000000E+00 0. -1.
</event>
<event>
 7    1  0.6058736E-006  0.1158082E+03  0.7818608E-02  0.1314019E+00
          2   -1    0    0  502    0  0.00000000000E+00  0.00000000000E+00  0.25160944451E+03  0.25160944451E+03  0.00000000000E+00 0. -1.
          1   -1    0    0  501    0 -0.00000000000E+00 -0.00000000000E+00 -0.38752510521E+03  0.38752510521E+03  0.00000000000E+00 0. -1.
         25    2    1    2    0    0 -0.14820067196E+03 -0.39089461195E-01  0.16105586396E+02  0.19455707476E+03  0.12501849755E+03 0.  0.
          2    1    1    2  501    0  0.10411324498E+03  0.45304002168E+02 -0.27983773581E+03  0.30199532906E+03  0.00000000000E+00 0. -1.
          1    1    1    2  502    0  0.44087426977E+02 -0.45264912707E+02  0.12781648871E+03  0.14258214589E+03  0.00000000000E+00 0. -1.
         22    1    3    3    0    0 -0.10599983507E+03 -0.43814359112E+02  0.49797843821E+02  0.12504194636E+03  0.00000000000E+00 0. -1.
         22    1    3    3    0    0 -0.42200836887E+02  0.43775269651E+02 -0.33692257425E+02  0.69515128406E+02  0.00000000000E+00 0. -1.
</event>
<event>
 7    1  0.6058736E-006  0.1417574E+03  0.7818608E-02  0.1292238E+00
          2   -1    0    0  502    0  0.00000000000E+00  0.00000000000E+00  0.30085333821E+04  0.30085333821E+04  0.00000000000E+00 0. -1.
          1   -1    0    0  501    0 -0.00000000000E+00 -0.00000000000E+00 -0.12116630440E+03  0.12116630440E+03  0.00000000000E+00 0. -1.
         25    2    1    2    0    0  0.10346830225E+02  0.16218620568E+03  0.40573961698E+03  0.45459990152E+03  0.12500004589E+03 0.  0.
          2    1    1    2  501    0 -0.62066099424E+02 -0.12614749053E+03 -0.45053961853E+02  0.14763214265E+03  0.00000000000E+00 0. -1.
          1    1    1    2  502    0  0.51719269199E+02 -0.36038715151E+02  0.25266814226E+04  0.25274676424E+04  0.00000000000E+00 0. -1.
         22    1    3    3    0    0  0.46994260997E+01  0.18188412987E+03  0.38280893276E+03  0.42384737855E+03  0.00000000000E+00 0.  1.
         22    1    3    3    0    0  0.56474041251E+01 -0.19697924186E+02  0.22930684213E+02  0.30752522971E+02  0.00000000000E+00 0.  1.
</event>
<event>
 7    1  0.6058736E-006  0.1250907E+03  0.7818608E-02  0.1319248E+00
          2   -1    0    0  502    0  0.00000000000E+00  0.00000000000E+00  0.14362684385E+04  0.14362684385E+04  0.00000000000E+00 0. -1.
          1   -1    0    0  501    0 -0.00000000000E+00 -0.00000000000E+00 -0.11849764338E+04  0.11849764338E+04  0.00000000000E+00 0. -1.
         25    2    1    2    0    0 -0.11085453357E+03  0.70350457971E+01  0.36190879571E+02  0.17109723476E+03  0.12500505788E+03 0.  0.
          2    1    1    2  501    0 -0.56576417553E+01 -0.55526946165E+02 -0.11138350928E+04  0.11152326505E+04  0.00000000000E+00 0. -1.
          1    1    1    2  502    0  0.11651217533E+03  0.48491900368E+02  0.13289362180E+04  0.13349149871E+04  0.00000000000E+00 0. -1.
         22    1    3    3    0    0  0.27516861156E+02 -0.62353692404E+01  0.56079268873E+01  0.28766409602E+02  0.00000000000E+00 0.  1.
         22    1    3    3    0    0 -0.13837139473E+03  0.13270415037E+02  0.30582952684E+02  0.14233082515E+03  0.00000000000E+00 0.  1.
</event>
<event>
 7    1  0.6058736E-006  0.8143879E+02  0.7818608E-02  0.1458822E+00
          2   -1    0    0  502    0  0.00000000000E+00  0.00000000000E+00  0.14100645834E+03  0.14100645834E+03  0.00000000000E+00 0. -1.
          1   -1    0    0  501    0 -0.00000000000E+00 -0.00000000000E+00 -0.55315413578E+03  0.55315413578E+03  0.00000000000E+00 0. -1.
         25    2    1    2    0    0 -0.59177249951E+02  0.30875111954E+02 -0.22881163116E+03  0.26914126975E+03  0.12500816404E+03 0.  0.
          2    1    1    2  501    0 -0.22076730641E+02 -0.16901565463E+02 -0.28937061560E+03  0.29070328193E+03  0.00000000000E+00 0. -1.
          1    1    1    2  502    0  0.81253980593E+02 -0.13973546491E+02  0.10603456932E+03  0.13431604243E+03  0.00000000000E+00 0. -1.
         22    1    3    3    0    0 -0.74115022665E+02  0.61524024109E+02 -0.11334460640E+03  0.14874556103E+03  0.00000000000E+00 0. -1.
         22    1    3    3    0    0  0.14937772714E+02 -0.30648912155E+02 -0.11546702476E+03  0.12039570872E+03  0.00000000000E+00 0. -1.
</event>
<event>
 7    1  0.6058736E-006  0.1705823E+03  0.7818608E-02  0.1370515E+00
          2   -1    0    0  502    0  0.00000000000E+00  0.00000000000E+00  0.36301949565E+03  0.36301949565E+03  0.00000000000E+00 0. -1.
          1   -1    0    0  501    0 -0.00000000000E+00 -0.00000000000E+00 -0.39106766074E+03  0.39106766074E+03  0.00000000000E+00 0. -1.
         25    2    1    2    0    0  0.12911205691E+03  0.10897093498E+03 -0.29439875159E+03  0.36171849389E+03  0.12500022392E+03 0.  0.
          2    1    1    2  501    0 -0.15108434395E+03 -0.94453950375E+02  0.65559625621E+02  0.18985808448E+03  0.00000000000E+00 0. -1.
          1    1    1    2  502    0  0.21972287048E+02 -0.14516984601E+02  0.20079096088E+03  0.20251057802E+03  0.00000000000E+00 0. -1.
         22    1    3    3    0    0  0.10929777083E+03  0.12174371793E+03 -0.29587608043E+03  0.33809790081E+03  0.00000000000E+00 0. -1.
         22    1    3    3    0    0  0.19814286079E+02 -0.12772782955E+02  0.14773288360E+01  0.23620593086E+02  0.00000000000E+00 0. -1.
</event>
<event>
 7    1  0.6058736E-006  0.1215603E+03  0.7818608E-02  0.1337717E+00
          2   -1    0    0  502    0  0.00000000000E+00  0.00000000000E+00  0.19482898524E+04  0.19482898524E+04  0.00000000000E+00 0. -1.
          1   -1    0    0  501    0 -0.00000000000E+00 -0.00000000000E+00 -0.31548139044E+03  0.31548139044E+03  0.00000000000E+00 0. -1.
         25    2    1    2    0    0 -0.13311538715E+03 -0.63026345156E+02  0.21132547307E+03  0.28633052647E+03  0.12503874736E+03 0.  0.
          2    1    1    2  501    0  0.44935129579E+02 -0.19043572895E+02 -0.27368277994E+03  0.27800015751E+03  0.00000000000E+00 0. -1.
          1    1    1    2  502    0  0.88180257570E+02  0.82069918051E+02  0.16951657689E+04  0.16994405589E+04  0.00000000000E+00 0. -1.
         22    1    3    3    0    0  0.40802139035E+01  0.26152706689E+02  0.49839572930E+02  0.56432218125E+02  0.00000000000E+00 0. -1.
         22    1    3    3    0    0 -0.13719560105E+03 -0.89179051845E+02  0.16148590013E+03  0.22989830834E+03  0.00000000000E+00 0. -1.
</event>
<event>
 7    1  0.6058736E-006  0.7616052E+02  0.7818608E-02  0.1406030E+00
          2   -1    0    0  502    0  0.00000000000E+00  0.00000000000E+00  0.98334537972E+03  0.98334537972E+03  0.00000000000E+00 0. -1.
          1   -1    0    0  501    0 -0.00000000000E+00 -0.00000000000E+00 -0.10742879199E+03  0.10742879199E+03  0.00000000000E+00 0. -1.
         25    2    1    2    0    0  0.70991620819E+01 -0.11059794966E+03  0.16346553716E+03  0.23373097593E+03  0.12500753057E+03 0.  0.
          2    1    1    2  501    0 -0.23352725229E+02  0.69381084099E+02 -0.52958036990E+02  0.90352854345E+02  0.00000000000E+00 0. -1.
          1    1    1    2  502    0  0.16253563147E+02  0.41216865558E+02  0.76540908756E+03  0.76669034143E+03  0.00000000000E+00 0. -1.
         22    1    3    3    0    0 -0.34995554511E+01 -0.34606092781E+02  0.15226873801E+03  0.15619089961E+03  0.00000000000E+00 0.  1.
         22    1    3    3    0    0  0.10598717533E+02 -0.75991856876E+02  0.11196799151E+02  0.77540076322E+02  0.00000000000E+00 0.  1.
</event>
<event>
 7    1  0.6058736E-006  0.2348238E+03  0.7818608E-02  0.1201362E+00
          2   -1    0    0  502    0  0.00000000000E+00  0.00000000000E+00  0.13484072730E+04  0.13484072730E+04  0.00000000000E+00 0. -1.
          1   -1    0    0  501    0 -0.00000000000E+00 -0.00000000000E+00 -0.14436190547E+04  0.14436190547E+04  0.00000000000E+00 0. -1.
         25    2    1    2    0    0  0.16469928310E+03 -0.22742320522E+02 -0.16717952765E+03  0.26686564501E+03  0.12500084409E+03 0.  0.
          2    1    1    2  501    0  0.70462681611E+02  0.63565719957E+02 -0.12137612968E+04  0.12174654311E+04  0.00000000000E+00 0. -1.
          1    1    1    2  502    0 -0.23516196472E+03 -0.40823399435E+02  0.12857290428E+04  0.13076952516E+04  0.00000000000E+00 0. -1.
         22    1    3    3    0    0  0.72043214958E+02 -0.46725786014E+02 -0.15116704408E+02  0.87189670559E+02  0.00000000000E+00 0.  1.
         22    1    3    3    0    0  0.92656068147E+02  0.23983465492E+02 -0.15206282324E+03  0.17967597445E+03  0.00000000000E+00 0.  1.
</event>
<event>
 7    1  0.6058736E-006  0.9847886E+02  0.7818608E-02  0.1338857E+00
          2   -1    0    0  502    0  0.00000000000E+00  0.00000000000E+00  0.54997598378E+03  0.54997598378E+03  0.00000000000E+00 0. -1.
          1   -1    0    0  501    0 -0.00000000000E+00 -0.00000000000E+00 -0.10622231203E+03  0.10622231203E+03  0.00000000000E+00 0. -1.
         25    2    1    2    0    0 -0.41472047894E+02 -0.61842705146E+02  0.19094457295E+03  0.24006603007E+03  0.12500967129E+03 0.  0.
          2    1    1    2  501    0  0.34201583180E+02 -0.48870031144E+02 -0.59772240575E+02  0.84443762229E+02  0.00000000000E+00 0. -1.
          1    1    1    2  502    0  0.72704647147E+01  0.11071273629E+03  0.31258133937E+03  0.33168850351E+03  0.00000000000E+00 0. -1.
         22    1    3    3    0    0 -0.78155120185E+02 -0.70940589976E+02  0.12102897227E+03  0.16058892317E+03  0.00000000000E+00 0.  1.
         22    1    3    3    0    0  0.36683072291E+02  0.90978848306E+01  0.69915600684E+02  0.79477106893E+02  0.00000000000E+00 0.  1.
</event>
<event>
 7    1  0.6058736E-006  0.9830404E+02  0.7818608E-02  0.1417657E+00
          2   -1    0    0  502    0  0.00000000000E+00  0.00000000000E+00  0.83675027648E+03  0.83675027648E+03  0.00000000000E+00 0. -1.
          1   -1    0    0  501    0 -0.00000000000E+00 -0.00000000000E+00 -0.23225847210E+04  0.23225847210E+04  0.00000000000E+00 0. -1.
         25    2    1    2    0    0  0.51530807917E+02 -0.44591992415E+02  0.99077218632E+01  0.14271543307E+03  0.12500264770E+03 0.  0.
          2    1    1    2  501    0 -0.79824323073E+02  0.58108115573E+02 -0.22547768166E+04  0.22569375198E+04  0.00000000000E+00 0. -1.
          1    1    1    2  502    0  0.28293515156E+02 -0.13516123158E+02  0.75903465024E+03  0.75968204458E+03  0.00000000000E+00 0. -1.
         22    1    3    3    0    0 -0.35618828544E+02 -0.39945921269E+02 -0.64997659793E+01  0.53913120209E+02  0.00000000000E+00 0.  1.
         22    1    3    3    0    0  0.87149636461E+02 -0.46460711467E+01  0.16407487843E+02  0.88802312862E+02  0.00000000000E+00 0.  1.
</event>
<event>
 7    1  0.6058736E-006  0.1198488E+03  0.7818608E-02  0.1303931E+00
          2   -1    0    0  502    0  0.00000000000E+00  0.00000000000E+00  0.11816167739E+04  0.11816167739E+04  0.00000000000E+00 0. -1.
          1   -1    0    0  501    0 -0.00000000000E+00 -0.00000000000E+00 -0.31839912911E+03  0.31839912911E+03  0.00000000000E+00 0. -1.
         25    2    1    2    0    0  0.67980994959E+02 -0.12943253636E+03  0.76237329411E+02  0.20690946787E+03  0.12500080141E+03 0.  0.
          2    1    1    2  501    0 -0.96560821447E+02  0.68922562683E+02 -0.23800778396E+03  0.26593611471E+03  0.00000000000E+00 0. -1.
          1    1    1    2  502    0  0.28579826488E+02  0.60509973679E+02  0.10249880993E+04  0.10271703204E+04  0.00000000000E+00 0. -1.
         22    1    3    3    0    0  0.37813948426E+02 -0.53199622457E+02 -0.30726438153E+02  0.72140200490E+02  0.00000000000E+00 0.  1.
         22    1    3    3    0    0  0.30167046533E+02 -0.76232913905E+02  0.10696376756E+03  0.13476926738E+03  0.00000000000E+00 0.  1.
</event>
<event>
 7    1  0.6058736E-006  0.4367828E+02  0.7818608E-02  0.1507250E+00
          2   -1    0    0  502    0  0.00000000000E+00  0.00000000000E+00  0.88519971339E+03  0.88519971339E+03  0.00000000000E+00 0. -1.
          1   -1    0    0  501    0 -0.00000000000E+00 -0.00000000000E+00 -0.26337949568E+03  0.26337949568E+03  0.00000000000E+00 0. -1.
         25    2    1    2    0    0  0.25269201186E+02 -0.73855152049E+02  0.42000443786E+01  0.14743111553E+03  0.12500070976E+03 0.  0.
          2    1    1    2  501    0 -0.26945688522E+01  0.36773239519E+02 -0.18940273250E+03  0.19295835542E+03  0.00000000000E+00 0. -1.
          1    1    1    2  502    0 -0.22574632334E+02  0.37081912530E+02  0.80702290584E+03  0.80818973812E+03  0.00000000000E+00 0. -1.
         22    1    3    3    0    0  0.74073308894E+02 -0.41244768648E+02 -0.14103376993E+02  0.85947025975E+02  0.00000000000E+00 0. -1.
         22    1    3    3    0    0 -0.48804107707E+02 -0.32610383400E+02  0.18303421372E+02  0.61484089556E+02  0.00000000000E+00 0. -1.
</event>
<event>
 7    1  0.6058736E-006  0.3130391E+03  0.7818608E-02  0.1216455E+00
          2   -1    0    0  502    0  0.00000000000E+00  0.00000000000E+00  0.16322946776E+04  0.16322946776E+04  0.00000000000E+00 0. -1.
          1   -1    0    0  501    0 -0.00000000000E+00 -0.00000000000E+00 -0.47371710649E+03  0.47371710649E+03  0.00000000000E+00 0. -1.
         25    2    1    2    0    0  0.29378179302E+03 -0.11550090929E+03  0.10599508316E+03  0.35567910195E+03  0.12499785577E+03 0.  0.
          2    1    1    2  501    0 -0.29489047213E+02 -0.52910652101E+02 -0.32855203053E+03  0.33408917638E+03  0.00000000000E+00 0. -1.
          1    1    1    2  502    0 -0.26429274581E+03  0.16841156139E+03  0.13811345184E+04  0.14162435057E+04  0.00000000000E+00 0. -1.
         22    1    3    3    0    0 -0.37029578410E+01  0.12302015469E+02 -0.44317685282E+01  0.13590145461E+02  0.00000000000E+00 0. -1.
         22    1    3    3    0    0  0.29748475087E+03 -0.12780292476E+03  0.11042685169E+03  0.34208895649E+03  0.00000000000E+00 0. -1.
</event>
<event>
 7    1  0.6058736E-006  0.1396751E+03  0.7818608E-02  0.1242004E+00
          2   -1    0    0  502    0  0.00000000000E+00  0.00000000000E+00  0.93029335553E+03  0.93029335553E+03  0.00000000000E+00 0. -1.
          1   -1    0    0  501    0 -0.00000000000E+00 -0.00000000000E+00 -0.22138943977E+03  0.22138943977E+03  0.00000000000E+00 0. -1.
         25    2    1    2    0    0  0.14241826880E+03  0.15703706940E+03  0.34800060788E+03  0.42623133802E+03  0.12500050391E+03 0.  0.
          2    1    1    2  501    0 -0.28077840315E+02 -0.10039006837E+03 -0.15899602459E+03  0.19012171569E+03  0.00000000000E+00 0. -1.
          1    1    1    2  502    0 -0.11434042848E+03 -0.56647001031E+02  0.51989933247E+03  0.53532974158E+03  0.00000000000E+00 0. -1.
         22    1    3    3    0    0  0.27018745195E+02  0.91267491853E+02  0.70072410120E+02  0.11819437517E+03  0.00000000000E+00 0.  1.
         22    1    3    3    0    0  0.11539952361E+03  0.65769577547E+02  0.27792819776E+03  0.30803696286E+03  0.00000000000E+00 0.  1.
</event>
<event>
 7    1  0.6058736E-006  0.1083674E+03  0.7818608E-02  0.1308279E+00
          2   -1    0    0  502    0  0.00000000000E+00  0.00000000000E+00  0.52946788247E+03  0.52946788247E+03  0.00000000000E+00 0. -1.
          1   -1    0    0  501    0 -0.00000000000E+00 -0.00000000000E+00 -0.62038197309E+03  0.62038197309E+03  0.00000000000E+00 0. -1.
         25    2    1    2    0    0 -0.12750858351E+03 -0.10584456772E+03  0.14136848767E+03  0.25114264173E+03  0.12500426315E+03 0.  0.
          2    1    1    2  501    0  0.37480650009E+02  0.60453335046E+02 -0.55554831970E+03  0.56008333341E+03  0.00000000000E+00 0. -1.
          1    1    1    2  502    0  0.90027933497E+02  0.45391232679E+02  0.32326574142E+03  0.33862388042E+03  0.00000000000E+00 0. -1.
         22    1    3    3    0    0 -0.11759998644E+03 -0.12675560422E+03  0.90277649138E+02  0.19505587391E+03  0.00000000000E+00 0.  1.
         22    1    3    3    0    0 -0.99085970667E+01  0.20911036496E+02  0.51090838529E+02  0.56086767823E+02  0.00000000000E+00 0.  1.
</event>
<event>
 7    1  0.6058736E-006  0.4794914E+02  0.7818608E-02  0.1495246E+00
          2   -1    0    0  502    0  0.00000000000E+00  0.00000000000E+00  0.11890325260E+03  0.11890325260E+03  0.00000000000E+00 0. -1.
          1   -1    0    0  501    0 -0.00000000000E+00 -0.00000000000E+00 -0.82147012281E+03  0.82147012281E+03  0.00000000000E+00 0. -1.
         25    2    1    2    0    0 -0.41217328573E+02  0.29617973017E+02 -0.26131022050E+03  0.29408017250E+03  0.12499609602E+03 0.  0.
          2    1    1    2  501    0 -0.65420769574E+01 -0.35878807860E+02 -0.53746472314E+03  0.53870067407E+03  0.00000000000E+00 0. -1.
          1    1    1    2  502    0  0.47759405530E+02  0.62608348437E+01  0.96208073426E+02  0.10759252884E+03  0.00000000000E+00 0. -1.
         22    1    3    3    0    0  0.80811773125E+01 -0.35816961581E+02 -0.15809159358E+03  0.16229945201E+03  0.00000000000E+00 0.  1.
         22    1    3    3    0    0 -0.49298505885E+02  0.65434934598E+02 -0.10321862692E+03  0.13178072049E+03  0.00000000000E+00 0.  1.
</event>
<event>
 7    1  0.6058736E-006  0.1407276E+03  0.7818608E-02  0.1331717E+00
          2   -1    0    0  502    0  0.00000000000E+00  0.00000000000E+00  0.75849380248E+03  0.75849380248E+03  0.00000000000E+00 0. -1.
          1   -1    0    0  501    0 -0.00000000000E+00 -0.00000000000E+00 -0.11418311988E+03  0.11418311988E+03  0.00000000000E+00 0. -1.
         25    2    1    2    0    0  0.13921097007E+03  0.21066082642E+02  0.89314433391E+02  0.20838670604E+03  0.12499790884E+03 0.  0.
          2    1    1    2  501    0 -0.14149781385E+03  0.23299770246E+02  0.42074514898E+02  0.14944823659E+03  0.00000000000E+00 0. -1.
          1    1    1    2  502    0  0.22868437742E+01 -0.44365852888E+02  0.51292173431E+03  0.51484197972E+03  0.00000000000E+00 0. -1.
         22    1    3    3    0    0  0.55382341485E+02  0.32261777542E+02 -0.22731534976E+02  0.68005505079E+02  0.00000000000E+00 0.  1.
         22    1    3    3    0    0  0.83828628588E+02 -0.11195694900E+02  0.11204596837E+03  0.14038120096E+03  0.00000000000E+00 0.  1.
</event>
<event>
 7    1  0.6058736E-006  0.4838977E+02  0.7818608E-02  0.1466193E+00
          2   -1    0    0  502    0  0.00000000000E+00  0.00000000000E+00  0.10619485666E+04  0.10619485666E+04  0.00000000000E+00 0. -1.
          1   -1    0    0  501    0 -0.00000000000E+00 -0.00000000000E+00 -0.23980356867E+02  0.23980356867E+02  0.00000000000E+00 0. -1.
         25    2    1    2    0    0 -0.41707516234E+01  0.75425323380E+01  0.28347820279E+03  0.30993576991E+03  0.12500402012E+03 0.  0.
          2    1    1    2  501    0 -0.16863030142E+02 -0.51121770440E+02  0.63228371645E+02  0.83039895107E+02  0.00000000000E+00 0. -1.
          1    1    1    2  502    0  0.21033781765E+02  0.43579238102E+02  0.69126163533E+03  0.69295325848E+03  0.00000000000E+00 0. -1.
         22    1    3    3    0    0  0.50384308785E+01 -0.56402665903E+02  0.93917812060E+02  0.10966860047E+03  0.00000000000E+00 0.  1.
         22    1    3    3    0    0 -0.92091825019E+01  0.63945198241E+02  0.18956039073E+03  0.20026716944E+03  0.00000000000E+00 0.  1.
</event>
<event>
 7    1  0.6058736E-006  0.4775530E+02  0.7818608E-02  0.1508040E+00
          2   -1    0    0  502    0  0.00000000000E+00  0.00000000000E+00  0.13552704433E+04  0.13552704433E+04  0.00000000000E+00 0. -1.
          1   -1    0    0  501    0 -0.00000000000E+00 -0.00000000000E+00 -0.17035799072E+03  0.17035799072E+03  0.00000000000E+00 0. -1.
         25    2    1    2    0    0  0.63367520327E+02 -0.46246500280E+02  0.43846258592E+03  0.46263279803E+03  0.12500194054E+03 0.  0.
          2    1    1    2  501    0 -0.43449373651E+02  0.19257288006E+02 -0.15438597438E+03  0.16153550785E+03  0.00000000000E+00 0. -1.
          1    1    1    2  502    0 -0.19918146676E+02  0.26989212275E+02  0.90083584107E+03  0.90146012818E+03  0.00000000000E+00 0. -1.
         22    1    3    3    0    0  0.65677923929E+02 -0.23990579972E+02  0.92534286290E+02  0.11598160095E+03  0.00000000000E+00 0. -1.
         22    1    3    3    0    0 -0.23104036014E+01 -0.22255920308E+02  0.34592829963E+03  0.34665119708E+03  0.00000000000E+00 0. -1.
</event>
<event>
 7    1  0.6058736E-006  0.9554394E+02  0.7818608E-02  0.1375169E+00
          2   -1    0    0  502    0  0.00000000000E+00  0.00000000000E+00  0.11592874799E+04  0.11592874799E+04  0.00000000000E+00 0. -1.
          1   -1    0    0  501    0 -0.00000000000E+00 -0.00000000000E+00 -0.14305453131E+03  0.14305453131E+03  0.00000000000E+00 0. -1.
         25    2    1    2    0    0  0.51080615440E+02  0.49795504417E+02  0.64426595931E+03  0.66014617369E+03  0.12500209108E+03 0.  0.
          2    1    1    2  501    0 -0.91662057288E+02 -0.29781992761E+02 -0.11674824809E+03  0.15139040020E+03  0.00000000000E+00 0. -1.
          1    1    1    2  502    0  0.40581441848E+02 -0.20013511656E+02  0.48871523740E+03  0.49080543735E+03  0.00000000000E+00 0. -1.
         22    1    3    3    0    0 -0.40890431616E+02  0.91092632499E+01  0.14926921428E+03  0.15503646154E+03  0.00000000000E+00 0. -1.
         22    1    3    3    0    0  0.91971047056E+02  0.40686241167E+02  0.49499674504E+03  0.50510971215E+03  0.00000000000E+00 0. -1.
</event>
<event>
 7    1  0.6058736E-006  0.1788389E+03  0.7818608E-02  0.1366002E+00
          2   -1    0    0  502    0  0.00000000000E+00  0.00000000000E+00  0.27454563371E+04  0.27454563371E+04  0.00000000000E+00 0. -1.
          1   -1    0    0  501    0 -0.00000000000E+00 -0.00000000000E+00 -0.13087275627E+03  0.13087275627E+03  0.00000000000E+00 0. -1.
         25    2    1    2    0    0 -0.66997316899E+01 -0.18630526862E+03  0.99684962295E+03  0.10218065331E+04  0.12499952326E+03 0.  0.
          2    1    1    2  501    0 -0.17862200055E+02  0.17754443190E+03 -0.50999270885E+02  0.18558558436E+03  0.00000000000E+00 0. -1.
          1    1    1    2  502    0  0.24561931745E+02  0.87608367167E+01  0.16687332287E+04  0.16689369759E+04  0.00000000000E+00 0. -1.
         22    1    3    3    0    0 -0.34813781459E+02 -0.39558549239E+02  0.10450494004E+03  0.11703914170E+03  0.00000000000E+00 0.  1.
         22    1    3    3    0    0  0.28114049769E+02 -0.14674671938E+03  0.89234468291E+03  0.90476739141E+03  0.00000000000E+00 0.  1.
</event>
<event>
 7    1  0.6058736E-006  0.1804855E+03  0.7818608E-02  0.1357345E+00
          2   -1    0    0  502    0  0.00000000000E+00  0.00000000000E+00  0.21591424335E+04  0.21591424335E+04  0.00000000000E+00 0. -1.
          1   -1    0    0  501    0 -0.00000000000E+00 -0.00000000000E+00 -0.29323206903E+03  0.29323206903E+03  0.00000000000E+00 0. -1.
         25    2    1    2    0    0 -0.15779297608E+03  0.14844050700E+02  0.44823439632E+03  0.49159017924E+03  0.12501144404E+03 0.  0.
          2    1    1    2  501    0 -0.27549138534E+02 -0.36076182185E+01 -0.26572506280E+03  0.26717368684E+03  0.00000000000E+00 0. -1.
          1    1    1    2  502    0  0.18534211461E+03 -0.11236432482E+02  0.16834010309E+04  0.16936106364E+04  0.00000000000E+00 0. -1.
         22    1    3    3    0    0 -0.10984678982E+03  0.57848762081E+02  0.36989796190E+03  0.39017598430E+03  0.00000000000E+00 0. -1.
         22    1    3    3    0    0 -0.47946186261E+02 -0.43004711380E+02  0.78336434422E+02  0.10141419494E+03  0.00000000000E+00 0. -1.
</event>
<event>
 7    1  0.6058736E-006  0.3348429E+02  0.7818608E-02  0.1564344E+00
          2   -1    0    0  502    0  0.00000000000E+00  0.00000000000E+00  0.87087840724E+03  0.87087840724E+03  0.00000000000E+00 0. -1.
          1   -1    0    0  501    0 -0.00000000000E+00 -0.00000000000E+00 -0.42074269728E+03  0.42074269728E+03  0.00000000000E+00 0. -1.
         25    2    1    2    0    0  0.20746020200E+02  0.44656287160E+01  0.24922807026E+03  0.27962613630E+03  0.12500322358E+03 0.  0.
          2    1    1    2  501    0 -0.15219743271E+02  0.29386910312E+02 -0.40438214381E+03  0.40573408695E+03  0.00000000000E+00 0. -1.
          1    1    1    2  502    0 -0.55262769282E+01 -0.33852539028E+02  0.60528978351E+03  0.60626088126E+03  0.00000000000E+00 0. -1.
         22    1    3    3    0    0 -0.11937021522E+02  0.42732980990E+02  0.21311547709E+03  0.21768510909E+03  0.00000000000E+00 0. -1.
         22    1    3    3    0    0  0.32683041722E+02 -0.38267352274E+02  0.36112593176E+02  0.61941027212E+02  0.00000000000E+00 0. -1.
</event>
<event>
 7    1  0.6058736E-006  0.8291181E+02  0.7818608E-02  0.1414401E+00
          2   -1    0    0  502    0  0.00000000000E+00  0.00000000000E+00  0.43894811902E+02  0.43894811902E+02  0.00000000000E+00 0. -1.
          1   -1    0    0  501    0 -0.00000000000E+00 -0.00000000000E+00 -0.92344047988E+03  0.92344047988E+03  0.00000000000E+00 0. -1.
         25    2    1    2    0    0  0.35424295530E+02  0.44329106242E+02 -0.42948899595E+03  0.45089671990E+03  0.12500841573E+03 0.  0.
          2    1    1    2  501    0 -0.54120320231E+02 -0.77555913435E+02 -0.46571674613E+03  0.47522207061E+03  0.00000000000E+00 0. -1.
          1    1    1    2  502    0  0.18696024701E+02  0.33226807193E+02  0.15660074102E+02  0.41216501268E+02  0.00000000000E+00 0. -1.
         22    1    3    3    0    0 -0.14224027129E+02 -0.28778380130E+02 -0.38900880543E+02  0.50436064653E+02  0.00000000000E+00 0. -1.
         22    1    3    3    0    0  0.49648322659E+02  0.73107486372E+02 -0.39058811541E+03  0.40046065525E+03  0.00000000000E+00 0. -1.
</event>
<event>
 7    1  0.6058736E-006  0.3815205E+02  0.7818608E-02  0.1541492E+00
          2   -1    0    0  502    0  0.00000000000E+00  0.00000000000E+00  0.55739746572E+03  0.55739746572E+03  0.00000000000E+00 0. -1.
          1   -1    0    0  501    0 -0.00000000000E+00 -0.00000000000E+00 -0.41949303454E+02  0.41949303454E+02  0.00000000000E+00 0. -1.
         25    2    1    2    0    0 -0.20978960049E+02 -0.48269551846E+02  0.26427417267E+03  0.29704549965E+03  0.12500049650E+03 0.  0.
          2    1    1    2  501    0 -0.12763133517E+02  0.31101542389E+02 -0.12541899752E+02  0.35881788773E+02  0.00000000000E+00 0. -1.
          1    1    1    2  502    0  0.33742093566E+02  0.17168009457E+02  0.26371588935E+03  0.26641948075E+03  0.00000000000E+00 0. -1.
         22    1    3    3    0    0 -0.83356458574E+01  0.34160823154E+02  0.15848268451E+03  0.16233670602E+03  0.00000000000E+00 0.  1.
         22    1    3    3    0    0 -0.12643314191E+02 -0.82430375000E+02  0.10579148816E+03  0.13470879364E+03  0.00000000000E+00 0.  1.
</event>
<event>
 7    1  0.6058736E-006  0.1935807E+03  0.7818608E-02  0.1156484E+00
          2   -1    0    0  502    0  0.00000000000E+00  0.00000000000E+00  0.18639115990E+04  0.18639115990E+04  0.00000000000E+00 0. -1.
          1   -1    0    0  501    0 -0.00000000000E+00 -0.00000000000E+00 -0.20430353158E+03  0.20430353158E+03  0.00000000000E+00 0. -1.
         25    2    1    2    0    0 -0.18000245944E+03 -0.54796675553E+02  0.54124547206E+03  0.58649429453E+03  0.12500134170E+03 0.  0.
          2    1    1    2  501    0  0.11609844455E+03 -0.15490205688E+03 -0.11757694271E+03  0.22649025037E+03  0.00000000000E+00 0. -1.
          1    1    1    2  502    0  0.63904014892E+02  0.20969873244E+03  0.12359395380E+04  0.12552305857E+04  0.00000000000E+00 0. -1.
         22    1    3    3    0    0 -0.25274550767E+02  0.36830783229E+02  0.83559251106E+02  0.94749448310E+02  0.00000000000E+00 0.  1.
         22    1    3    3    0    0 -0.15472790867E+03 -0.91627458783E+02  0.45768622096E+03  0.49174484622E+03  0.00000000000E+00 0.  1.
</event>
<event>
 7    1  0.6058736E-006  0.1150622E+03  0.7818608E-02  0.1274691E+00
          2   -1    0    0  502    0  0.00000000000E+00  0.00000000000E+00  0.10282869599E+04  0.10282869599E+04  0.00000000000E+00 0. -1.
          1   -1    0    0  501    0 -0.00000000000E+00 -0.00000000000E+00 -0.20848838305E+03  0.20848838305E+03  0.00000000000E+00 0. -1.
         25    2    1    2    0    0 -0.11158602610E+03  0.49597700780E+02  0.16924395189E+03  0.24326954329E+03  0.12500072917E+03 0.  0.
          2    1    1    2  501    0  0.13632462888E+01 -0.91680064667E+02 -0.15460423175E+03  0.17974860548E+03  0.00000000000E+00 0. -1.
          1    1    1    2  502    0  0.11022277981E+03  0.42082363887E+02  0.80515885673E+03  0.81375719420E+03  0.00000000000E+00 0. -1.
         22    1    3    3    0    0 -0.11446331898E+02 -0.38157391648E+02  0.54448862325E+02  0.67466166778E+02  0.00000000000E+00 0. -1.
         22    1    3    3    0    0 -0.10013969421E+03  0.87755092428E+02  0.11479508957E+03  0.17580337651E+03  0.00000000000E+00 0. -1.
</event>
<event>
 7    1  0.6058736E-006  0.1695108E+03  0.7818608E-02  0.1399200E+00
          2   -1    0    0  502    0  0.00000000000E+00  0.00000000000E+00  0.16189173484E+03  0.16189173484E+03  0.00000000000E+00 0. -1.
          1   -1    0    0  501    0 -0.00000000000E+00 -0.00000000000E+00 -0.24472769437E+04  0.24472769437E+04  0.00000000000E+00 0. -1.
         25    2    1    2    0    0  0.72935825423E+02 -0.13202172086E+03 -0.15637447448E+04  0.15759669883E+04  0.12499980669E+03 0.  0.
          2    1    1    2  501    0  0.17026954311E+02 -0.12305673398E+02 -0.83083133859E+03  0.83109690166E+03  0.00000000000E+00 0. -1.
          1    1    1    2  502    0 -0.89962779735E+02  0.14432739426E+03  0.10919087460E+03  0.20210478858E+03  0.00000000000E+00 0. -1.
         22    1    3    3    0    0 -0.65650495821E+01  0.21182472478E+02 -0.13113632312E+03  0.13299824156E+03  0.00000000000E+00 0.  1.
         22    1    3    3    0    0  0.79500875005E+02 -0.15320419334E+03 -0.14326084217E+04  0.14429687467E+04  0.00000000000E+00 0.  1.
</event>
<event>
 7    1  0.6058736E-006  0.6292953E+02  0.7818608E-02  0.1386751E+00
          2   -1    0    0  502    0  0.00000000000E+00  0.00000000000E+00  0.10708833474E+04  0.10708833474E+04  0.00000000000E+00 0. -1.
          1   -1    0    0  501    0 -0.00000000000E+00 -0.00000000000E+00 -0.45364226717E+02  0.45364226717E+02  0.00000000000E+00 0. -1.
         25    2    1    2    0    0 -0.45580294205E+02 -0.51890293762E+01  0.38685496294E+03  0.40912854536E+03  0.12499966011E+03 0.  0.
          2    1    1    2  501    0  0.70205155620E+01  0.62536698219E+02 -0.17825410274E+01  0.62954775160E+02  0.00000000000E+00 0. -1.
          1    1    1    2  502    0  0.38559778643E+02 -0.57347668843E+02  0.64044669878E+03  0.64416425361E+03  0.00000000000E+00 0. -1.
         22    1    3    3    0    0  0.34164794363E+02  0.11193679051E+02  0.44403158511E+02  0.57132933675E+02  0.00000000000E+00 0.  1.
         22    1    3    3    0    0 -0.79745088568E+02 -0.16382708427E+02  0.34245180443E+03  0.35199561168E+03  0.00000000000E+00 0.  1.
</event>
<event>
 7    1  0.6058736E-006  0.3366839E+03  0.7818608E-02  0.1223622E+00
          2   -1    0    0  502    0  0.00000000000E+00  0.00000000000E+00  0.11387132728E+04  0.11387132728E+04  0.00000000000E+00 0. -1.
          1   -1    0    0  501    0 -0.00000000000E+00 -0.00000000000E+00 -0.55848235448E+03  0.55848235448E+03  0.00000000000E+00 0. -1.
         25    2    1    2    0    0  0.29954926436E+03  0.23452811471E+03  0.33221521324E+03  0.52031242156E+03  0.12499947904E+03 0.  0.
          2    1    1    2  501    0 -0.26923122724E+03 -0.19198931322E+03 -0.40439768901E+03  0.52238189190E+03  0.00000000000E+00 0. -1.
          1    1    1    2  502    0 -0.30318037117E+02 -0.42538801482E+02  0.65241339413E+03  0.65450131386E+03  0.00000000000E+00 0. -1.
         22    1    3    3    0    0  0.26733850085E+03  0.14952380444E+03  0.22693000408E+03  0.38121446573E+03  0.00000000000E+00 0.  1.
         22    1    3    3    0    0  0.32210763511E+02  0.85004310265E+02  0.10528520916E+03  0.13909795583E+03  0.00000000000E+00 0.  1.
</event>
<event>
 7    1  0.6058736E-006  0.5045452E+02  0.7818608E-02  0.1447487E+00
          2   -1    0    0  502    0  0.00000000000E+00  0.00000000000E+00  0.16680961324E+03  0.16680961324E+03  0.00000000000E+00 0. -1.
          1   -1    0    0  501    0 -0.00000000000E+00 -0.00000000000E+00 -0.46793730040E+03  0.46793730040E+03  0.00000000000E+00 0. -1.
         25    2    1    2    0    0  0.13472437678E+02 -0.51739407857E+02  0.22924233940E+02  0.13787413793E+03  0.12500113802E+03 0.  0.
          2    1    1    2  501    0 -0.48368071591E+02  0.14359262315E+02 -0.40117569115E+03  0.40433599139E+03  0.00000000000E+00 0. -1.
          1    1    1    2  502    0  0.34895633914E+02  0.37380145542E+02  0.77123770048E+02  0.92536784326E+02  0.00000000000E+00 0. -1.
         22    1    3    3    0    0 -0.23350771868E+02 -0.74774638174E+02 -0.15532948306E+02  0.79860988874E+02  0.00000000000E+00 0. -1.
         22    1    3    3    0    0  0.36823209546E+02  0.23035230317E+02  0.38457182246E+02  0.58013149055E+02  0.00000000000E+00 0. -1.
</event>
<event>
 7    1  0.6058736E-006  0.5351395E+02  0.7818608E-02  0.1497748E+00
          2   -1    0    0  502    0  0.00000000000E+00  0.00000000000E+00  0.43199267056E+03  0.43199267056E+03  0.00000000000E+00 0. -1.
          1   -1    0    0  501    0 -0.00000000000E+00 -0.00000000000E+00 -0.23791271022E+04  0.23791271022E+04  0.00000000000E+00 0. -1.
         25    2    1    2    0    0 -0.30880290216E+02  0.66359745615E+02  0.22470096638E+03  0.26734449170E+03  0.12500137914E+03 0.  0.
          2    1    1    2  501    0  0.28162995682E+02 -0.15440959051E+02 -0.23541984063E+04  0.23544174893E+04  0.00000000000E+00 0. -1.
          1    1    1    2  502    0  0.27172945333E+01 -0.50918786564E+02  0.18236300829E+03  0.18935779178E+03  0.00000000000E+00 0. -1.
         22    1    3    3    0    0  0.23002149423E+02  0.73654784292E+01 -0.45430407552E+01  0.24576174842E+02  0.00000000000E+00 0.  1.
         22    1    3    3    0    0 -0.53882439638E+02  0.58994267186E+02  0.22924400714E+03  0.24276831686E+03  0.00000000000E+00 0.  1.
</event>
<event>
 7    1  0.6058736E-006  0.5220356E+02  0.7818608E-02  0.1459917E+00
          2   -1    0    0  502    0  0.00000000000E+00  0.00000000000E+00  0.11852672115E+04  0.11852672115E+04  0.00000000000E+00 0. -1.
          1   -1    0    0  501    0 -0.00000000000E+00 -0.00000000000E+00 -0.32066774425E+02  0.32066774425E+02  0.00000000000E+00 0. -1.
         25    2    1    2    0    0  0.13552827934E+02 -0.23916119015E+01  0.37086379994E+03  0.39160695917E+03  0.12500661348E+03 0.  0.
          2    1    1    2  501    0  0.41972926261E+02  0.94821207529E+01  0.16772499494E+01  0.43063329182E+02  0.00000000000E+00 0. -1.
          1    1    1    2  502    0 -0.55525754195E+02 -0.70905088514E+01  0.78065938719E+03  0.78266369757E+03  0.00000000000E+00 0. -1.
         22    1    3    3    0    0 -0.17839819315E+02  0.28966941969E+02  0.32850766481E+03  0.33026448298E+03  0.00000000000E+00 0.  1.
         22    1    3    3    0    0  0.31392647250E+02 -0.31358553870E+02  0.42356135133E+02  0.61342476193E+02  0.00000000000E+00 0.  1.
</event>
<event>
 7    1  0.6058736E-006  0.4253581E+02  0.7818608E-02  0.1570388E+00
          2   -1    0    0  502    0  0.00000000000E+00  0.00000000000E+00  0.31994813381E+03  0.31994813381E+03  0.00000000000E+00 0. -1.
          1   -1    0    0  501    0 -0.00000000000E+00 -0.00000000000E+00 -0.91934302755E+03  0.91934302755E+03  0.00000000000E+00 0. -1.
         25    2    1    2    0    0  0.19709031653E+02 -0.64059464813E+01 -0.51699683508E+02  0.13687020175E+03  0.12502444871E+03 0.  0.
          2    1    1    2  501    0 -0.32381870367E+02  0.28050987060E+02 -0.82393336103E+03  0.82504643919E+03  0.00000000000E+00 0. -1.
          1    1    1    2  502    0  0.12672838714E+02 -0.21645040579E+02  0.27623815079E+03  0.27737452042E+03  0.00000000000E+00 0. -1.
         22    1    3    3    0    0 -0.27362985424E+02  0.36476136912E+02 -0.56975757851E+02  0.72975876275E+02  0.00000000000E+00 0.  1.
         22    1    3    3    0    0  0.47072017077E+02 -0.42882083393E+02  0.52760743431E+01  0.63894325478E+02  0.00000000000E+00 0.  1.
</event>
<event>
 7    1  0.6058736E-006  0.4056303E+02  0.7818608E-02  0.1601725E+00
          2   -1    0    0  502    0  0.00000000000E+00  0.00000000000E+00  0.59850989964E+03  0.59850989964E+03  0.00000000000E+00 0. -1.
          1   -1    0    0  501    0 -0.00000000000E+00 -0.00000000000E+00 -0.29777007035E+02  0.29777007035E+02  0.00000000000E+00 0. -1.
         25    2    1    2    0    0  0.54009481328E+02 -0.53077201676E+01  0.27353882825E+03  0.30560300397E+03  0.12499803800E+03 0.  0.
          2    1    1    2  501    0 -0.38268211855E+02 -0.96397377477E+01  0.15898085285E+02  0.42545619024E+02  0.00000000000E+00 0. -1.
          1    1    1    2  502    0 -0.15741269473E+02  0.14947457915E+02  0.27929597907E+03  0.28013828369E+03  0.00000000000E+00 0. -1.
         22    1    3    3    0    0  0.83856777785E+02 -0.82805548249E+01  0.25881920146E+03  0.27219093632E+03  0.00000000000E+00 0. -1.
         22    1    3    3    0    0 -0.29847296457E+02  0.29728346573E+01  0.14719626795E+02  0.33412067651E+02  0.00000000000E+00 0. -1.
</event>
<event>
 7    1  0.6058736E-006  0.6412224E+02  0.7818608E-02  0.1421835E+00
          2   -1    0    0  502    0  0.00000000000E+00  0.00000000000E+00  0.12895082696E+04  0.12895082696E+04  0.00000000000E+00 0. -1.
          1   -1    0    0  501    0 -0.00000000000E+00 -0.00000000000E+00 -0.18109683704E+03  0.18109683704E+03  0.00000000000E+00 0. -1.
         25    2    1    2    0    0  0.12031915079E+02 -0.14157663181E+02  0.30443931358E+02  0.12998775934E+03  0.12499911286E+03 0.  0.
          2    1    1    2  501    0  0.23466079319E+02 -0.40203540448E+02 -0.12629761037E+03  0.13460337265E+03  0.00000000000E+00 0. -1.
          1    1    1    2  502    0 -0.35497994397E+02  0.54361203629E+02  0.12042651116E+04  0.12060139746E+04  0.00000000000E+00 0. -1.
         22    1    3    3    0    0  0.44776751145E+02  0.36634578575E+02 -0.79397610363E+01  0.58395972427E+02  0.00000000000E+00 0.  1.
         22    1    3    3    0    0 -0.32744836066E+02 -0.50792241756E+02  0.38383692394E+02  0.71591786913E+02  0.00000000000E+00 0.  1.
</event>
<event>
 7    1  0.6058736E-006  0.3927915E+03  0.7818608E-02  0.1219880E+00
          2   -1    0    0  502    0  0.00000000000E+00  0.00000000000E+00  0.22427995046E+04  0.22427995046E+04  0.00000000000E+00 0. -1.
          1   -1    0    0  501    0 -0.00000000000E+00 -0.00000000000E+00 -0.18521852221E+03  0.18521852221E+03  0.00000000000E+00 0. -1.
         25    2    1    2    0    0 -0.22353485982E+03 -0.29305701738E+03  0.94600802745E+03  0.10229399890E+04  0.12499913672E+03 0.  0.
          2    1    1    2  501    0 -0.20698529325E+02 -0.41711184835E+02 -0.10768656078E+03  0.11732283422E+03  0.00000000000E+00 0. -1.
          1    1    1    2  502    0  0.24423338915E+03  0.33476820222E+03  0.12192595158E+04  0.12877552036E+04  0.00000000000E+00 0. -1.
         22    1    3    3    0    0 -0.16400429337E+01 -0.45246073887E+02  0.21635440289E+03  0.22104100207E+03  0.00000000000E+00 0.  1.
         22    1    3    3    0    0 -0.22189481689E+03 -0.24781094349E+03  0.72965362455E+03  0.80189898697E+03  0.00000000000E+00 0.  1.
</event>
<event>
 7    1  0.6058736E-006  0.1471098E+03  0.7818608E-02  0.1326811E+00
          2   -1    0    0  502    0  0.00000000000E+00  0.00000000000E+00  0.25862520039E+04  0.25862520039E+04  0.00000000000E+00 0. -1.
          1   -1    0    0  501    0 -0.00000000000E+00 -0.00000000000E+00 -0.18966372520E+03  0.18966372520E+03  0.00000000000E+00 0. -1.
         25    2    1    2    0    0 -0.76629898835E+02  0.11152698280E+03  0.34579867702E+03  0.39180549574E+03  0.12499764868E+03 0.  0.
          2    1    1    2  501    0 -0.40116776097E+02 -0.18964503831E+02 -0.16115560763E+03  0.16715303766E+03  0.00000000000E+00 0. -1.
          1    1    1    2  502    0  0.11674667493E+03 -0.92562478969E+02  0.22119452093E+04  0.22169571957E+04  0.00000000000E+00 0. -1.
         22    1    3    3    0    0 -0.47998924796E+02 -0.16224522226E+02  0.12832071045E+03  0.13796135920E+03  0.00000000000E+00 0. -1.
         22    1    3    3    0    0 -0.28630974040E+02  0.12775150503E+03  0.21747796658E+03  0.25384413654E+03  0.00000000000E+00 0. -1.
</event>
<event>
 7    1  0.6058736E-006  0.7947766E+02  0.7818608E-02  0.1427856E+00
          2   -1    0    0  502    0  0.00000000000E+00  0.00000000000E+00  0.24031839202E+04  0.24031839202E+04  0.00000000000E+00 0. -1.
          1   -1    0    0  501    0 -0.00000000000E+00 -0.00000000000E+00 -0.16958149298E+02  0.16958149298E+02  0.00000000000E+00 0. -1.
         25    2    1    2    0    0 -0.83836089652E+02  0.21234755886E+02  0.53382193251E+03  0.55504174456E+03  0.12500431107E+03 0.  0.
          2    1    1    2  501    0  0.77386601289E+02  0.14049618258E+02  0.24539550752E+03  0.25769174016E+03  0.00000000000E+00 0. -1.
          1    1    1    2  502    0  0.64494883635E+01 -0.35284374144E+02  0.16070083309E+04  0.16074085848E+04  0.00000000000E+00 0. -1.
         22    1    3    3    0    0 -0.55320211341E+02 -0.19945691396E+02  0.47118135588E+03  0.47483684200E+03  0.00000000000E+00 0. -1.
         22    1    3    3    0    0 -0.28515878311E+02  0.41180447282E+02  0.62640576632E+02  0.80204902562E+02  0.00000000000E+00 0. -1.
</event>
<event>
 7    1  0.6058736E-006  0.5097622E+02  0.7818608E-02  0.1440207E+00
          2   -1    0    0  502    0  0.00000000000E+00  0.00000000000E+00  0.96181233140E+03  0.96181233140E+03  0.00000000000E+00 0. -1.
          1   -1    0    0  501    0 -0.00000000000E+00 -0.00000000000E+00 -0.64142969248E+03  0.64142969248E+03  0.00000000000E+00 0. -1.
         25    2    1    2    0    0  0.16614219838E+01  0.45222510577E+02 -0.21859761373E+03  0.25584692685E+03  0.12499958985E+03 0.  0.
          2    1    1    2  501    0 -0.47982886637E+02 -0.23941138018E+02 -0.40173580019E+03  0.40529888805E+03  0.00000000000E+00 0. -1.
          1    1    1    2  502    0  0.46321464653E+02 -0.21281372559E+02  0.94071605284E+03  0.94209620898E+03  0.00000000000E+00 0. -1.
         22    1    3    3    0    0  0.21828734685E+02 -0.36126016505E+02 -0.38188837174E+02  0.56920734457E+02  0.00000000000E+00 0. -1.
         22    1    3    3    0    0 -0.20167312701E+02  0.81348527081E+02 -0.18040877656E+03  0.19892619239E+03  0.00000000000E+00 0. -1.
</event>
<event>
 7    1  0.6058736E-006  0.8558813E+02  0.7818608E-02  0.1394771E+00
          2   -1    0    0  502    0  0.00000000000E+00  0.00000000000E+00  0.64164047837E+03  0.64164047837E+03  0.00000000000E+00 0. -1.
          1   -1    0    0  501    0 -0.00000000000E+00 -0.00000000000E+00 -0.21048406133E+03  0.21048406133E+03  0.00000000000E+00 0. -1.
         25    2    1    2    0    0  0.81750331066E+01 -0.11229836244E+03  0.45584913290E+03  0.48590211532E+03  0.12499872132E+03 0.  0.
          2    1    1    2  501    0  0.22597557368E+02  0.82122168770E+02 -0.18316156676E+03  0.20199717756E+03  0.00000000000E+00 0. -1.
          1    1    1    2  502    0 -0.30772590475E+02  0.30176193672E+02  0.15846885090E+03  0.16422524683E+03  0.00000000000E+00 0. -1.
         22    1    3    3    0    0 -0.25345759889E+02  0.19472744663E+02  0.98725728444E+02  0.10377073184E+03  0.00000000000E+00 0.  1.
         22    1    3    3    0    0  0.33520792996E+02 -0.13177110710E+03  0.35712340445E+03  0.38213138348E+03  0.00000000000E+00 0.  1.
</event>
<event>
 7    1  0.6058736E-006  0.1000898E+03  0.7818608E-02  0.1319960E+00
          2   -1    0    0  502    0  0.00000000000E+00  0.00000000000E+00  0.22463562455E+03  0.22463562455E+03  0.00000000000E+00 0. -1.
          1   -1    0    0  501    0 -0.00000000000E+00 -0.00000000000E+00 -0.83792393700E+03  0.83792393700E+03  0.00000000000E+00 0. -1.
         25    2    1    2    0    0  0.18662980852E+02 -0.79602686467E+02 -0.69177454272E+02  0.16460425903E+03  0.12499658941E+03 0.  0.
          2    1    1    2  501    0 -0.84744429815E+02  0.58682879469E+02 -0.71037859416E+03  0.71781825399E+03  0.00000000000E+00 0. -1.
          1    1    1    2  502    0  0.66081448963E+02  0.20919806999E+02  0.16626773598E+03  0.18013704852E+03  0.00000000000E+00 0. -1.
         22    1    3    3    0    0  0.23056713043E+02 -0.52233513754E+02 -0.10487394764E+03  0.11940894803E+03  0.00000000000E+00 0.  1.
         22    1    3    3    0    0 -0.43937321905E+01 -0.27369172713E+02  0.35696493372E+02  0.45195311002E+02  0.00000000000E+00 0.  1.
</event>
<event>
 7    1  0.6058736E-006  0.7632561E+02  0.7818608E-02  0.1476631E+00
          2   -1    0    0  502    0  0.00000000000E+00  0.00000000000E+00  0.28750138554E+03  0.28750138554E+03  0.00000000000E+00 0. -1.
          1   -1    0    0  501    0 -0.00000000000E+00 -0.00000000000E+00 -0.85916244384E+03  0.85916244384E+03  0.00000000000E+00 0. -1.
         25    2    1    2    0    0 -0.79458415615E+02 -0.19278735273E+02 -0.11900185116E+03  0.19097533132E+03  0.12499930859E+03 0.  0.
          2    1    1    2  501    0  0.64494087224E+02  0.40666318214E+02 -0.70142513387E+03  0.70555684048E+03  0.00000000000E+00 0. -1.
          1    1    1    2  502    0  0.14964328391E+02 -0.21387582941E+02  0.24876592672E+03  0.25013165758E+03  0.00000000000E+00 0. -1.
         22    1    3    3    0    0 -0.57287077921E+02 -0.71385123096E+02 -0.61502611670E+02  0.11027337094E+03  0.00000000000E+00 0.  1.
         22    1    3    3    0    0 -0.22171337694E+02  0.52106387823E+02 -0.57499239488E+02  0.80701960378E+02  0.00000000000E+00 0.  1.
</event>
<event>
 7    1  0.6058736E-006  0.8599341E+02  0.7818608E-02  0.1341451E+00
          2   -1    0    0  502    0  0.00000000000E+00  0.00000000000E+00  0.78480211673E+03  0.78480211673E+03  0.00000000000E+00 0. -1.
          1   -1    0    0  501    0 -0.00000000000E+00 -0.00000000000E+00 -0.72162869110E+02  0.72162869110E+02  0.00000000000E+00 0. -1.
         25    2    1    2    0    0  0.13703177860E+02  0.20433873656E+02  0.43299384980E+03  0.45134629193E+03  0.12499792400E+03 0.  0.
          2    1    1    2  501    0 -0.63314967221E+02 -0.65153191282E+02 -0.24605191637E+02  0.94122998592E+02  0.00000000000E+00 0. -1.
          1    1    1    2  502    0  0.49611789361E+02  0.44719317626E+02  0.30425058946E+03  0.31149569532E+03  0.00000000000E+00 0. -1.
         22    1    3    3    0    0  0.45931981557E+01  0.69716657563E+02  0.17317794357E+03  0.18674075600E+03  0.00000000000E+00 0.  1.
         22    1    3    3    0    0  0.91099797041E+01 -0.49282783907E+02  0.25981590623E+03  0.26460553594E+03  0.00000000000E+00 0.  1.
</event>
<event>
 7    1  0.6058736E-006  0.5104101E+02  0.7818608E-02  0.1442388E+00
          2   -1    0    0  502    0  0.00000000000E+00  0.00000000000E+00  0.82925658398E+03  0.82925658398E+03  0.00000000000E+00 0. -1.
          1   -1    0    0  501    0 -0.00000000000E+00 -0.00000000000E+00 -0.27433460215E+03  0.27433460215E+03  0.00000000000E+00 0. -1.
         25    2    1    2    0    0  0.12935124118E+02  0.91264705946E+02  0.28367684892E+03  0.32341122057E+03  0.12500279592E+03 0.  0.
          2    1    1    2  501    0 -0.26748971887E+02 -0.43140966779E+02 -0.25072617701E+03  0.25581295188E+03  0.00000000000E+00 0. -1.
          1    1    1    2  502    0  0.13813847768E+02 -0.48123739168E+02  0.52197130992E+03  0.52436701368E+03  0.00000000000E+00 0. -1.
         22    1    3    3    0    0 -0.20078431247E+02 -0.19005237257E+02  0.12107230648E+03  0.12418875087E+03  0.00000000000E+00 0.  1.
         22    1    3    3    0    0  0.33013555365E+02  0.11026994320E+03  0.16260454244E+03  0.19922246970E+03  0.00000000000E+00 0.  1.
</event>
<event>
 7    1  0.6058736E-006  0.4565633E+02  0.7818608E-02  0.1568325E+00
          2   -1    0    0  502    0  0.00000000000E+00  0.00000000000E+00  0.60132011073E+03  0.60132011073E+03  0.00000000000E+00 0. -1.
          1   -1    0    0  501    0 -0.00000000000E+00 -0.00000000000E+00 -0.64679800453E+03  0.64679800453E+03  0.00000000000E+00 0. -1.
         25    2    1    2    0    0  0.47566192352E+02 -0.35715899555E+02  0.66645498811E+02  0.15363779970E+03  0.12499913139E+03 0.  0.
          2    1    1    2  501    0 -0.24083163499E+02  0.38697310907E+02 -0.60215486321E+03  0.60387743783E+03  0.00000000000E+00 0. -1.
          1    1    1    2  502    0 -0.23483028853E+02 -0.29814113520E+01  0.49003147060E+03  0.49060287773E+03  0.00000000000E+00 0. -1.
         22    1    3    3    0    0 -0.10582613925E+02 -0.29613961201E+02  0.86382030952E+02  0.91928416102E+02  0.00000000000E+00 0. -1.
         22    1    3    3    0    0  0.58148806278E+02 -0.61019383542E+01 -0.19736532141E+02  0.61709383599E+02  0.00000000000E+00 0. -1.
</event>
<event>
 7    1  0.6058736E-006  0.6016834E+02  0.7818608E-02  0.1489788E+00
          2   -1    0    0  502    0  0.00000000000E+00  0.00000000000E+00  0.11067379220E+04  0.11067379220E+04  0.00000000000E+00 0. -1.
          1   -1    0    0  501    0 -0.00000000000E+00 -0.00000000000E+00 -0.34773865448E+03  0.34773865448E+03  0.00000000000E+00 0. -1.
         25    2    1    2    0    0  0.88024572891E-01  0.30213252972E+02  0.49852998999E+03  0.51484990871E+03  0.12500171668E+03 0.  0.
          2    1    1    2  501    0  0.27759918064E+01 -0.60263208416E+02 -0.33651502057E+03  0.34187968569E+03  0.00000000000E+00 0. -1.
          1    1    1    2  502    0 -0.28640163793E+01  0.30049955444E+02  0.59698429814E+03  0.59774698212E+03  0.00000000000E+00 0. -1.
         22    1    3    3    0    0 -0.17318294696E+02 -0.40509375952E+02  0.93954062054E+02  0.10377041316E+03  0.00000000000E+00 0. -1.
         22    1    3    3    0    0  0.17406319269E+02  0.70722628924E+02  0.40457592794E+03  0.41107949554E+03  0.00000000000E+00 0. -1.
</event>
<event>
 7    1  0.6058736E-006  0.5058604E+02  0.7818608E-02  0.1493654E+00
          2   -1    0    0  502    0  0.00000000000E+00  0.00000000000E+00  0.11749746496E+04  0.11749746496E+04  0.00000000000E+00 0. -1.
          1   -1    0    0  501    0 -0.00000000000E+00 -0.00000000000E+00 -0.14774441401E+03  0.14774441401E+03  0.00000000000E+00 0. -1.
         25    2    1    2    0    0 -0.13592309697E+02  0.14980870417E+02  0.16803435094E+03  0.21040398883E+03  0.12500047224E+03 0.  0.
          2    1    1    2  501    0 -0.34829021501E+02  0.29345360135E+01 -0.12345567367E+03  0.12830812757E+03  0.00000000000E+00 0. -1.
          1    1    1    2  502    0  0.48421331197E+02 -0.17915406430E+02  0.98265155830E+03  0.98400694720E+03  0.00000000000E+00 0. -1.
         22    1    3    3    0    0  0.12940492116E+02  0.32433332328E+02 -0.42859825648E+01  0.35181629136E+02  0.00000000000E+00 0.  1.
         22    1    3    3    0    0 -0.26532801813E+02 -0.17452461911E+02  0.17232033350E+03  0.17522235969E+03  0.00000000000E+00 0.  1.
</event>
<event>
 7    1  0.6058736E-006  0.8769908E+02  0.7818608E-02  0.1331505E+00
          2   -1    0    0  502    0  0.00000000000E+00  0.00000000000E+00  0.21989856682E+04  0.21989856682E+04  0.00000000000E+00 0. -1.
          1   -1    0    0  501    0 -0.00000000000E+00 -0.00000000000E+00 -0.17447364445E+03  0.17447364445E+03  0.00000000000E+00 0. -1.
         25    2    1    2    0    0  0.58565324145E+02 -0.95821760754E+02  0.97291364371E+02  0.19417078345E+03  0.12499990616E+03 0.  0.
          2    1    1    2  501    0 -0.82709843138E+02  0.28607674419E+02 -0.11013946370E+03  0.14067700114E+03  0.00000000000E+00 0. -1.
          1    1    1    2  502    0  0.24144518993E+02  0.67214086335E+02  0.20373601231E+04  0.20386115280E+04  0.00000000000E+00 0. -1.
         22    1    3    3    0    0  0.73223534199E+02 -0.11945910430E+03  0.78528280510E+02  0.16062021791E+03  0.00000000000E+00 0. -1.
         22    1    3    3    0    0 -0.14658210054E+02  0.23637343551E+02  0.18763083861E+02  0.33550565541E+02  0.00000000000E+00 0. -1.
</event>
<event>
 7    1  0.6058736E-006  0.1452202E+03  0.7818608E-02  0.1231981E+00
          2   -1    0    0  502    0  0.00000000000E+00  0.00000000000E+00  0.69541732381E+03  0.69541732381E+03  0.00000000000E+00 0. -1.
          1   -1    0    0  501    0 -0.00000000000E+00 -0.00000000000E+00 -0.12380933456E+04  0.12380933456E+04  0.00000000000E+00 0. -1.
         25    2    1    2    0    0 -0.25295636159E+02 -0.14436036338E+03  0.20502556267E+02  0.19371366007E+03  0.12499937424E+03 0.  0.
          2    1    1    2  501    0 -0.83291655749E+02  0.12105247165E+03 -0.11414947283E+04  0.11509132963E+04  0.00000000000E+00 0. -1.
          1    1    1    2  502    0  0.10858729191E+03  0.23307891732E+02  0.57831615028E+03  0.58888371302E+03  0.00000000000E+00 0. -1.
         22    1    3    3    0    0 -0.15717931192E+02 -0.41871308581E+00 -0.35608487638E+02  0.38925481031E+02  0.00000000000E+00 0.  1.
         22    1    3    3    0    0 -0.95777049671E+01 -0.14394165029E+03  0.56111043905E+02  0.15478817904E+03  0.00000000000E+00 0.  1.
</event>
<event>
 7    1  0.6058736E-006  0.1168360E+03  0.7818608E-02  0.1314760E+00
          2   -1    0    0  502    0  0.00000000000E+00  0.00000000000E+00  0.76120952592E+02  0.76120952592E+02  0.00000000000E+00 0. -1.
          1   -1    0    0  501    0 -0.00000000000E+00 -0.00000000000E+00 -0.17122375639E+04  0.17122375639E+04  0.00000000000E+00 0. -1.
         25    2    1    2    0    0 -0.90302314424E+02  0.81459242381E+02 -0.43927830741E+03  0.47263146859E+03  0.12499983033E+03 0.  0.
          2    1    1    2  501    0 -0.25215173856E+02 -0.56875693619E+02 -0.11960026592E+04  0.11976197269E+04  0.00000000000E+00 0. -1.
          1    1    1    2  502    0  0.11551748828E+03 -0.24583548762E+02 -0.83564471109E+00  0.11810732099E+03  0.00000000000E+00 0. -1.
         22    1    3    3    0    0 -0.14651625634E+02  0.72419716502E+02 -0.33751296989E+03  0.34550584701E+03  0.00000000000E+00 0. -1.
         22    1    3    3    0    0 -0.75650688790E+02  0.90395258782E+01 -0.10176533752E+03  0.12712562158E+03  0.00000000000E+00 0. -1.
</event>
<event>
 7    1  0.6058736E-006  0.1988705E+03  0.7818608E-02  0.1274724E+00
          2   -1    0    0  502    0  0.00000000000E+00  0.00000000000E+00  0.62614340814E+03  0.62614340814E+03  0.00000000000E+00 0. -1.
          1   -1    0    0  501    0 -0.00000000000E+00 -0.00000000000E+00 -0.67506945201E+03  0.67506945201E+03  0.00000000000E+00 0. -1.
         25    2    1    2    0    0  0.13395492303E+03 -0.16008179427E+03  0.22446204193E+03  0.33102657468E+03  0.12500113047E+03 0.  0.
          2    1    1    2  501    0 -0.16197037904E+03  0.11505250273E+03 -0.60374802592E+03  0.63559669671E+03  0.00000000000E+00 0. -1.
          1    1    1    2  502    0  0.28015456008E+02  0.45029291531E+02  0.33035994012E+03  0.33458958876E+03  0.00000000000E+00 0. -1.
         22    1    3    3    0    0  0.12638952283E+03 -0.65642770487E+02  0.16990180800E+03  0.22169778790E+03  0.00000000000E+00 0. -1.
         22    1    3    3    0    0  0.75654002053E+01 -0.94439023779E+02  0.54560233926E+02  0.10932878678E+03  0.00000000000E+00 0. -1.
</event>
<event>
 7    1  0.6058736E-006  0.5944934E+02  0.7818608E-02  0.1425868E+00
          2   -1    0    0  502    0  0.00000000000E+00  0.00000000000E+00  0.15101573099E+03  0.15101573099E+03  0.00000000000E+00 0. -1.
          1   -1    0    0  501    0 -0.00000000000E+00 -0.00000000000E+00 -0.13668350118E+04  0.13668350118E+04  0.00000000000E+00 0. -1.
         25    2    1    2    0    0  0.67480553715E+02  0.79546482534E+02 -0.13622356711E+03  0.21227892445E+03  0.12499685403E+03 0.  0.
          2    1    1    2  501    0 -0.46634845744E+02 -0.35550162598E+02 -0.11865815000E+04  0.11880295784E+04  0.00000000000E+00 0. -1.
          1    1    1    2  502    0 -0.20845707971E+02 -0.43996319935E+02  0.10698578631E+03  0.11754223998E+03  0.00000000000E+00 0. -1.
         22    1    3    3    0    0  0.20311066499E+02 -0.19324712445E+02 -0.88416621047E+02  0.92754961112E+02  0.00000000000E+00 0. -1.
         22    1    3    3    0    0  0.47169487216E+02  0.98871194979E+02 -0.47806946059E+02  0.11952396334E+03  0.00000000000E+00 0. -1.
</event>
<event>
 7    1  0.6058736E-006  0.1055402E+03  0.7818608E-02  0.1326911E+00
          2   -1    0    0  502    0  0.00000000000E+00  0.00000000000E+00  0.16161964812E+04  0.16161964812E+04  0.00000000000E+00 0. -1.
          1   -1    0    0  501    0 -0.00000000000E+00 -0.00000000000E+00 -0.16753197340E+03  0.16753197340E+03  0.00000000000E+00 0. -1.
         25    2    1    2    0    0 -0.37455337538E+02  0.15706856853E+03  0.15547841133E+03  0.25665602628E+03  0.12500136761E+03 0.  0.
          2    1    1    2  501    0  0.21032033445E+02 -0.97494541782E+02 -0.94864217363E+02  0.13764720064E+03  0.00000000000E+00 0. -1.
          1    1    1    2  502    0  0.16423304093E+02 -0.59574026749E+02  0.13880503139E+04  0.13894252277E+04  0.00000000000E+00 0. -1.
         22    1    3    3    0    0  0.44114054295E+01  0.13419735933E+03  0.54374472199E+02  0.14486191693E+03  0.00000000000E+00 0.  1.
         22    1    3    3    0    0 -0.41866742968E+02  0.22871209197E+02  0.10110393913E+03  0.11179410935E+03  0.00000000000E+00 0.  1.
</event>
<event>
 7    1  0.6058736E-006  0.7625397E+02  0.7818608E-02  0.1464482E+00
          2   -1    0    0  502    0  0.00000000000E+00  0.00000000000E+00  0.53592853175E+03  0.53592853175E+03  0.00000000000E+00 0. -1.
          1   -1    0    0  501    0 -0.00000000000E+00 -0.00000000000E+00 -0.85900183948E+03  0.85900183948E+03  0.00000000000E+00 0. -1.
         25    2    1    2    0    0 -0.67286958623E+02 -0.78454694197E+02  0.16555432872E+02  0.16303519545E+03  0.12499487491E+03 0.  0.
          2    1    1    2  501    0  0.16099960789E+02  0.23517914471E+02 -0.78234117270E+03  0.78286014814E+03  0.00000000000E+00 0. -1.
          1    1    1    2  502    0  0.51186997834E+02  0.54936779726E+02  0.44271243210E+03  0.44903502764E+03  0.00000000000E+00 0. -1.
         22    1    3    3    0    0 -0.10655089437E+02  0.24921252948E+02  0.34427597117E+02  0.43816198176E+02  0.00000000000E+00 0.  1.
         22    1    3    3    0    0 -0.56631869185E+02 -0.10337594714E+03 -0.17872164244E+02  0.11921899727E+03  0.00000000000E+00 0.  1.
</event>
<event>
 7    1  0.6058736E-006  0.1091511E+03  0.7818608E-02  0.1326818E+00
          2   -1    0    0  502    0  0.00000000000E+00  0.00000000000E+00  0.89877968591E+03  0.89877968591E+03  0.00000000000E+00 0. -1.
          1   -1    0    0  501    0 -0.00000000000E+00 -0.00000000000E+00 -0.51261121627E+03  0.51261121627E+03  0.00000000000E+00 0. -1.
         25    2    1    2    0    0  0.70536330449E+02  0.30746259494E+02 -0.16954102609E+03  0.22425557085E+03  0.12500278055E+03 0.  0.
          2    1    1    2  501    0 -0.90549773548E+02 -0.87099139330E+02 -0.30213072336E+03  0.32721322644E+03  0.00000000000E+00 0. -1.
          1    1    1    2  502    0  0.20013443099E+02  0.56352879836E+02  0.85784021910E+03  0.85992210488E+03  0.00000000000E+00 0. -1.
         22    1    3    3    0    0  0.88370580690E+02  0.27700167000E+02 -0.53788136988E+02  0.10709725703E+03  0.00000000000E+00 0.  1.
         22    1    3    3    0    0 -0.17834250242E+02  0.30460924945E+01 -0.11575288910E+03  0.11715831382E+03  0.00000000000E+00 0.  1.
</event>
<event>
 7    1  0.6058736E-006  0.1082934E+03  0.7818608E-02  0.1265244E+00
          2   -1    0    0  502    0  0.00000000000E+00  0.00000000000E+00  0.18921606886E+04  0.18921606886E+04  0.00000000000E+00 0. -1.
          1   -1    0    0  501    0 -0.00000000000E+00 -0.00000000000E+00 -0.38847567134E+03  0.38847567134E+03  0.00000000000E+00 0. -1.
         25    2    1    2    0    0  0.59520554757E+02  0.10010737783E+03 -0.36398317963E+02  0.17468598138E+03  0.12500468394E+03 0.  0.
          2    1    1    2  501    0 -0.10672331753E+03 -0.18987998698E+01 -0.27117034947E+03  0.29142208286E+03  0.00000000000E+00 0. -1.
          1    1    1    2  502    0  0.47202762773E+02 -0.98208577956E+02  0.18112536847E+04  0.18145282957E+04  0.00000000000E+00 0. -1.
         22    1    3    3    0    0  0.12788168154E+02  0.45876236069E+02 -0.78365982109E+02  0.91702744956E+02  0.00000000000E+00 0. -1.
         22    1    3    3    0    0  0.46732386603E+02  0.54231141757E+02  0.41967664146E+02  0.82983236426E+02  0.00000000000E+00 0. -1.
</event>
<event>
 7    1  0.6058736E-006  0.9790738E+02  0.7818608E-02  0.1431454E+00
          2   -1    0    0  502    0  0.00000000000E+00  0.00000000000E+00  0.11740027933E+04  0.11740027933E+04  0.00000000000E+00 0. -1.
          1   -1    0    0  501    0 -0.00000000000E+00 -0.00000000000E+00 -0.24183103102E+03  0.24183103102E+03  0.00000000000E+00 0. -1.
         25    2    1    2    0    0  0.25580283873E+02 -0.80305444893E+02 -0.10934525795E+03  0.18623803457E+03  0.12499961873E+03 0.  0.
          2    1    1    2  501    0 -0.22061059998E+02 -0.17778906735E+02 -0.89731053875E+02  0.94098044201E+02  0.00000000000E+00 0. -1.
          1    1    1    2  502    0 -0.35192238753E+01  0.98084351627E+02  0.11312480741E+04  0.11354977456E+04  0.00000000000E+00 0. -1.
         22    1    3    3    0    0 -0.37598374101E+02 -0.78821332674E+02 -0.68522035458E+02  0.11100319618E+03  0.00000000000E+00 0. -1.
         22    1    3    3    0    0  0.63178657974E+02 -0.14841122182E+01 -0.40823222495E+02  0.75234838389E+02  0.00000000000E+00 0. -1.
</event>
<event>
 7    1  0.6058736E-006  0.9004597E+02  0.7818608E-02  0.1322493E+00
          2   -1    0    0  502    0  0.00000000000E+00  0.00000000000E+00  0.35353232625E+02  0.35353232625E+02  0.00000000000E+00 0. -1.
          1   -1    0    0  501    0 -0.00000000000E+00 -0.00000000000E+00 -0.11082270846E+04  0.11082270846E+04  0.00000000000E+00 0. -1.
         25    2    1    2    0    0 -0.90347933535E+01 -0.28720731783E+02 -0.44853760442E+03  0.46659821378E+03  0.12498560959E+03 0.  0.
          2    1    1    2  501    0 -0.23811241769E+02 -0.71461750594E+02 -0.53056380175E+03  0.53588404041E+03  0.00000000000E+00 0. -1.
          1    1    1    2  502    0  0.32846035123E+02  0.10018248238E+03 -0.93772445793E+02  0.14109806302E+03  0.00000000000E+00 0. -1.
         22    1    3    3    0    0  0.48492107982E+02 -0.43608778462E+02 -0.29119699276E+03  0.29841062093E+03  0.00000000000E+00 0.  1.
         22    1    3    3    0    0 -0.57526901335E+02  0.14888046679E+02 -0.15734061166E+03  0.16818759285E+03  0.00000000000E+00 0.  1.
</event>
<event>
 7    1  0.6058736E-006  0.1027284E+03  0.7818608E-02  0.1352250E+00
          2   -1    0    0  502    0  0.00000000000E+00  0.00000000000E+00  0.40939999399E+03  0.40939999399E+03  0.00000000000E+00 0. -1.
          1   -1    0    0  501    0 -0.00000000000E+00 -0.00000000000E+00 -0.10751477337E+04  0.10751477337E+04  0.00000000000E+00 0. -1.
         25    2    1    2    0    0 -0.40607875334E+02  0.50662333321E+02 -0.49541482563E+02  0.14931626593E+03  0.12500126887E+03 0.  0.
          2    1    1    2  501    0  0.91565853865E+02 -0.51662972214E+02 -0.97106066969E+03  0.97673547724E+03  0.00000000000E+00 0. -1.
          1    1    1    2  502    0 -0.50957978531E+02  0.10006388932E+01  0.35485441252E+03  0.35849598455E+03  0.00000000000E+00 0. -1.
         22    1    3    3    0    0 -0.69316927431E+02  0.54883595206E+02  0.39052887504E+01  0.88500264019E+02  0.00000000000E+00 0. -1.
         22    1    3    3    0    0  0.28709052096E+02 -0.42212618848E+01 -0.53446771314E+02  0.60816001907E+02  0.00000000000E+00 0. -1.
</event>
<event>
 7    1  0.6058736E-006  0.4226854E+02  0.7818608E-02  0.1550005E+00
          2   -1    0    0  502    0  0.00000000000E+00  0.00000000000E+00  0.34342234406E+03  0.34342234406E+03  0.00000000000E+00 0. -1.
          1   -1    0    0  501    0 -0.00000000000E+00 -0.00000000000E+00 -0.12425211597E+03  0.12425211597E+03  0.00000000000E+00 0. -1.
         25    2    1    2    0    0 -0.89607025186E+01  0.42874523683E+02  0.58166297447E+02  0.14466220964E+03  0.12500127107E+03 0.  0.
          2    1    1    2  501    0  0.28298668788E+02 -0.49069973178E+01 -0.76501446360E+02  0.81715142863E+02  0.00000000000E+00 0. -1.
          1    1    1    2  502    0 -0.19337966270E+02 -0.37967526365E+02  0.23750537700E+03  0.24129710753E+03  0.00000000000E+00 0. -1.
         22    1    3    3    0    0  0.51937092739E+02  0.39658601052E+02  0.51723456562E+02  0.83340159577E+02  0.00000000000E+00 0. -1.
         22    1    3    3    0    0 -0.60897795258E+02  0.32159226308E+01  0.64428408854E+01  0.61322050066E+02  0.00000000000E+00 0. -1.
</event>
<event>
 7    1  0.6058736E-006  0.9884891E+02  0.7818608E-02  0.1309367E+00
          2   -1    0    0  502    0  0.00000000000E+00  0.00000000000E+00  0.92813557754E+03  0.92813557754E+03  0.00000000000E+00 0. -1.
          1   -1    0    0  501    0 -0.00000000000E+00 -0.00000000000E+00 -0.95829222303E+02  0.95829222303E+02  0.00000000000E+00 0. -1.
         25    2    1    2    0    0  0.92490067110E+02 -0.10535424551E+02  0.57888137110E+02  0.16625831435E+03  0.12500153194E+03 0.  0.
          2    1    1    2  501    0 -0.93145591021E+02 -0.66672653539E+02  0.43201011383E+02  0.12242414485E+03  0.00000000000E+00 0. -1.
          1    1    1    2  502    0  0.65552391069E+00  0.77208078091E+02  0.73121720675E+03  0.73528234065E+03  0.00000000000E+00 0. -1.
         22    1    3    3    0    0  0.11012422585E+03 -0.13074208923E+02  0.56229954234E+01  0.11104007446E+03  0.00000000000E+00 0.  1.
         22    1    3    3    0    0 -0.17634158742E+02  0.25387843717E+01  0.52265141687E+02  0.55218239886E+02  0.00000000000E+00 0.  1.
</event>
<event>
 7    1  0.6058736E-006  0.9208080E+02  0.7818608E-02  0.1299111E+00
          2   -1    0    0  502    0  0.00000000000E+00  0.00000000000E+00  0.72740192049E+03  0.72740192049E+03  0.00000000000E+00 0. -1.
          1   -1    0    0  501    0 -0.00000000000E+00 -0.00000000000E+00 -0.26906501984E+03  0.26906501984E+03  0.00000000000E+00 0. -1.
         25    2    1    2    0    0 -0.30984943762E+02 -0.46594000903E+02  0.26689316751E+03  0.29997550985E+03  0.12498910347E+03 0.  0.
          2    1    1    2  501    0 -0.54935406028E+02  0.76714696737E+02 -0.23877600512E+03  0.25674310926E+03  0.00000000000E+00 0. -1.
          1    1    1    2  502    0  0.85920349790E+02 -0.30120695834E+02  0.43021973826E+03  0.43974832122E+03  0.00000000000E+00 0. -1.
         22    1    3    3    0    0 -0.36147025237E+02 -0.74671411670E+02  0.96723711133E+02  0.12742803243E+03  0.00000000000E+00 0.  1.
         22    1    3    3    0    0  0.51620814742E+01  0.28077410766E+02  0.17016945637E+03  0.17254747742E+03  0.00000000000E+00 0.  1.
</event>
<event>
 7    1  0.6058736E-006  0.6081207E+02  0.7818608E-02  0.1404084E+00
          2   -1    0    0  502    0  0.00000000000E+00  0.00000000000E+00  0.56209117116E+03  0.56209117116E+03  0.00000000000E+00 0. -1.
          1   -1    0    0  501    0 -0.00000000000E+00 -0.00000000000E+00 -0.96235925413E+02  0.96235925413E+02  0.00000000000E+00 0. -1.
         25    2    1    2    0    0 -0.33713138024E+02 -0.81141956495E+02  0.23651804693E+02  0.15460566066E+03  0.12499163838E+03 0.  0.
          2    1    1    2  501    0  0.49675122767E+02  0.27106826797E+02 -0.13479378250E+01  0.56605784309E+02  0.00000000000E+00 0. -1.
          1    1    1    2  502    0 -0.15961984743E+02  0.54035129698E+02  0.44355137888E+03  0.44711565160E+03  0.00000000000E+00 0. -1.
         22    1    3    3    0    0 -0.55389906971E+01 -0.34491394148E+02 -0.51220743049E+02  0.61999203275E+02  0.00000000000E+00 0.  1.
         22    1    3    3    0    0 -0.28174147327E+02 -0.46650562348E+02  0.74872547742E+02  0.92606457390E+02  0.00000000000E+00 0.  1.
</event>
<event>
 7    1  0.6058736E-006  0.2821244E+02  0.7818608E-02  0.1646338E+00
          2   -1    0    0  502    0  0.00000000000E+00  0.00000000000E+00  0.13525856114E+04  0.13525856114E+04  0.00000000000E+00 0. -1.
          1   -1    0    0  501    0 -0.00000000000E+00 -0.00000000000E+00 -0.48512263424E+03  0.48512263424E+03  0.00000000000E+00 0. -1.
         25    2    1    2    0    0  0.35508920166E+02 -0.16226658133E+02  0.40019256365E+02  0.13693486122E+03  0.12500170996E+03 0.  0.
          2    1    1    2  501    0 -0.22408861136E+02 -0.87501065358E+01 -0.43617602618E+03  0.43683892596E+03  0.00000000000E+00 0. -1.
          1    1    1    2  502    0 -0.13100059030E+02  0.24976764669E+02  0.12636197470E+04  0.12639344584E+04  0.00000000000E+00 0. -1.
         22    1    3    3    0    0  0.45705483846E+02 -0.60111349580E+02  0.50287367131E+02  0.90725877757E+02  0.00000000000E+00 0. -1.
         22    1    3    3    0    0 -0.10196563680E+02  0.43884691447E+02 -0.10268110766E+02  0.46208983466E+02  0.00000000000E+00 0. -1.
</event>
<event>
 7    1  0.6058736E-006  0.7361581E+02  0.7818608E-02  0.1432386E+00
          2   -1    0    0  502    0  0.00000000000E+00  0.00000000000E+00  0.24834957300E+02  0.24834957300E+02  0.00000000000E+00 0. -1.
          1   -1    0    0  501    0 -0.00000000000E+00 -0.00000000000E+00 -0.14823028069E+04  0.14823028069E+04  0.00000000000E+00 0. -1.
         25    2    1    2    0    0  0.19717750531E+02  0.66670696448E+02 -0.63235620329E+03  0.64833086371E+03  0.12499907816E+03 0.  0.
          2    1    1    2  501    0  0.34505920273E+02 -0.14472657353E+02 -0.75505911046E+03  0.75598569869E+03  0.00000000000E+00 0. -1.
          1    1    1    2  502    0 -0.54223670804E+02 -0.52198039095E+02 -0.70052535860E+02  0.10282120181E+03  0.00000000000E+00 0. -1.
         22    1    3    3    0    0  0.28151358720E+02 -0.29823672974E+02 -0.11774080860E+03  0.12467898169E+03  0.00000000000E+00 0. -1.
         22    1    3    3    0    0 -0.84336081887E+01  0.96494369422E+02 -0.51461539470E+03  0.52365188202E+03  0.00000000000E+00 0. -1.
</event>
<event>
 7    1  0.6058736E-006  0.2536449E+03  0.7818608E-02  0.1221565E+00
          2   -1    0    0  502    0  0.00000000000E+00  0.00000000000E+00  0.15435322471E+04  0.15435322471E+04  0.00000000000E+00 0. -1.
          1   -1    0    0  501    0 -0.00000000000E+00 -0.00000000000E+00 -0.62872793338E+03  0.62872793338E+03  0.00000000000E+00 0. -1.
         25    2    1    2    0    0 -0.17599141135E+03  0.21479582324E+03 -0.28458311429E+03  0.41680074366E+03  0.12500035370E+03 0.  0.
          2    1    1    2  501    0 -0.28116606094E+02 -0.65028064551E+02 -0.26245957847E+03  0.27185331163E+03  0.00000000000E+00 0. -1.
          1    1    1    2  502    0  0.20410801744E+03 -0.14976775869E+03  0.14618470065E+04  0.14836061252E+04  0.00000000000E+00 0. -1.
         22    1    3    3    0    0 -0.12721229513E+03  0.19078703651E+03 -0.28046839276E+03  0.36227776729E+03  0.00000000000E+00 0.  1.
         22    1    3    3    0    0 -0.48779116217E+02  0.24008786733E+02 -0.41147215296E+01  0.54522976373E+02  0.00000000000E+00 0.  1.
</event>
<event>
 7    1  0.6058736E-006  0.8224258E+02  0.7818608E-02  0.1331077E+00
          2   -1    0    0  502    0  0.00000000000E+00  0.00000000000E+00  0.20685840319E+03  0.20685840319E+03  0.00000000000E+00 0. -1.
          1   -1    0    0  501    0 -0.00000000000E+00 -0.00000000000E+00 -0.83102806706E+03  0.83102806706E+03  0.00000000000E+00 0. -1.
         25    2    1    2    0    0  0.55201110549E+02 -0.72644787227E+01 -0.20810994516E+03  0.24906741216E+03  0.12499956509E+03 0.  0.
          2    1    1    2  501    0 -0.61431460752E+01  0.76197241255E+02 -0.59024393156E+03  0.59517363564E+03  0.00000000000E+00 0. -1.
          1    1    1    2  502    0 -0.49057964473E+02 -0.68932762532E+02  0.17418421284E+03  0.19364542244E+03  0.00000000000E+00 0. -1.
         22    1    3    3    0    0  0.91207362230E+02 -0.27309476714E+02 -0.15395593792E+03  0.18101663256E+03  0.00000000000E+00 0.  1.
         22    1    3    3    0    0 -0.36006251681E+02  0.20044997992E+02 -0.54154007242E+02  0.68050779606E+02  0.00000000000E+00 0.  1.
</event>
<event>
 7    1  0.6058736E-006  0.1111913E+03  0.7818608E-02  0.1356326E+00
          2   -1    0    0  502    0  0.00000000000E+00  0.00000000000E+00  0.25031502216E+03  0.25031502216E+03  0.00000000000E+00 0. -1.
          1   -1    0    0  501    0 -0.00000000000E+00 -0.00000000000E+00 -0.12061312381E+04  0.12061312381E+04  0.00000000000E+00 0. -1.
         25    2    1    2    0    0  0.13054650310E+03 -0.25789836390E+02 -0.19234290358E+03  0.26519169867E+03  0.12499335724E+03 0.  0.
          2    1    1    2  501    0 -0.10894307361E+03 -0.14242446827E+02 -0.97181425850E+03  0.97800531369E+03  0.00000000000E+00 0. -1.
          1    1    1    2  502    0 -0.21603429490E+02  0.40032283217E+02  0.20834094617E+03  0.21324924787E+03  0.00000000000E+00 0. -1.
         22    1    3    3    0    0  0.10547570330E+03  0.34586815387E+02 -0.15254156976E+03  0.18865392201E+03  0.00000000000E+00 0. -1.
         22    1    3    3    0    0  0.25070799804E+02 -0.60376651777E+02 -0.39801333816E+02  0.76537776661E+02  0.00000000000E+00 0. -1.
</event>
<event>
 7    1  0.6058736E-006  0.5951566E+02  0.7818608E-02  0.1433144E+00
          2   -1    0    0  502    0  0.00000000000E+00  0.00000000000E+00  0.35537086928E+04  0.35537086928E+04  0.00000000000E+00 0. -1.
          1   -1    0    0  501    0 -0.00000000000E+00 -0.00000000000E+00 -0.38586707733E+03  0.38586707733E+03  0.00000000000E+00 0. -1.
         25    2    1    2    0    0  0.10153467735E+02 -0.93108254937E+01  0.37934262080E+03  0.39964591810E+03  0.12500500598E+03 0.  0.
          2    1    1    2  501    0 -0.44255490093E+02  0.40210863242E+02 -0.37316781836E+03  0.37792814474E+03  0.00000000000E+00 0. -1.
          1    1    1    2  502    0  0.34102022358E+02 -0.30900037748E+02  0.31616668131E+04  0.31620017073E+04  0.00000000000E+00 0. -1.
         22    1    3    3    0    0 -0.13556136853E+02  0.46233826394E+02  0.73406206877E+02  0.87805505280E+02  0.00000000000E+00 0.  1.
         22    1    3    3    0    0  0.23709604587E+02 -0.55544651888E+02  0.30593641392E+03  0.31184041282E+03  0.00000000000E+00 0.  1.
</event>
<event>
 7    1  0.6058736E-006  0.4387126E+02  0.7818608E-02  0.1502962E+00
          2   -1    0    0  502    0  0.00000000000E+00  0.00000000000E+00  0.24085354234E+04  0.24085354234E+04  0.00000000000E+00 0. -1.
          1   -1    0    0  501    0 -0.00000000000E+00 -0.00000000000E+00 -0.23088678276E+04  0.23088678276E+04  0.00000000000E+00 0. -1.
         25    2    1    2    0    0 -0.54516215211E+02 -0.12325445537E+02  0.26649219210E+03  0.29961140930E+03  0.12499989520E+03 0.  0.
          2    1    1    2  501    0  0.16374414343E+02  0.34068708489E+02 -0.22919256407E+04  0.22922373221E+04  0.00000000000E+00 0. -1.
          1    1    1    2  502    0  0.38141800867E+02 -0.21743262952E+02  0.21251010444E+04  0.21255545195E+04  0.00000000000E+00 0. -1.
         22    1    3    3    0    0 -0.28659719010E+02  0.24427822038E+02  0.24828689505E+03  0.25112642281E+03  0.00000000000E+00 0.  1.
         22    1    3    3    0    0 -0.25856496200E+02 -0.36753267575E+02  0.18205297056E+02  0.48484986481E+02  0.00000000000E+00 0.  1.
</event>
<event>
 7    1  0.6058736E-006  0.6102095E+02  0.7818608E-02  0.1514347E+00
          2   -1    0    0  502    0  0.00000000000E+00  0.00000000000E+00  0.14728716393E+03  0.14728716393E+03  0.00000000000E+00 0. -1.
          1   -1    0    0  501    0 -0.00000000000E+00 -0.00000000000E+00 -0.30466025730E+03  0.30466025730E+03  0.00000000000E+00 0. -1.
         25    2    1    2    0    0  0.38880399327E+02  0.20065766325E+02 -0.10675523630E+03  0.17010435858E+03  0.12499796758E+03 0.  0.
          2    1    1    2  501    0 -0.63253494891E+02 -0.13845751608E+02 -0.15842159994E+03  0.17114354438E+03  0.00000000000E+00 0. -1.
          1    1    1    2  502    0  0.24373095564E+02 -0.62200147177E+01  0.10780374287E+03  0.11069951828E+03  0.00000000000E+00 0. -1.
         22    1    3    3    0    0  0.55558209525E+01  0.34015023176E+02 -0.12497727958E+03  0.12964262169E+03  0.00000000000E+00 0.  1.
         22    1    3    3    0    0  0.33324578374E+02 -0.13949256851E+02  0.18222043280E+02  0.40461736886E+02  0.00000000000E+00 0.  1.
</event>
<event>
 7    1  0.6058736E-006  0.1446448E+03  0.7818608E-02  0.1248372E+00
          2   -1    0    0  502    0  0.00000000000E+00  0.00000000000E+00  0.15526404150E+04  0.15526404150E+04  0.00000000000E+00 0. -1.
          1   -1    0    0  501    0 -0.00000000000E+00 -0.00000000000E+00 -0.22582298748E+03  0.22582298748E+03  0.00000000000E+00 0. -1.
         25    2    1    2    0    0  0.16574765556E+03  0.21187677696E+02  0.44024502211E+03  0.48719792981E+03  0.12499976122E+03 0.  0.
          2    1    1    2  501    0 -0.10840394332E+03 -0.96187068842E+02 -0.17402822569E+03  0.22647116920E+03  0.00000000000E+00 0. -1.
          1    1    1    2  502    0 -0.57343712235E+02  0.74999391146E+02  0.10606006311E+04  0.10647943034E+04  0.00000000000E+00 0. -1.
         22    1    3    3    0    0  0.37101812673E+02  0.29092198498E+02  0.26774513283E+03  0.27186459253E+03  0.00000000000E+00 0. -1.
         22    1    3    3    0    0  0.12864584289E+03 -0.79045208013E+01  0.17249988929E+03  0.21533333728E+03  0.00000000000E+00 0. -1.
</event>
<event>
 7    1  0.6058736E-006  0.8355434E+02  0.7818608E-02  0.1367599E+00
          2   -1    0    0  502    0  0.00000000000E+00  0.00000000000E+00  0.56243637934E+03  0.56243637934E+03  0.00000000000E+00 0. -1.
          1   -1    0    0  501    0 -0.00000000000E+00 -0.00000000000E+00 -0.14167975253E+03  0.14167975253E+03  0.00000000000E+00 0. -1.
         25    2    1    2    0    0 -0.10637693897E+03  0.57020538080E+02 -0.37784577915E+02  0.17781816577E+03  0.12499692333E+03 0.  0.
          2    1    1    2  501    0  0.56419110206E+02 -0.33825549899E+02  0.13449504255E+01  0.65795841160E+02  0.00000000000E+00 0. -1.
          1    1    1    2  502    0  0.49957828763E+02 -0.23194988181E+02  0.45719625430E+03  0.46050212494E+03  0.00000000000E+00 0. -1.
         22    1    3    3    0    0 -0.47613923834E+02  0.47187729201E+01  0.43524835221E+02  0.64682021009E+02  0.00000000000E+00 0. -1.
         22    1    3    3    0    0 -0.58763015134E+02  0.52301765160E+02 -0.81309413136E+02  0.11313614476E+03  0.00000000000E+00 0. -1.
</event>
<event>
 7    1  0.6058736E-006  0.7858779E+02  0.7818608E-02  0.1369875E+00
          2   -1    0    0  502    0  0.00000000000E+00  0.00000000000E+00  0.15012828405E+03  0.15012828405E+03  0.00000000000E+00 0. -1.
          1   -1    0    0  501    0 -0.00000000000E+00 -0.00000000000E+00 -0.36714298090E+03  0.36714298090E+03  0.00000000000E+00 0. -1.
         25    2    1    2    0    0  0.92616519296E+02  0.43694528532E+02 -0.16762843754E+03  0.23283447959E+03  0.12500228136E+03 0.  0.
          2    1    1    2  501    0 -0.15432243531E+02 -0.55354852203E+02 -0.14794290182E+03  0.15871173870E+03  0.00000000000E+00 0. -1.
          1    1    1    2  502    0 -0.77184275765E+02  0.11660323672E+02  0.98556642513E+02  0.12572504666E+03  0.00000000000E+00 0. -1.
         22    1    3    3    0    0 -0.13416221817E+02  0.35830978590E+02 -0.99381613930E+02  0.10649206178E+03  0.00000000000E+00 0.  1.
         22    1    3    3    0    0  0.10603274111E+03  0.78635499412E+01 -0.68246823607E+02  0.12634241781E+03  0.00000000000E+00 0.  1.
</event>
<event>
 7    1  0.6058736E-006  0.9102202E+02  0.7818608E-02  0.1469629E+00
          2   -1    0    0  502    0  0.00000000000E+00  0.00000000000E+00  0.63141484836E+03  0.63141484836E+03  0.00000000000E+00 0. -1.
          1   -1    0    0  501    0 -0.00000000000E+00 -0.00000000000E+00 -0.38557216532E+02  0.38557216532E+02  0.00000000000E+00 0. -1.
         25    2    1    2    0    0  0.69048233479E+01 -0.73104137801E+02  0.35135328111E+03  0.38008676637E+03  0.12499972110E+03 0.  0.
          2    1    1    2  501    0 -0.15239914552E+02  0.94550354145E+02  0.74585042344E+02  0.12138761471E+03  0.00000000000E+00 0. -1.
          1    1    1    2  502    0  0.83350912042E+01 -0.21446216344E+02  0.16691930837E+03  0.16849768381E+03  0.00000000000E+00 0. -1.
         22    1    3    3    0    0 -0.31244223041E+02 -0.60129637251E+02  0.76088683284E+02  0.10188848057E+03  0.00000000000E+00 0.  1.
         22    1    3    3    0    0  0.38149046389E+02 -0.12974500550E+02  0.27526459783E+03  0.27819828580E+03  0.00000000000E+00 0.  1.
</event>
<event>
 7    1  0.6058736E-006  0.9787171E+02  0.7818608E-02  0.1445950E+00
          2   -1    0    0  502    0  0.00000000000E+00  0.00000000000E+00  0.67482306608E+03  0.67482306608E+03  0.00000000000E+00 0. -1.
          1   -1    0    0  501    0 -0.00000000000E+00 -0.00000000000E+00 -0.52702003911E+02  0.52702003911E+02  0.00000000000E+00 0. -1.
         25    2    1    2    0    0  0.70079566379E+02  0.36122483810E+02  0.24081547990E+03  0.28254716999E+03  0.12499931379E+03 0.  0.
          2    1    1    2  501    0 -0.91399960005E+02 -0.49980866133E+02  0.55222614616E+02  0.11790494830E+03  0.00000000000E+00 0. -1.
          1    1    1    2  502    0  0.21320393626E+02  0.13858382323E+02  0.32608296766E+03  0.32707295171E+03  0.00000000000E+00 0. -1.
         22    1    3    3    0    0  0.10385346852E+03  0.26849877865E+02  0.14378717678E+03  0.17939122350E+03  0.00000000000E+00 0. -1.
         22    1    3    3    0    0 -0.33773902144E+02  0.92726059449E+01  0.97028303127E+02  0.10315594648E+03  0.00000000000E+00 0. -1.
</event>
<event>
 7    1  0.6058736E-006  0.5445635E+02  0.7818608E-02  0.1427882E+00
          2   -1    0    0  502    0  0.00000000000E+00  0.00000000000E+00  0.42254313831E+04  0.42254313831E+04  0.00000000000E+00 0. -1.
          1   -1    0    0  501    0 -0.00000000000E+00 -0.00000000000E+00 -0.12692132832E+03  0.12692132832E+03  0.00000000000E+00 0. -1.
         25    2    1    2    0    0  0.83831881136E+02  0.15654290314E+02  0.19824378694E+04  0.19882044837E+04  0.12499728649E+03 0.  0.
          2    1    1    2  501    0 -0.37299567492E+02 -0.39616747337E+02 -0.11774927746E+03  0.12971367216E+03  0.00000000000E+00 0. -1.
          1    1    1    2  502    0 -0.46532313644E+02  0.23962457024E+02  0.22338214629E+04  0.22344345556E+04  0.00000000000E+00 0. -1.
         22    1    3    3    0    0  0.85471916798E+02  0.55925734297E+02  0.16786274278E+04  0.16817321956E+04  0.00000000000E+00 0. -1.
         22    1    3    3    0    0 -0.16400356623E+01 -0.40271443984E+02  0.30381044164E+03  0.30647228809E+03  0.00000000000E+00 0. -1.
</event>
<event>
 7    1  0.6058736E-006  0.1015411E+03  0.7818608E-02  0.1289676E+00
          2   -1    0    0  502    0  0.00000000000E+00  0.00000000000E+00  0.10799348853E+03  0.10799348853E+03  0.00000000000E+00 0. -1.
          1   -1    0    0  501    0 -0.00000000000E+00 -0.00000000000E+00 -0.93599001969E+03  0.93599001969E+03  0.00000000000E+00 0. -1.
         25    2    1    2    0    0  0.68740108124E+02 -0.20243270047E+02 -0.20679847686E+03  0.25204263269E+03  0.12499954486E+03 0.  0.
          2    1    1    2  501    0 -0.31888624970E+02 -0.84307586220E+02 -0.66622140976E+03  0.67229132102E+03  0.00000000000E+00 0. -1.
          1    1    1    2  502    0 -0.36851483154E+02  0.10455085627E+03  0.45023355459E+02  0.11964955451E+03  0.00000000000E+00 0. -1.
         22    1    3    3    0    0  0.30862890786E+02 -0.72851490958E+02 -0.10815210756E+03  0.13400274673E+03  0.00000000000E+00 0.  1.
         22    1    3    3    0    0  0.37877217338E+02  0.52608220911E+02 -0.98646369308E+02  0.11803988596E+03  0.00000000000E+00 0.  1.
</event>
<event>
 7    1  0.6058736E-006  0.5134626E+02  0.7818608E-02  0.1479539E+00
          2   -1    0    0  502    0  0.00000000000E+00  0.00000000000E+00  0.25419557086E+03  0.25419557086E+03  0.00000000000E+00 0. -1.
          1   -1    0    0  501    0 -0.00000000000E+00 -0.00000000000E+00 -0.93651845741E+03  0.93651845741E+03  0.00000000000E+00 0. -1.
         25    2    1    2    0    0  0.25930220386E+02  0.16199998231E+02 -0.38161702748E+03  0.40273026734E+03  0.12500118519E+03 0.  0.
          2    1    1    2  501    0 -0.15616012079E+02 -0.52784383371E+02 -0.54145832141E+03  0.54424917527E+03  0.00000000000E+00 0. -1.
          1    1    1    2  502    0 -0.10314208307E+02  0.36584385140E+02  0.24075246233E+03  0.24373458566E+03  0.00000000000E+00 0. -1.
         22    1    3    3    0    0  0.17488039441E+01  0.25009654630E+02 -0.54148635229E+01  0.25648818432E+02  0.00000000000E+00 0. -1.
         22    1    3    3    0    0  0.24181416442E+02 -0.88096563990E+01 -0.37620216395E+03  0.37708144891E+03  0.00000000000E+00 0. -1.
</event>
<event>
 7    1  0.6058736E-006  0.6590207E+02  0.7818608E-02  0.1442930E+00
          2   -1    0    0  502    0  0.00000000000E+00  0.00000000000E+00  0.33622049406E+03  0.33622049406E+03  0.00000000000E+00 0. -1.
          1   -1    0    0  501    0 -0.00000000000E+00 -0.00000000000E+00 -0.14269637730E+04  0.14269637730E+04  0.00000000000E+00 0. -1.
         25    2    1    2    0    0  0.19095686137E+00  0.35007476613E+02 -0.31916197293E+03  0.34454190726E+03  0.12497680188E+03 0.  0.
          2    1    1    2  501    0 -0.26210290869E+02 -0.63548161951E+02 -0.10928755183E+04  0.10950352719E+04  0.00000000000E+00 0. -1.
          1    1    1    2  502    0  0.26019334007E+02  0.28540685337E+02  0.32129421231E+03  0.32360708788E+03  0.00000000000E+00 0. -1.
         22    1    3    3    0    0 -0.31734153965E+01  0.57353918542E+02 -0.31663457509E+03  0.32180272945E+03  0.00000000000E+00 0.  1.
         22    1    3    3    0    0  0.33643722579E+01 -0.22346441928E+02 -0.25273978387E+01  0.22739177808E+02  0.00000000000E+00 0.  1.
</event>
<event>
 7    1  0.6058736E-006  0.6821408E+02  0.7818608E-02  0.1380047E+00
          2   -1    0    0  502    0  0.00000000000E+00  0.00000000000E+00  0.12217823771E+04  0.12217823771E+04  0.00000000000E+00 0. -1.
          1   -1    0    0  501    0 -0.00000000000E+00 -0.00000000000E+00 -0.28005499874E+03  0.28005499874E+03  0.00000000000E+00 0. -1.
         25    2    1    2    0    0 -0.63295966753E+01  0.12437643465E+03 -0.25469200383E+02  0.17828331143E+03  0.12500679052E+03 0.  0.
          2    1    1    2  501    0  0.78460435165E+01 -0.63499040056E+02 -0.17159508528E+03  0.18313536463E+03  0.00000000000E+00 0. -1.
          1    1    1    2  502    0 -0.15164468412E+01 -0.60877394597E+02  0.11387916640E+04  0.11404186998E+04  0.00000000000E+00 0. -1.
         22    1    3    3    0    0 -0.18932746568E+02  0.14595119595E+03 -0.72360725522E+01  0.14735182807E+03  0.00000000000E+00 0. -1.
         22    1    3    3    0    0  0.12603149893E+02 -0.21574761293E+02 -0.18233127831E+02  0.30931483356E+02  0.00000000000E+00 0. -1.
</event>
<event>
 7    1  0.6058736E-006  0.6351583E+02  0.7818608E-02  0.1389477E+00
          2   -1    0    0  502    0  0.00000000000E+00  0.00000000000E+00  0.29029308672E+03  0.29029308672E+03  0.00000000000E+00 0. -1.
          1   -1    0    0  501    0 -0.00000000000E+00 -0.00000000000E+00 -0.11307446982E+04  0.11307446982E+04  0.00000000000E+00 0. -1.
         25    2    1    2    0    0  0.94396423222E+02 -0.75898492788E+02 -0.29939865818E+03  0.34631779170E+03  0.12500076162E+03 0.  0.
          2    1    1    2  501    0 -0.49303991879E+02  0.35424872655E+02 -0.80328635064E+03  0.80557728763E+03  0.00000000000E+00 0. -1.
          1    1    1    2  502    0 -0.45092431342E+02  0.40473620133E+02  0.26223339734E+03  0.26914270559E+03  0.00000000000E+00 0. -1.
         22    1    3    3    0    0  0.65295690568E+02 -0.47181439507E+02 -0.29428866048E+03  0.30511543902E+03  0.00000000000E+00 0.  1.
         22    1    3    3    0    0  0.29100732653E+02 -0.28717053281E+02 -0.51099976999E+01  0.41202352682E+02  0.00000000000E+00 0.  1.
</event>
<event>
 7    1  0.6058736E-006  0.6031659E+02  0.7818608E-02  0.1461368E+00
          2   -1    0    0  502    0  0.00000000000E+00  0.00000000000E+00  0.90387591664E+02  0.90387591664E+02  0.00000000000E+00 0. -1.
          1   -1    0    0  501    0 -0.00000000000E+00 -0.00000000000E+00 -0.21024485021E+04  0.21024485021E+04  0.00000000000E+00 0. -1.
         25    2    1    2    0    0  0.31560412421E+02  0.18546916528E+02 -0.51549962783E+03  0.53170035535E+03  0.12500141536E+03 0.  0.
          2    1    1    2  501    0 -0.62520793243E+02  0.14422378807E+01 -0.15740701047E+04  0.15753119133E+04  0.00000000000E+00 0. -1.
          1    1    1    2  502    0  0.30960380822E+02 -0.19989154409E+02  0.77508822038E+02  0.85823825179E+02  0.00000000000E+00 0. -1.
         22    1    3    3    0    0  0.24586596345E+02  0.20857294814E+02 -0.24118955094E+02  0.40264767001E+02  0.00000000000E+00 0. -1.
         22    1    3    3    0    0  0.69738160758E+01 -0.23103782861E+01 -0.49138067273E+03  0.49143558835E+03  0.00000000000E+00 0. -1.
</event>
<event>
 7    1  0.6058736E-006  0.1673463E+03  0.7818608E-02  0.1259983E+00
          2   -1    0    0  502    0  0.00000000000E+00  0.00000000000E+00  0.72039217417E+02  0.72039217417E+02  0.00000000000E+00 0. -1.
          1   -1    0    0  501    0 -0.00000000000E+00 -0.00000000000E+00 -0.10858389445E+04  0.10858389445E+04  0.00000000000E+00 0. -1.
         25    2    1    2    0    0  0.17090259497E+03  0.77638436669E+02 -0.62147686835E+03  0.66112829149E+03  0.12498678367E+03 0.  0.
          2    1    1    2  501    0 -0.58282333262E+02  0.43495662441E+02 -0.29715837634E+03  0.30592777522E+03  0.00000000000E+00 0. -1.
          1    1    1    2  502    0 -0.11262026171E+03 -0.12113409911E+03 -0.95164482407E+02  0.19082209523E+03  0.00000000000E+00 0. -1.
         22    1    3    3    0    0  0.29087293353E+02 -0.27922412861E+02 -0.58527466857E+02  0.71071767611E+02  0.00000000000E+00 0. -1.
         22    1    3    3    0    0  0.14181530162E+03  0.10556084953E+03 -0.56294940149E+03  0.59005652388E+03  0.00000000000E+00 0. -1.
</event>
<event>
 7    1  0.6058736E-006  0.8191021E+02  0.7818608E-02  0.1393416E+00
          2   -1    0    0  502    0  0.00000000000E+00  0.00000000000E+00  0.75309764117E+03  0.75309764117E+03  0.00000000000E+00 0. -1.
          1   -1    0    0  501    0 -0.00000000000E+00 -0.00000000000E+00 -0.87998528461E+03  0.87998528461E+03  0.00000000000E+00 0. -1.
         25    2    1    2    0    0 -0.58070238387E+01  0.12362824286E+03 -0.73014886568E+02  0.19045743330E+03  0.12500078512E+03 0.  0.
          2    1    1    2  501    0 -0.74202364000E+01 -0.80067580792E+02 -0.74533812446E+03  0.74966312246E+03  0.00000000000E+00 0. -1.
          1    1    1    2  502    0  0.13227260239E+02 -0.43560662065E+02  0.69146536759E+03  0.69296237002E+03  0.00000000000E+00 0. -1.
         22    1    3    3    0    0  0.33563311279E+02  0.12161394791E+03 -0.81416533501E+02  0.15015025847E+03  0.00000000000E+00 0. -1.
         22    1    3    3    0    0 -0.39370335117E+02  0.20142949423E+01  0.84016469322E+01  0.40307174827E+02  0.00000000000E+00 0. -1.
</event>
<event>
 7    1  0.6058736E-006  0.3624155E+02  0.7818608E-02  0.1604676E+00
          2   -1    0    0  502    0  0.00000000000E+00  0.00000000000E+00  0.27234265713E+03  0.27234265713E+03  0.00000000000E+00 0. -1.
          1   -1    0    0  501    0 -0.00000000000E+00 -0.00000000000E+00 -0.11833696711E+04  0.11833696711E+04  0.00000000000E+00 0. -1.
         25    2    1    2    0    0  0.36115806626E+02 -0.45760076884E+02 -0.62122166930E+00  0.13792796430E+03  0.12500160517E+03 0.  0.
          2    1    1    2  501    0 -0.94686570790E+01  0.21911733122E+02 -0.11123964887E+04  0.11126525637E+04  0.00000000000E+00 0. -1.
          1    1    1    2  502    0 -0.26647149547E+02  0.23848343762E+02  0.20199069632E+03  0.20513180027E+03  0.00000000000E+00 0. -1.
         22    1    3    3    0    0  0.35812350178E+02  0.23659416595E+02  0.39002437928E+02  0.57995539339E+02  0.00000000000E+00 0.  1.
         22    1    3    3    0    0  0.30345644851E+00 -0.69419493479E+02 -0.39623659597E+02  0.79932424963E+02  0.00000000000E+00 0.  1.
</event>
<event>
 7    1  0.6058736E-006  0.1738554E+03  0.7818608E-02  0.1317488E+00
          2   -1    0    0  502    0  0.00000000000E+00  0.00000000000E+00  0.19550542073E+03  0.19550542073E+03  0.00000000000E+00 0. -1.
          1   -1    0    0  501    0 -0.00000000000E+00 -0.00000000000E+00 -0.14138239256E+04  0.14138239256E+04  0.00000000000E+00 0. -1.
         25    2    1    2    0    0 -0.13228726149E+03  0.63112009655E+02 -0.45934618034E+03  0.49810407066E+03  0.12500282598E+03 0.  0.
          2    1    1    2  501    0  0.16646059497E+03 -0.85396203945E+02 -0.92322057221E+03  0.94198612850E+03  0.00000000000E+00 0. -1.
          1    1    1    2  502    0 -0.34173333482E+02  0.22284194290E+02  0.16424824773E+03  0.16923914712E+03  0.00000000000E+00 0. -1.
         22    1    3    3    0    0 -0.90480399284E+02  0.10101646363E+03 -0.30601979754E+03  0.33472248963E+03  0.00000000000E+00 0. -1.
         22    1    3    3    0    0 -0.41806862206E+02 -0.37904453972E+02 -0.15332638280E+03  0.16338158103E+03  0.00000000000E+00 0. -1.
</event>
<event>
 7    1  0.6058736E-006  0.6614785E+02  0.7818608E-02  0.1446947E+00
          2   -1    0    0  502    0  0.00000000000E+00  0.00000000000E+00  0.15312903190E+04  0.15312903190E+04  0.00000000000E+00 0. -1.
          1   -1    0    0  501    0 -0.00000000000E+00 -0.00000000000E+00 -0.40659023207E+03  0.40659023207E+03  0.00000000000E+00 0. -1.
         25    2    1    2    0    0  0.34414419021E+02  0.27322851350E+02  0.64078296619E+02  0.14718442401E+03  0.12500534442E+03 0.  0.
          2    1    1    2  501    0 -0.66478214459E+02 -0.81723385596E+01 -0.36171759567E+03  0.36786649634E+03  0.00000000000E+00 0. -1.
          1    1    1    2  502    0  0.32063795438E+02 -0.19150512791E+02  0.14223393860E+04  0.14228296307E+04  0.00000000000E+00 0. -1.
         22    1    3    3    0    0 -0.30204475440E+02  0.42976202968E+01  0.71935187147E+02  0.78137385589E+02  0.00000000000E+00 0. -1.
         22    1    3    3    0    0  0.64618894462E+02  0.23025231053E+02 -0.78568905284E+01  0.69047038425E+02  0.00000000000E+00 0. -1.
</event>
<event>
 7    1  0.6058736E-006  0.1075208E+03  0.7818608E-02  0.1394675E+00
          2   -1    0    0  502    0  0.00000000000E+00  0.00000000000E+00  0.14338278859E+03  0.14338278859E+03  0.00000000000E+00 0. -1.
          1   -1    0    0  501    0 -0.00000000000E+00 -0.00000000000E+00 -0.15744897013E+04  0.15744897013E+04  0.00000000000E+00 0. -1.
         25    2    1    2    0    0 -0.12865910260E+03  0.47267663188E+02 -0.19101058582E+03  0.26626564012E+03  0.12499980219E+03 0.  0.
          2    1    1    2  501    0  0.34183365476E+02 -0.32141903122E+01 -0.13198864549E+04  0.13203329456E+04  0.00000000000E+00 0. -1.
          1    1    1    2  502    0  0.94475737127E+02 -0.44053472876E+02  0.79790128009E+02  0.13127390413E+03  0.00000000000E+00 0. -1.
         22    1    3    3    0    0  0.10142032518E+02  0.43471307526E+02 -0.30673811202E+02  0.54161777069E+02  0.00000000000E+00 0. -1.
         22    1    3    3    0    0 -0.13880113512E+03  0.37963556618E+01 -0.16033677461E+03  0.21210386305E+03  0.00000000000E+00 0. -1.
</event>
<event>
 7    1  0.6058736E-006  0.5971726E+02  0.7818608E-02  0.1430051E+00
          2   -1    0    0  502    0  0.00000000000E+00  0.00000000000E+00  0.16539513829E+04  0.16539513829E+04  0.00000000000E+00 0. -1.
          1   -1    0    0  501    0 -0.00000000000E+00 -0.00000000000E+00 -0.10914233863E+04  0.10914233863E+04  0.00000000000E+00 0. -1.
         25    2    1    2    0    0 -0.50364362875E+02  0.17634441774E+02  0.89156407786E+03  0.90186402272E+03  0.12499867188E+03 0.  0.
          2    1    1    2  501    0  0.22429894762E+02 -0.55369013429E+02 -0.10847230036E+04  0.10863667992E+04  0.00000000000E+00 0. -1.
          1    1    1    2  502    0  0.27934468113E+02  0.37734571655E+02  0.75568692233E+03  0.75714394733E+03  0.00000000000E+00 0. -1.
         22    1    3    3    0    0 -0.47272697923E+02 -0.41337470278E+02  0.25711649278E+03  0.26467411146E+03  0.00000000000E+00 0.  1.
         22    1    3    3    0    0 -0.30916649522E+01  0.58971912052E+02  0.63444758508E+03  0.63718991126E+03  0.00000000000E+00 0.  1.
</event>
<event>
 7    1  0.6058736E-006  0.1211825E+03  0.7818608E-02  0.1337536E+00
          2   -1    0    0  502    0  0.00000000000E+00  0.00000000000E+00  0.60510791042E+03  0.60510791042E+03  0.00000000000E+00 0. -1.
          1   -1    0    0  501    0 -0.00000000000E+00 -0.00000000000E+00 -0.82480790901E+03  0.82480790901E+03  0.00000000000E+00 0. -1.
         25    2    1    2    0    0 -0.11607847884E+03  0.47082455430E+02  0.15269039310E+03  0.23373113573E+03  0.12499966723E+03 0.  0.
          2    1    1    2  501    0  0.29615366861E+02  0.39078930762E+02 -0.77445184136E+03  0.77600250474E+03  0.00000000000E+00 0. -1.
          1    1    1    2  502    0  0.86463111979E+02 -0.86161386192E+02  0.40206144967E+03  0.42018217896E+03  0.00000000000E+00 0. -1.
         22    1    3    3    0    0 -0.10273352884E+03  0.22080393849E+02  0.32126419981E+02  0.10988097470E+03  0.00000000000E+00 0.  1.
         22    1    3    3    0    0 -0.13344949996E+02  0.25002061581E+02  0.12056397311E+03  0.12385016103E+03  0.00000000000E+00 0.  1.
</event>
<event>
 7    1  0.6058736E-006  0.1890521E+03  0.7818608E-02  0.1298204E+00
          2   -1    0    0  502    0  0.00000000000E+00  0.00000000000E+00  0.78439970646E+03  0.78439970646E+03  0.00000000000E+00 0. -1.
          1   -1    0    0  501    0 -0.00000000000E+00 -0.00000000000E+00 -0.24363515083E+04  0.24363515083E+04  0.00000000000E+00 0. -1.
         25    2    1    2    0    0  0.17396068097E+02  0.17809433766E+03  0.19969635867E+02  0.21918919385E+03  0.12499960022E+03 0.  0.
          2    1    1    2  501    0  0.44644010632E+02  0.25896898099E+01 -0.23227981770E+04  0.23232286080E+04  0.00000000000E+00 0. -1.
          1    1    1    2  502    0 -0.62040078729E+02 -0.18068402747E+03  0.65087673933E+03  0.67833341282E+03  0.00000000000E+00 0. -1.
         22    1    3    3    0    0  0.56006981486E+02  0.12157337600E+03  0.52020270872E+02  0.14360702040E+03  0.00000000000E+00 0. -1.
         22    1    3    3    0    0 -0.38610913389E+02  0.56520961661E+02 -0.32050635005E+02  0.75582173454E+02  0.00000000000E+00 0. -1.
</event>
<event>
 7    1  0.6058736E-006  0.2804998E+02  0.7818608E-02  0.1624778E+00
          2   -1    0    0  502    0  0.00000000000E+00  0.00000000000E+00  0.62829430437E+03  0.62829430437E+03  0.00000000000E+00 0. -1.
          1   -1    0    0  501    0 -0.00000000000E+00 -0.00000000000E+00 -0.11326844098E+03  0.11326844098E+03  0.00000000000E+00 0. -1.
         25    2    1    2    0    0  0.10659129112E+02  0.13650551124E+02 -0.50318136876E+02  0.13585188225E+03  0.12499545765E+03 0.  0.
          2    1    1    2  501    0  0.16171005409E+02 -0.22106270748E+02 -0.10387026658E+02  0.29292984572E+02  0.00000000000E+00 0. -1.
          1    1    1    2  502    0 -0.26830134521E+02  0.84557196238E+01  0.57573102693E+03  0.57641787852E+03  0.00000000000E+00 0. -1.
         22    1    3    3    0    0 -0.56441677903E+02  0.16546492361E+02 -0.19596129578E+02  0.61995626527E+02  0.00000000000E+00 0. -1.
         22    1    3    3    0    0  0.67100807015E+02 -0.28959412372E+01 -0.30722007298E+02  0.73856255728E+02  0.00000000000E+00 0. -1.
</event>
<event>
 7    1  0.6058736E-006  0.6897370E+02  0.7818608E-02  0.1486521E+00
          2   -1    0    0  502    0  0.00000000000E+00  0.00000000000E+00  0.34401004529E+03  0.34401004529E+03  0.00000000000E+00 0. -1.
          1   -1    0    0  501    0 -0.00000000000E+00 -0.00000000000E+00 -0.31542033652E+03  0.31542033652E+03  0.00000000000E+00 0. -1.
         25    2    1    2    0    0  0.49106307589E+02 -0.32179172818E+02 -0.25315692567E+02  0.14037096106E+03  0.12496477028E+03 0.  0.
          2    1    1    2  501    0 -0.68897812208E+02  0.13901514015E+02 -0.22660664510E+03  0.23725668004E+03  0.00000000000E+00 0. -1.
          1    1    1    2  502    0  0.19791504619E+02  0.18277658803E+02  0.28051204645E+03  0.28180274070E+03  0.00000000000E+00 0. -1.
         22    1    3    3    0    0 -0.23558068974E+02 -0.17174031841E+02  0.34425854966E+02  0.45111744298E+02  0.00000000000E+00 0. -1.
         22    1    3    3    0    0  0.72664376563E+02 -0.15005140977E+02 -0.59741547533E+02  0.95259216764E+02  0.00000000000E+00 0. -1.
</event>
<event>
 7    1  0.6058736E-006  0.5968553E+02  0.7818608E-02  0.1531600E+00
          2   -1    0    0  502    0  0.00000000000E+00  0.00000000000E+00  0.94831297356E+02  0.94831297356E+02  0.00000000000E+00 0. -1.
          1   -1    0    0  501    0 -0.00000000000E+00 -0.00000000000E+00 -0.17583063986E+04  0.17583063986E+04  0.00000000000E+00 0. -1.
         25    2    1    2    0    0  0.44063811912E+02  0.15924510591E+02 -0.95350832964E+02  0.16404248799E+03  0.12499178757E+03 0.  0.
          2    1    1    2  501    0 -0.59935625743E+02  0.61829654253E+00 -0.16258651509E+04  0.16269696218E+04  0.00000000000E+00 0. -1.
          1    1    1    2  502    0  0.15871813831E+02 -0.16542807133E+02  0.57740882546E+02  0.62125586189E+02  0.00000000000E+00 0. -1.
         22    1    3    3    0    0  0.62075794666E+02  0.58811284758E+02 -0.73012373818E+02  0.11244099888E+03  0.00000000000E+00 0.  1.
         22    1    3    3    0    0 -0.18011982753E+02 -0.42886774167E+02 -0.22338459146E+02  0.51601489108E+02  0.00000000000E+00 0.  1.
</event>
<event>
 7    1  0.6058736E-006  0.1118366E+03  0.7818608E-02  0.1318747E+00
          2   -1    0    0  502    0  0.00000000000E+00  0.00000000000E+00  0.24321275476E+04  0.24321275476E+04  0.00000000000E+00 0. -1.
          1   -1    0    0  501    0 -0.00000000000E+00 -0.00000000000E+00 -0.59229510746E+02  0.59229510746E+02  0.00000000000E+00 0. -1.
         25    2    1    2    0    0  0.39716512424E+02 -0.96001767221E+02  0.22030109956E+03  0.27377248912E+03  0.12500024265E+03 0.  0.
          2    1    1    2  501    0  0.18580491143E+02  0.11910921660E+03  0.81445621066E+02  0.14548412051E+03  0.00000000000E+00 0. -1.
          1    1    1    2  502    0 -0.58297003567E+02 -0.23107449381E+02  0.20711513162E+04  0.20721004487E+04  0.00000000000E+00 0. -1.
         22    1    3    3    0    0  0.31379377710E+02 -0.37686668688E+02  0.35607181113E+01  0.49169391452E+02  0.00000000000E+00 0. -1.
         22    1    3    3    0    0  0.83371347137E+01 -0.58315098533E+02  0.21674038145E+03  0.22460309767E+03  0.00000000000E+00 0. -1.
</event>
<event>
 7    1  0.8437757E-006  0.6249033E+02  0.7818608E-02  0.1437537E+00
          2   -1    0    0  502    0  0.00000000000E+00  0.00000000000E+00  0.13491820760E+04  0.13491820760E+04  0.00000000000E+00 0. -1.
          1   -1    0    0  501    0 -0.00000000000E+00 -0.00000000000E+00 -0.70072060053E+03  0.70072060053E+03  0.00000000000E+00 0. -1.
         25    2    1    2    0    0 -0.42978188410E+02  0.74858825673E+02 -0.20794065675E+03  0.25751818811E+03  0.12500132806E+03 0.  0.
          2    1    1    2  501    0 -0.96746086330E+01 -0.41285410920E+02 -0.46629250599E+03  0.46821659982E+03  0.00000000000E+00 0. -1.
          1    1    1    2  502    0  0.52652797043E+02 -0.33573414752E+02  0.13226946383E+04  0.13241678886E+04  0.00000000000E+00 0. -1.
         22    1    3    3    0    0 -0.12888842577E+02 -0.70338232758E+01  0.13228224901E+02  0.19763169454E+02  0.00000000000E+00 0.  1.
         22    1    3    3    0    0 -0.30089345833E+02  0.81892648948E+02 -0.22116888165E+03  0.23775501866E+03  0.00000000000E+00 0.  1.
</event>
<event>
 7    1  0.6058736E-006  0.4556567E+02  0.7818608E-02  0.1546753E+00
          2   -1    0    0  502    0  0.00000000000E+00  0.00000000000E+00  0.27577328864E+03  0.27577328864E+03  0.00000000000E+00 0. -1.
          1   -1    0    0  501    0 -0.00000000000E+00 -0.00000000000E+00 -0.88469675897E+03  0.88469675897E+03  0.00000000000E+00 0. -1.
         25    2    1    2    0    0  0.20987962173E+02  0.33776961584E+01  0.10725538642E+02  0.12726573354E+03  0.12501850410E+03 0.  0.
          2    1    1    2  501    0  0.20749706141E+02  0.17596244028E+02 -0.82356113987E+03  0.82401039387E+03  0.00000000000E+00 0. -1.
          1    1    1    2  502    0 -0.41737668314E+02 -0.20973940186E+02  0.20391213089E+03  0.20919392020E+03  0.00000000000E+00 0. -1.
         22    1    3    3    0    0 -0.41747957579E+01  0.16743356333E+02 -0.53923140264E+02  0.56616905221E+02  0.00000000000E+00 0. -1.
         22    1    3    3    0    0  0.25162757931E+02 -0.13365660174E+02  0.64648678906E+02  0.70648828319E+02  0.00000000000E+00 0. -1.
</event>
<event>
 7    1  0.6058736E-006  0.4712021E+02  0.7818608E-02  0.1510246E+00
          2   -1    0    0  502    0  0.00000000000E+00  0.00000000000E+00  0.98271714521E+03  0.98271714521E+03  0.00000000000E+00 0. -1.
          1   -1    0    0  501    0 -0.00000000000E+00 -0.00000000000E+00 -0.61052789077E+02  0.61052789077E+02  0.00000000000E+00 0. -1.
         25    2    1    2    0    0 -0.16479774456E+02  0.26348476191E+01  0.29750791075E+02  0.12956821996E+03  0.12499715463E+03 0.  0.
          2    1    1    2  501    0  0.34819724312E+02  0.40769761487E+02  0.58101501729E+02  0.79059288867E+02  0.00000000000E+00 0. -1.
          1    1    1    2  502    0 -0.18339949857E+02 -0.43404609106E+02  0.83381206333E+03  0.83514242546E+03  0.00000000000E+00 0. -1.
         22    1    3    3    0    0  0.50896880485E+02 -0.19322110239E+02  0.57217652296E+01  0.54740980851E+02  0.00000000000E+00 0. -1.
         22    1    3    3    0    0 -0.67376654940E+02  0.21956957858E+02  0.24029025845E+02  0.74827239107E+02  0.00000000000E+00 0. -1.
</event>
<event>
 7    1  0.6058736E-006  0.4540940E+02  0.7818608E-02  0.1515414E+00
          2   -1    0    0  502    0  0.00000000000E+00  0.00000000000E+00  0.81743360633E+03  0.81743360633E+03  0.00000000000E+00 0. -1.
          1   -1    0    0  501    0 -0.00000000000E+00 -0.00000000000E+00 -0.18380890442E+04  0.18380890442E+04  0.00000000000E+00 0. -1.
         25    2    1    2    0    0 -0.61071989734E+02  0.22056797239E+02  0.73607193785E+02  0.15893554556E+03  0.12500479364E+03 0.  0.
          2    1    1    2  501    0  0.44791986558E+02  0.72903372728E+01 -0.17947362926E+04  0.17953099541E+04  0.00000000000E+00 0. -1.
          1    1    1    2  502    0  0.16280003176E+02 -0.29347134512E+02  0.70047366092E+03  0.70127715095E+03  0.00000000000E+00 0. -1.
         22    1    3    3    0    0 -0.98811717154E+01 -0.26832250467E+02  0.82759985332E+02  0.87560392826E+02  0.00000000000E+00 0.  1.
         22    1    3    3    0    0 -0.51190818019E+02  0.48889047707E+02 -0.91527915475E+01  0.71375152737E+02  0.00000000000E+00 0.  1.
</event>
<event>
 7    1  0.6058736E-006  0.1498332E+03  0.7818608E-02  0.1225742E+00
          2   -1    0    0  502    0  0.00000000000E+00  0.00000000000E+00  0.96630454225E+03  0.96630454225E+03  0.00000000000E+00 0. -1.
          1   -1    0    0  501    0 -0.00000000000E+00 -0.00000000000E+00 -0.16588075160E+03  0.16588075160E+03  0.00000000000E+00 0. -1.
         25    2    1    2    0    0  0.13817040542E+03 -0.27489912115E+02  0.24569894521E+03  0.30958493300E+03  0.12501241084E+03 0.  0.
          2    1    1    2  501    0 -0.13138817632E+03 -0.87127056698E+02 -0.80546888569E+02  0.17703609277E+03  0.00000000000E+00 0. -1.
          1    1    1    2  502    0 -0.67822291005E+01  0.11461696881E+03  0.63527173401E+03  0.64556426807E+03  0.00000000000E+00 0. -1.
         22    1    3    3    0    0  0.32045774228E+02  0.39607932343E+01  0.17565329300E+03  0.17859646936E+03  0.00000000000E+00 0.  1.
         22    1    3    3    0    0  0.10612463119E+03 -0.31450705349E+02  0.70045652209E+02  0.13098846364E+03  0.00000000000E+00 0.  1.
</event>
<event>
 7    1  0.6058736E-006  0.1049000E+03  0.7818608E-02  0.1354856E+00
          2   -1    0    0  502    0  0.00000000000E+00  0.00000000000E+00  0.51256667309E+03  0.51256667309E+03  0.00000000000E+00 0. -1.
          1   -1    0    0  501    0 -0.00000000000E+00 -0.00000000000E+00 -0.15703343779E+04  0.15703343779E+04  0.00000000000E+00 0. -1.
         25    2    1    2    0    0  0.57398047218E+02  0.12313719484E+03  0.55629072529E+02  0.19281473680E+03  0.12500249773E+03 0.  0.
          2    1    1    2  501    0 -0.71396106885E+02 -0.76366032393E+02 -0.14983786406E+04  0.15020212134E+04  0.00000000000E+00 0. -1.
          1    1    1    2  502    0  0.13998059667E+02 -0.46771162451E+02  0.38498186332E+03  0.38806510072E+03  0.00000000000E+00 0. -1.
         22    1    3    3    0    0 -0.30937820693E+02  0.42074298199E+02 -0.14131935056E+02  0.54102743984E+02  0.00000000000E+00 0.  1.
         22    1    3    3    0    0  0.88335867910E+02  0.81062896645E+02  0.69761007585E+02  0.13871199282E+03  0.00000000000E+00 0.  1.
</event>
<event>
 7    1  0.6058736E-006  0.6734622E+02  0.7818608E-02  0.1441966E+00
          2   -1    0    0  502    0  0.00000000000E+00  0.00000000000E+00  0.85697677606E+03  0.85697677606E+03  0.00000000000E+00 0. -1.
          1   -1    0    0  501    0 -0.00000000000E+00 -0.00000000000E+00 -0.37224685104E+03  0.37224685104E+03  0.00000000000E+00 0. -1.
         25    2    1    2    0    0 -0.12509032445E+02  0.33323955832E+02  0.21543065971E+03  0.25159927893E+03  0.12499946437E+03 0.  0.
          2    1    1    2  501    0 -0.29659707980E+02  0.23858550562E+02 -0.35110632348E+03  0.35316367182E+03  0.00000000000E+00 0. -1.
          1    1    1    2  502    0  0.42168740425E+02 -0.57182506394E+02  0.62040558878E+03  0.62446067634E+03  0.00000000000E+00 0. -1.
         22    1    3    3    0    0 -0.22923972277E+02 -0.30506790244E+02  0.15016683318E+02  0.41008213004E+02  0.00000000000E+00 0.  1.
         22    1    3    3    0    0  0.10414939831E+02  0.63830746076E+02  0.20041397639E+03  0.21059106593E+03  0.00000000000E+00 0.  1.
</event>
<event>
 7    1  0.6058736E-006  0.8652792E+02  0.7818608E-02  0.1430235E+00
          2   -1    0    0  502    0  0.00000000000E+00  0.00000000000E+00  0.80944594015E+02  0.80944594015E+02  0.00000000000E+00 0. -1.
          1   -1    0    0  501    0 -0.00000000000E+00 -0.00000000000E+00 -0.13192753997E+04  0.13192753997E+04  0.00000000000E+00 0. -1.
         25    2    1    2    0    0 -0.44087465230E+02 -0.86913197886E+02 -0.97231492487E+03  0.98514914493E+03  0.12499966430E+03 0.  0.
          2    1    1    2  501    0 -0.18017676083E+02  0.26876281577E+02 -0.31440176212E+03  0.31606239761E+03  0.00000000000E+00 0. -1.
          1    1    1    2  502    0  0.62105141313E+02  0.60036916309E+02  0.48385881290E+02  0.99008451183E+02  0.00000000000E+00 0. -1.
         22    1    3    3    0    0 -0.63279796945E+02  0.20254707685E+01 -0.51447451001E+03  0.51835553115E+03  0.00000000000E+00 0. -1.
         22    1    3    3    0    0  0.19192331715E+02 -0.88938668655E+02 -0.45784041486E+03  0.46679361377E+03  0.00000000000E+00 0. -1.
</event>
<event>
 7    1  0.6058736E-006  0.1062681E+03  0.7818608E-02  0.1384884E+00
          2   -1    0    0  502    0  0.00000000000E+00  0.00000000000E+00  0.83200099404E+03  0.83200099404E+03  0.00000000000E+00 0. -1.
          1   -1    0    0  501    0 -0.00000000000E+00 -0.00000000000E+00 -0.78949906259E+03  0.78949906259E+03  0.00000000000E+00 0. -1.
         25    2    1    2    0    0 -0.60528477346E+02  0.40176188221E+02 -0.22873958257E+03  0.27060120876E+03  0.12500157952E+03 0.  0.
          2    1    1    2  501    0 -0.37527829658E+02  0.20398708539E+01 -0.53565435841E+03  0.53697121967E+03  0.00000000000E+00 0. -1.
          1    1    1    2  502    0  0.98056307004E+02 -0.42216059075E+02  0.80689587243E+03  0.81392762819E+03  0.00000000000E+00 0. -1.
         22    1    3    3    0    0 -0.14928493955E+02  0.19754873394E+02  0.99890432658E+01  0.26700111234E+02  0.00000000000E+00 0.  1.
         22    1    3    3    0    0 -0.45599983391E+02  0.20421314827E+02 -0.23872862583E+03  0.24390109753E+03  0.00000000000E+00 0.  1.
</event>
<event>
 7    1  0.6058736E-006  0.7376727E+02  0.7818608E-02  0.1408691E+00
          2   -1    0    0  502    0  0.00000000000E+00  0.00000000000E+00  0.15730127558E+03  0.15730127558E+03  0.00000000000E+00 0. -1.
          1   -1    0    0  501    0 -0.00000000000E+00 -0.00000000000E+00 -0.68033136064E+03  0.68033136064E+03  0.00000000000E+00 0. -1.
         25    2    1    2    0    0  0.76064278713E+02 -0.85037953190E+02 -0.78882953785E+02  0.18671307583E+03  0.12498809666E+03 0.  0.
          2    1    1    2  501    0 -0.34640825771E+02  0.28408322460E+02 -0.53458357992E+03  0.53645747596E+03  0.00000000000E+00 0. -1.
          1    1    1    2  502    0 -0.41423452943E+02  0.56629630730E+02  0.90436448639E+02  0.11446208443E+03  0.00000000000E+00 0. -1.
         22    1    3    3    0    0 -0.30908575889E+02 -0.91047100347E+01 -0.36871799627E+02  0.48966982917E+02  0.00000000000E+00 0. -1.
         22    1    3    3    0    0  0.10697285460E+03 -0.75933243155E+02 -0.42011154158E+02  0.13774609291E+03  0.00000000000E+00 0. -1.
</event>
<event>
 7    1  0.6058736E-006  0.9416354E+02  0.7818608E-02  0.1312358E+00
          2   -1    0    0  502    0  0.00000000000E+00  0.00000000000E+00  0.21470248715E+04  0.21470248715E+04  0.00000000000E+00 0. -1.
          1   -1    0    0  501    0 -0.00000000000E+00 -0.00000000000E+00 -0.27226443769E+03  0.27226443769E+03  0.00000000000E+00 0. -1.
         25    2    1    2    0    0 -0.47161914756E+02  0.40290710088E+02  0.65847608437E+03  0.67309996099E+03  0.12500086511E+03 0.  0.
          2    1    1    2  501    0 -0.59545287676E+02 -0.51743129436E+02 -0.25708541719E+03  0.26891616623E+03  0.00000000000E+00 0. -1.
          1    1    1    2  502    0  0.10670720243E+03  0.11452419348E+02  0.14733697667E+04  0.14772731820E+04  0.00000000000E+00 0. -1.
         22    1    3    3    0    0 -0.80477596456E+02 -0.74595327735E+01  0.35431856905E+03  0.36341978005E+03  0.00000000000E+00 0.  1.
         22    1    3    3    0    0  0.33315681700E+02  0.47750242862E+02  0.30415751532E+03  0.30968018094E+03  0.00000000000E+00 0.  1.
</event>
<event>
 7    1  0.6058736E-006  0.1378581E+03  0.7818608E-02  0.1241027E+00
          2   -1    0    0  502    0  0.00000000000E+00  0.00000000000E+00  0.37943092512E+04  0.37943092512E+04  0.00000000000E+00 0. -1.
          1   -1    0    0  501    0 -0.00000000000E+00 -0.00000000000E+00 -0.40198804245E+02  0.40198804245E+02  0.00000000000E+00 0. -1.
         25    2    1    2    0    0 -0.11649221832E+03  0.10060558622E+00  0.67577301876E+03  0.69703791145E+03  0.12498891976E+03 0.  0.
          2    1    1    2  501    0  0.10911605503E+03  0.10631028306E+03  0.17437248873E+03  0.23154687339E+03  0.00000000000E+00 0. -1.
          1    1    1    2  502    0  0.73761632859E+01 -0.10641088865E+03  0.29039649395E+04  0.29059232706E+04  0.00000000000E+00 0. -1.
         22    1    3    3    0    0  0.21075943442E+02  0.10438075681E+02  0.39422275714E+02  0.45904952221E+02  0.00000000000E+00 0. -1.
         22    1    3    3    0    0 -0.13756816176E+03 -0.10337470094E+02  0.63635074305E+03  0.65113295923E+03  0.00000000000E+00 0. -1.
</event>
<event>
 7    1  0.6058736E-006  0.1645044E+03  0.7818608E-02  0.1310855E+00
          2   -1    0    0  502    0  0.00000000000E+00  0.00000000000E+00  0.12374442972E+04  0.12374442972E+04  0.00000000000E+00 0. -1.
          1   -1    0    0  501    0 -0.00000000000E+00 -0.00000000000E+00 -0.25531892009E+03  0.25531892009E+03  0.00000000000E+00 0. -1.
         25    2    1    2    0    0 -0.17804001404E+03 -0.67854410968E+02  0.62853185396E+03  0.66856540586E+03  0.12499977110E+03 0.  0.
          2    1    1    2  501    0  0.13733334513E+03  0.88786640287E+02 -0.20584006523E+03  0.26289474630E+03  0.00000000000E+00 0. -1.
          1    1    1    2  502    0  0.40706668907E+02 -0.20932229318E+02  0.55943358841E+03  0.56130306516E+03  0.00000000000E+00 0. -1.
         22    1    3    3    0    0 -0.85653704451E+02 -0.15549950179E+02  0.46850937850E+03  0.47652848370E+03  0.00000000000E+00 0. -1.
         22    1    3    3    0    0 -0.92386309584E+02 -0.52304460789E+02  0.16002247546E+03  0.19203692215E+03  0.00000000000E+00 0. -1.
</event>
<event>
 7    1  0.6058736E-006  0.5125829E+02  0.7818608E-02  0.1470699E+00
          2   -1    0    0  502    0  0.00000000000E+00  0.00000000000E+00  0.19438799928E+03  0.19438799928E+03  0.00000000000E+00 0. -1.
          1   -1    0    0  501    0 -0.00000000000E+00 -0.00000000000E+00 -0.88966252022E+02  0.88966252022E+02  0.00000000000E+00 0. -1.
         25    2    1    2    0    0  0.15253295505E+02  0.97868155772E+01  0.26633322083E+02  0.12906485856E+03  0.12497983473E+03 0.  0.
          2    1    1    2  501    0  0.40537001417E+02 -0.86950814116E+00 -0.16285761504E+02  0.43694742888E+02  0.00000000000E+00 0. -1.
          1    1    1    2  502    0 -0.55790296922E+02 -0.89173074361E+01  0.95074186683E+02  0.11059464985E+03  0.00000000000E+00 0. -1.
         22    1    3    3    0    0  0.27483021955E+02 -0.48257890809E+02 -0.13864920738E+02  0.57239641405E+02  0.00000000000E+00 0.  1.
         22    1    3    3    0    0 -0.12229726450E+02  0.58044706386E+02  0.40498242821E+02  0.71825217160E+02  0.00000000000E+00 0.  1.
</event>
<event>
 7    1  0.6058736E-006  0.8333016E+02  0.7818608E-02  0.1496679E+00
          2   -1    0    0  502    0  0.00000000000E+00  0.00000000000E+00  0.63327310488E+03  0.63327310488E+03  0.00000000000E+00 0. -1.
          1   -1    0    0  501    0 -0.00000000000E+00 -0.00000000000E+00 -0.89727942279E+02  0.89727942279E+02  0.00000000000E+00 0. -1.
         25    2    1    2    0    0 -0.97014097239E+02  0.27126352695E+02  0.16001080237E+03  0.22666331038E+03  0.12500090130E+03 0.  0.
          2    1    1    2  501    0  0.20739613806E+02  0.12735870290E+01 -0.50568375741E+02  0.54670963315E+02  0.00000000000E+00 0. -1.
          1    1    1    2  502    0  0.76274483433E+02 -0.28399939724E+02  0.43410273598E+03  0.44166677346E+03  0.00000000000E+00 0. -1.
         22    1    3    3    0    0  0.13894058505E+02  0.44234349055E+02  0.31508482059E+02  0.56058067571E+02  0.00000000000E+00 0. -1.
         22    1    3    3    0    0 -0.11090815574E+03 -0.17107996361E+02  0.12850232031E+03  0.17060524281E+03  0.00000000000E+00 0. -1.
</event>
<event>
 7    1  0.6058736E-006  0.1716445E+03  0.7818608E-02  0.1203028E+00
          2   -1    0    0  502    0  0.00000000000E+00  0.00000000000E+00  0.20458781565E+03  0.20458781565E+03  0.00000000000E+00 0. -1.
          1   -1    0    0  501    0 -0.00000000000E+00 -0.00000000000E+00 -0.21414020094E+04  0.21414020094E+04  0.00000000000E+00 0. -1.
         25    2    1    2    0    0  0.16643915100E+03 -0.42648127169E+01 -0.25559217598E+03  0.32965565882E+03  0.12500125342E+03 0.  0.
          2    1    1    2  501    0 -0.12542171391E+03  0.12499626031E+03 -0.18195833778E+04  0.18281789683E+04  0.00000000000E+00 0. -1.
          1    1    1    2  502    0 -0.41017437096E+02 -0.12073144760E+03  0.13836135998E+03  0.18815519796E+03  0.00000000000E+00 0. -1.
         22    1    3    3    0    0  0.77245575538E+02 -0.50725358007E+02 -0.61348840819E+02  0.11092168929E+03  0.00000000000E+00 0.  1.
         22    1    3    3    0    0  0.89193575464E+02  0.46460545290E+02 -0.19424333516E+03  0.21873396953E+03  0.00000000000E+00 0.  1.
</event>
<event>
 7    1  0.6058736E-006  0.4059772E+02  0.7818608E-02  0.1531619E+00
          2   -1    0    0  502    0  0.00000000000E+00  0.00000000000E+00  0.58150439860E+03  0.58150439860E+03  0.00000000000E+00 0. -1.
          1   -1    0    0  501    0 -0.00000000000E+00 -0.00000000000E+00 -0.90251448953E+03  0.90251448953E+03  0.00000000000E+00 0. -1.
         25    2    1    2    0    0 -0.51462426162E+02  0.25360562014E+02  0.18248156962E+03  0.22850796224E+03  0.12499930458E+03 0.  0.
          2    1    1    2  501    0  0.40081945275E+02  0.63599705591E+01 -0.87827667659E+03  0.87921381484E+03  0.00000000000E+00 0. -1.
          1    1    1    2  502    0  0.11380480887E+02 -0.31720532573E+02  0.37478501605E+03  0.37629711105E+03  0.00000000000E+00 0. -1.
         22    1    3    3    0    0 -0.42584968774E+02 -0.35851079849E+02  0.14703285527E+03  0.15721781076E+03  0.00000000000E+00 0. -1.
         22    1    3    3    0    0 -0.88774573876E+01  0.61211641863E+02  0.35448714347E+02  0.71290151480E+02  0.00000000000E+00 0. -1.
</event>
<event>
 7    1  0.6058736E-006  0.1202399E+03  0.7818608E-02  0.1301626E+00
          2   -1    0    0  502    0  0.00000000000E+00  0.00000000000E+00  0.12822269210E+04  0.12822269210E+04  0.00000000000E+00 0. -1.
          1   -1    0    0  501    0 -0.00000000000E+00 -0.00000000000E+00 -0.11622438198E+03  0.11622438198E+03  0.00000000000E+00 0. -1.
         25    2    1    2    0    0 -0.14841446220E+03  0.11998875224E+02  0.78699616741E+03  0.81065359890E+03  0.12500185717E+03 0.  0.
          2    1    1    2  501    0  0.10225677104E+03 -0.62108111867E+02 -0.66657517267E+02  0.13695652373E+03  0.00000000000E+00 0. -1.
          1    1    1    2  502    0  0.46157691157E+02  0.50109236643E+02  0.44566388891E+03  0.45084118038E+03  0.00000000000E+00 0. -1.
         22    1    3    3    0    0 -0.11324802180E+03 -0.22237989166E+02  0.30399972708E+03  0.32516991969E+03  0.00000000000E+00 0. -1.
         22    1    3    3    0    0 -0.35166440403E+02  0.34236864390E+02  0.48299644033E+03  0.48548367921E+03  0.00000000000E+00 0. -1.
</event>
<event>
 7    1  0.6058736E-006  0.6218316E+02  0.7818608E-02  0.1411542E+00
          2   -1    0    0  502    0  0.00000000000E+00  0.00000000000E+00  0.10375560791E+04  0.10375560791E+04  0.00000000000E+00 0. -1.
          1   -1    0    0  501    0 -0.00000000000E+00 -0.00000000000E+00 -0.36688866486E+03  0.36688866486E+03  0.00000000000E+00 0. -1.
         25    2    1    2    0    0  0.19726962008E+02 -0.30203082234E+02  0.24011519060E+03  0.27309308210E+03  0.12499258989E+03 0.  0.
          2    1    1    2  501    0  0.45558253931E+02  0.25019542032E+02 -0.34708822995E+03  0.35095836128E+03  0.00000000000E+00 0. -1.
          1    1    1    2  502    0 -0.65285215939E+02  0.51835402014E+01  0.77764045364E+03  0.78039330062E+03  0.00000000000E+00 0. -1.
         22    1    3    3    0    0 -0.17160352708E+02  0.24802774593E+01 -0.87314728815E+01  0.19413090945E+02  0.00000000000E+00 0.  1.
         22    1    3    3    0    0  0.36887314716E+02 -0.32683359693E+02  0.24884666348E+03  0.25367999115E+03  0.00000000000E+00 0.  1.
</event>
<event>
 7    1  0.6058736E-006  0.5510524E+02  0.7818608E-02  0.1518445E+00
          2   -1    0    0  502    0  0.00000000000E+00  0.00000000000E+00  0.15066195525E+03  0.15066195525E+03  0.00000000000E+00 0. -1.
          1   -1    0    0  501    0 -0.00000000000E+00 -0.00000000000E+00 -0.18362572054E+03  0.18362572054E+03  0.00000000000E+00 0. -1.
         25    2    1    2    0    0  0.64685396674E+00  0.58466464883E+02 -0.95997018000E+01  0.13833135551E+03  0.12499865482E+03 0.  0.
          2    1    1    2  501    0 -0.25567041884E+02 -0.89794871735E+01 -0.98749006259E+02  0.10239956571E+03  0.00000000000E+00 0. -1.
          1    1    1    2  502    0  0.24920187917E+02 -0.49486977710E+02  0.75384942768E+02  0.93556754565E+02  0.00000000000E+00 0. -1.
         22    1    3    3    0    0 -0.38711454726E+02 -0.21052773045E+02  0.14500038356E+02  0.46390161589E+02  0.00000000000E+00 0. -1.
         22    1    3    3    0    0  0.39358308693E+02  0.79519237928E+02 -0.24099740156E+02  0.91941193920E+02  0.00000000000E+00 0. -1.
</event>
<event>
 7    1  0.6058736E-006  0.2252009E+02  0.7818608E-02  0.1714112E+00
          2   -1    0    0  502    0  0.00000000000E+00  0.00000000000E+00  0.21303049845E+03  0.21303049845E+03  0.00000000000E+00 0. -1.
          1   -1    0    0  501    0 -0.00000000000E+00 -0.00000000000E+00 -0.24218160610E+03  0.24218160610E+03  0.00000000000E+00 0. -1.
         25    2    1    2    0    0  0.13241282254E+02 -0.19729597627E+02 -0.17719948667E+03  0.21816001617E+03  0.12501818268E+03 0.  0.
          2    1    1    2  501    0 -0.20786898207E+02 -0.15186577984E+01 -0.41355544202E+02  0.46310716847E+02  0.00000000000E+00 0. -1.
          1    1    1    2  502    0  0.75456159531E+01  0.21248255425E+02  0.18940392323E+03  0.19074137153E+03  0.00000000000E+00 0. -1.
         22    1    3    3    0    0 -0.94143720151E+01 -0.38397483874E+01  0.18180338035E+02  0.20830236657E+02  0.00000000000E+00 0. -1.
         22    1    3    3    0    0  0.22655654269E+02 -0.15889849240E+02 -0.19537982471E+03  0.19732977951E+03  0.00000000000E+00 0. -1.
</event>
<event>
 7    1  0.6058736E-006  0.8398772E+02  0.7818608E-02  0.1488448E+00
          2   -1    0    0  502    0  0.00000000000E+00  0.00000000000E+00  0.24976149332E+03  0.24976149332E+03  0.00000000000E+00 0. -1.
          1   -1    0    0  501    0 -0.00000000000E+00 -0.00000000000E+00 -0.11873637673E+04  0.11873637673E+04  0.00000000000E+00 0. -1.
         25    2    1    2    0    0  0.86290122393E+02 -0.10819638933E+02  0.99211839594E+02  0.18174602746E+03  0.12500231827E+03 0.  0.
          2    1    1    2  501    0 -0.78042724895E+02  0.31029924574E+02 -0.11434510027E+04  0.11465311678E+04  0.00000000000E+00 0. -1.
          1    1    1    2  502    0 -0.82473974983E+01 -0.20210285641E+02  0.10663688913E+03  0.10884806537E+03  0.00000000000E+00 0. -1.
         22    1    3    3    0    0  0.43323541922E+02 -0.47335508932E+02  0.10705753854E+03  0.12481544876E+03  0.00000000000E+00 0. -1.
         22    1    3    3    0    0  0.42966580471E+02  0.36515869999E+02 -0.78456989474E+01  0.56930578700E+02  0.00000000000E+00 0. -1.
</event>
<event>
 7    1  0.6058736E-006  0.1542882E+03  0.7818608E-02  0.1342848E+00
          2   -1    0    0  502    0  0.00000000000E+00  0.00000000000E+00  0.56270400048E+03  0.56270400048E+03  0.00000000000E+00 0. -1.
          1   -1    0    0  501    0 -0.00000000000E+00 -0.00000000000E+00 -0.20258330159E+03  0.20258330159E+03  0.00000000000E+00 0. -1.
         25    2    1    2    0    0  0.13222177986E+03  0.85309005652E+01 -0.20182814265E+02  0.18327095350E+03  0.12500208427E+03 0.  0.
          2    1    1    2  501    0  0.20120757827E+02  0.30789142379E+02 -0.84042940253E+02  0.91738933885E+02  0.00000000000E+00 0. -1.
          1    1    1    2  502    0 -0.15234253769E+03 -0.39320042944E+02  0.46434645340E+03  0.49027741468E+03  0.00000000000E+00 0. -1.
         22    1    3    3    0    0 -0.24440201657E+02 -0.41752430553E+01  0.75478589293E-01  0.24794390668E+02  0.00000000000E+00 0. -1.
         22    1    3    3    0    0  0.15666198152E+03  0.12706143620E+02 -0.20258292854E+02  0.15847656283E+03  0.00000000000E+00 0. -1.
</event>
