<LesHouchesEvents version="3.0">
<header>
<!--
#*********************************************************************
#                                                                    *
#                        MadGraph5_aMC@NLO                           *
#                                                                    *
#                           Going Beyond                             *
#                                                                    *
#                   http://madgraph.hep.uiuc.edu                     *
#                   http://madgraph.phys.ucl.ac.be                   *
#                   http://amcatnlo.cern.ch                          *
#                                                                    *
#                     The MadGraph5_aMC@NLO team                     *
#                                                                    *
#....................................................................*
#                                                                    *
# This file contains all the information necessary to reproduce      *
# the events generated:                                              *
#                                                                    *
# 1. software version                                                *
# 2. proc_card          : code generation info including model       *
# 3. param_card         : model primary parameters in the LH format  *
# 4. run_card           : running parameters (collider and cuts)     *
# 5. pythia_card        : present only if pythia has been run        *
# 6. pgs_card           : present only if pgs has been run           *
# 7. delphes_cards      : present only if delphes has been run       *
#                                                                    *
#                                                                    *
#*********************************************************************
-->
<MGVersion>
3.5.3
</MGVersion>
<MG5ProcCard>
<![CDATA[
#************************************************************
#*                     MadGraph5_aMC@NLO                    *
#*                                                          *
#*                *                       *                 *
#*                  *        * *        *                   *
#*                    * * * * 5 * * * *                     *
#*                  *        * *        *                   *
#*                *                       *                 *
#*                                                          *
#*                                                          *
#*         VERSION 3.5.3                 2023-12-23         *
#*                                                          *
#*    The MadGraph5_aMC@NLO Development Team - Find us at   *
#*    https://server06.fynu.ucl.ac.be/projects/madgraph     *
#*                                                          *
#************************************************************
#*                                                          *
#*               Command File for MadGraph5_aMC@NLO         *
#*                                                          *
#*     run as ./bin/mg5_aMC  filename                       *
#*                                                          *
#************************************************************
set group_subprocesses Auto
set ignore_six_quark_processes False
set low_mem_multicore_nlo_generation False
set complex_mass_scheme False
set include_lepton_initiated_processes False
set gauge unitary
set loop_optimized_output True
set loop_color_flows False
set max_npoint_for_channel 0
set default_unset_couplings 99
set max_t_for_channel 99
set zerowidth_tchannel True
set nlo_mixed_expansion True
import model EWdim6-full
define p = g u c d s u~ c~ d~ s~
define j = g u c d s u~ c~ d~ s~
define l+ = e+ mu+
define l- = e- mu-
define vl = ve vm vt
define vl~ = ve~ vm~ vt~
generate u d > u d h / a z QCD=0 QED=99 NP=2, h > a a QCD=0 QED=99 NP=\
0
output ./mg_processes/signal_1
]]>
</MG5ProcCard>
<MGProcCard>
#*********************************************************************
#                        MadGraph/MadEvent                           *
#                   http://madgraph.hep.uiuc.edu                     *
#                                                                    *
#                          proc_card.dat                             *
#*********************************************************************
#                                                                    *
#            This Files is generated by MADGRAPH 5                   *
#                                                                    *
# WARNING: This Files is generated for MADEVENT (compatibility issue)*
#          This files is NOT a valid MG4 proc_card.dat               *
#          Running this in MG4 will NEVER reproduce the result of MG5*
#                                                                    *
#*********************************************************************
#*********************************************************************
# Process(es) requested : mg2 input                                  *
#*********************************************************************
# Begin PROCESS # This is TAG. Do not modify this line
u d > u d h / a z , h > a a           #Process
# Be carefull the coupling are here in MG5 convention
QCD=0
QED=99
NP=2
QCD=0
QED=99
NP=0
          
end_coup           # End the couplings input

done               # this tells MG there are no more procs
# End PROCESS  # This is TAG. Do not modify this line
#*********************************************************************
# Model information                                                  *
#*********************************************************************
# Begin MODEL  # This is TAG. Do not modify this line
EWdim6-full
# End   MODEL  # This is TAG. Do not modify this line
#*********************************************************************
# Start multiparticle definitions                                    *
#*********************************************************************
# Begin MULTIPARTICLES # This is TAG. Do not modify this line

# End  MULTIPARTICLES # This is TAG. Do not modify this line
</MGProcCard>
<MGRunCard>
<![CDATA[
#*********************************************************************
#                       MadGraph5_aMC@NLO                            *
#                                                                    *
#                     run_card.dat MadEvent                          *
#                                                                    *
#  This file is used to set the parameters of the run.               *
#                                                                    *
#  Some notation/conventions:                                        *
#                                                                    *
#   Lines starting with a '# ' are info or comments                  *
#                                                                    *
#   mind the format:   value    = variable     ! comment             *
#                                                                    *
#   To display more options, you can type the command:               *
#      update full_run_card                                          *
#*********************************************************************


#*******************************
# Running parameters           *
#*******************************

#*********************************************************************
# Tag name for the run (one word)                                    *
#*********************************************************************
  tag_1    = run_tag         ! name of the run

#*********************************************************************
# Number of events and rnd seed                                      *
# Warning: Do not generate more than 1M events in a single run       *
# If you want to run Pythia, avoid more than 50k events in a run.    *
#*********************************************************************
  100  = nevents          ! Number of unweighted events requested
 21 = iseed            ! rnd seed (0=assigned automatically=default)

#*********************************************************************
# Collider type and energy                                           *
# lpp: 0=No PDF, 1=proton, -1=antiproton, 2=photon from proton,      *
#                                         3=photon from electron     *
#*********************************************************************
     1    = lpp1             ! beam 1 type
     1    = lpp2             ! beam 2 type
  6500.0  = ebeam1           ! beam 1 total energy in GeV
  6500.0  = ebeam2           ! beam 2 total energy in GeV

#*********************************************************************
# PDF CHOICE: this automatically fixes also alpha_s and its evol.    *
#*********************************************************************
  nn23lo1 = pdlabel          ! PDF set
  230000  = lhaid            ! if pdlabel=lhapdf, this is the lhapdf number

#*********************************************************************
# Renormalization and factorization scales                           *
#*********************************************************************
   False  = fixed_ren_scale  ! if .true. use fixed ren scale
   False  = fixed_fac_scale  ! if .true. use fixed fac scale
  91.188  = scale            ! fixed ren scale
  91.188  = dsqrt_q2fact1    ! fixed fact scale for pdf1
  91.188  = dsqrt_q2fact2    ! fixed fact scale for pdf2
  -1      = dynamical_scale_choice ! Choose one of the preselected dynamical choices
   1.0    = scalefact        ! scale factor for event-by-event scales

#*********************************************************************
# Type and output format                                             *
#*********************************************************************
  False   = gridpack         ! True = setting up the grid pack
  -1.0    = time_of_flight   ! threshold (in mm) below which the invariant lifetime is not written (-1 means not written)
   3.0    = lhe_version      ! Change the way clustering information pass to shower.
  True    = clusinfo         ! include clustering tag in output
   sum    = event_norm       ! average/sum. Normalization of the weight in the LHEF

#*********************************************************************
# Matching parameter (MLM only)                                      *
#*********************************************************************
  0       = ickkw            ! 0 no matching, 1 MLM
  1.0     = alpsfact         ! scale factor for QCD emission vx
  False   = chcluster        ! cluster only according to channel diag
  4       = asrwgtflavor     ! highest quark flavor for a_s reweight
  False   = auto_ptj_mjj     ! Automatic setting of ptj and mjj if xqcut >0 (turn off for VBF and single top processes)
  0.0     = xqcut            ! minimum kt jet measure between partons

#*********************************************************************
# handling of the helicities:                                        *
#  0: sum over all helicities                                        *
#  1: importance sampling over helicities                            *
#*********************************************************************
  0       = nhel             ! using helicities importance sampling or not.

#*********************************************************************
# Generation bias, check the wiki page below for more information:   *
#  'cp3.irmp.ucl.ac.be/projects/madgraph/wiki/LOEventGenerationBias' *
#*********************************************************************
  None    = bias_module      ! Bias type of bias, [None, ptj_bias, -custom_folder-]
  {}      = bias_parameters  ! Specifies the parameters of the module.


#*******************************
# Parton level cuts definition *
#*******************************

#*********************************************************************
# BW cutoff. Define on/off-shell for "$" and decay                   *
#*********************************************************************
  15.0    = bwcutoff         ! (M+/-bwcutoff*Gamma)

#*********************************************************************
# Apply pt/E/eta/dr/mij/kt_durham cuts on decay products or not
# (note that etmiss/ptll/ptheavy/ht/sorted cuts always apply)
#*********************************************************************
   False  = cut_decays       ! Cut decay products

#*********************************************************************
# Standard Cuts                                                      *
#*********************************************************************
# Minimum and maximum pt's (for max, -1 means no cut)                *
#*********************************************************************
  20.0    = ptj              ! minimum pt for the jets
   0.0    = ptb              ! minimum pt for the b
  10.0    = pta              ! minimum pt for the photons
  10.0    = ptl              ! minimum pt for the charged leptons
   0.0    = misset           ! minimum missing Et (sum of neutrino's momenta)
  -1.0    = ptjmax           ! maximum pt for the jets
  -1.0    = ptbmax           ! maximum pt for the b
  -1.0    = ptamax           ! maximum pt for the photons
  -1.0    = ptlmax           ! maximum pt for the charged leptons
  -1.0    = missetmax        ! maximum missing Et (sum of neutrino's momenta)
   {}     = pt_min_pdg       ! pt cut for other particles (use pdg code). Applied on particle and anti-particle
   {}	  = pt_max_pdg       ! pt cut for other particles (syntax e.g. {6: 100, 25: 50})

#*********************************************************************
# Minimum and maximum E's (in the center of mass frame)              *
#*********************************************************************
   0.0    = ej               ! minimum E for the jets
   0.0    = eb               ! minimum E for the b
   0.0    = ea               ! minimum E for the photons
   0.0    = el               ! minimum E for the charged leptons
  -1.0    = ejmax            ! maximum E for the jets
  -1.0    = ebmax            ! maximum E for the b
  -1.0    = eamax            ! maximum E for the photons
  -1.0    = elmax            ! maximum E for the charged leptons
    {}    = e_min_pdg        ! E cut for other particles (use pdg code). Applied on particle and anti-particle
    {}    = e_max_pdg        ! E cut for other particles (syntax e.g. {6: 100, 25: 50})

#*********************************************************************
# Maximum and minimum absolute rapidity (for max, -1 means no cut)   *
#*********************************************************************
   5.0    = etaj             ! max rap for the jets
  -1.0    = etab             ! max rap for the b
   2.5    = etaa             ! max rap for the photons
   2.5    = etal             ! max rap for the charged leptons
   0.0    = etajmin          ! min rap for the jets
   0.0    = etabmin          ! min rap for the b
   0.0    = etaamin          ! min rap for the photons
   0.0    = etalmin          ! main rap for the charged leptons
    {}    = eta_min_pdg      ! rap cut for other particles (use pdg code). Applied on particle and anti-particle
    {}    = eta_max_pdg      ! rap cut for other particles (syntax e.g. {6: 2.5, 23: 5})

#*********************************************************************
# Minimum and maximum DeltaR distance                                *
#*********************************************************************
   0.4    = drjj             ! min distance between jets
   0.0    = drbb             ! min distance between b's
   0.4    = drll             ! min distance between leptons
   0.4    = draa             ! min distance between gammas
   0.0    = drbj             ! min distance between b and jet
   0.4    = draj             ! min distance between gamma and jet
   0.4    = drjl             ! min distance between jet and lepton
   0.0    = drab             ! min distance between gamma and b
   0.0    = drbl             ! min distance between b and lepton
   0.4    = dral             ! min distance between gamma and lepton
  -1.0    = drjjmax          ! max distance between jets
  -1.0    = drbbmax          ! max distance between b's
  -1.0    = drllmax          ! max distance between leptons
  -1.0    = draamax          ! max distance between gammas
  -1.0    = drbjmax          ! max distance between b and jet
  -1.0    = drajmax          ! max distance between gamma and jet
  -1.0    = drjlmax          ! max distance between jet and lepton
  -1.0    = drabmax          ! max distance between gamma and b
  -1.0    = drblmax          ! max distance between b and lepton
  -1.0    = dralmax          ! max distance between gamma and lepton

#*********************************************************************
# Minimum and maximum invariant mass for pairs                       *
# WARNING: for four lepton final state mmll cut require to have      *
#          different lepton masses for each flavor!                  *
#*********************************************************************
    0.0   = mmjj             ! min invariant mass of a jet pair
    0.0   = mmbb             ! min invariant mass of a b pair
  120.0   = mmaa             ! min invariant mass of gamma gamma pair
    0.0   = mmll             ! min invariant mass of l+l- (same flavour) lepton pair
   -1.0   = mmjjmax          ! max invariant mass of a jet pair
   -1.0   = mmbbmax          ! max invariant mass of a b pair
  130.0   = mmaamax          ! max invariant mass of gamma gamma pair
   -1.0   = mmllmax          ! max invariant mass of l+l- (same flavour) lepton pair
     {}   = mxx_min_pdg      ! min invariant mass of a pair of particles X/X~ (e.g. {6:250})
  {'default': False} = mxx_only_part_antipart ! if True the invariant mass is applied only
                                              ! to pairs of particle/antiparticle and not to pairs of the same pdg codes.

#*********************************************************************
# Minimum and maximum invariant mass for all leptons                 *
#*********************************************************************
   0.0    = mmnl             ! min invariant mass for all leptons (l+- and vl)
  -1.0    = mmnlmax          ! max invariant mass for all leptons (l+- and vl)

#*********************************************************************
# Minimum and maximum pt for 4-momenta sum of leptons                *
#*********************************************************************
   0.0    = ptllmin          ! Minimum pt for 4-momenta sum of leptons(l and vl)
  -1.0    = ptllmax          ! Maximum pt for 4-momenta sum of leptons(l and vl)

#*********************************************************************
# Inclusive cuts                                                     *
#*********************************************************************
   0.0    = ptheavy          ! minimum pt for at least one heavy final state
   0.0    = xptj             ! minimum pt for at least one jet
   0.0    = xptb             ! minimum pt for at least one b
   0.0    = xpta             ! minimum pt for at least one photon
   0.0    = xptl             ! minimum pt for at least one charged lepton

#*********************************************************************
# Control the pt's of the jets sorted by pt                          *
#*********************************************************************
   0.0    = ptj1min          ! minimum pt for the leading jet in pt
   0.0    = ptj2min          ! minimum pt for the second jet in pt
   0.0    = ptj3min          ! minimum pt for the third jet in pt
   0.0    = ptj4min          ! minimum pt for the fourth jet in pt
  -1.0    = ptj1max          ! maximum pt for the leading jet in pt
  -1.0    = ptj2max          ! maximum pt for the second jet in pt
  -1.0    = ptj3max          ! maximum pt for the third jet in pt
  -1.0    = ptj4max          ! maximum pt for the fourth jet in pt
   0      = cutuse           ! reject event if fails any (0) / all (1) jet pt cuts

#*********************************************************************
# Control the pt's of leptons sorted by pt                           *
#*********************************************************************
   0.0    = ptl1min          ! minimum pt for the leading lepton in pt
   0.0    = ptl2min          ! minimum pt for the second lepton in pt
   0.0    = ptl3min          ! minimum pt for the third lepton in pt
   0.0    = ptl4min          ! minimum pt for the fourth lepton in pt
  -1.0    = ptl1max          ! maximum pt for the leading lepton in pt
  -1.0    = ptl2max          ! maximum pt for the second lepton in pt
  -1.0    = ptl3max          ! maximum pt for the third lepton in pt
  -1.0    = ptl4max          ! maximum pt for the fourth lepton in pt

#*********************************************************************
# Control the Ht(k)=Sum of k leading jets                            *
#*********************************************************************
   0.0    = htjmin           ! minimum jet HT=Sum(jet pt)
  -1.0    = htjmax           ! maximum jet HT=Sum(jet pt)
   0.0    = ihtmin           ! inclusive Ht for all partons (including b)
  -1.0    = ihtmax           ! inclusive Ht for all partons (including b)
   0.0    = ht2min           ! minimum Ht for the two leading jets
   0.0    = ht3min           ! minimum Ht for the three leading jets
   0.0    = ht4min           ! minimum Ht for the four leading jets
  -1.0    = ht2max           ! maximum Ht for the two leading jets
  -1.0    = ht3max           ! maximum Ht for the three leading jets
  -1.0    = ht4max           ! maximum Ht for the four leading jets

#*********************************************************************
# Photon-isolation cuts, according to hep-ph/9801442                 *
# When ptgmin=0, all the other parameters are ignored                *
# When ptgmin>0, pta and draj are not going to be used               *
#*********************************************************************
   0.0    = ptgmin           ! Min photon transverse momentum
   0.4    = R0gamma          ! Radius of isolation code
   1.0    = xn               ! n parameter of eq.(3.4) in hep-ph/9801442
   1.0    = epsgamma         ! epsilon_gamma parameter of eq.(3.4) in hep-ph/9801442
  True    = isoEM            ! isolate photons from EM energy (photons and leptons)

#*********************************************************************
# WBF cuts                                                           *
#*********************************************************************
   0.0    = xetamin          ! minimum rapidity for two jets in the WBF case
   0.0    = deltaeta         ! minimum rapidity for two jets in the WBF case

#*********************************************************************
# Turn on either the ktdurham or ptlund cut to activate              *
# CKKW(L) merging with Pythia8 [arXiv:1410.3012, arXiv:1109.4829]    *
#*********************************************************************
  -1.0    = ktdurham
   0.4    = dparameter
  -1.0    = ptlund
   1, 2, 3, 4, 5, 6, 21 = pdgs_for_merging_cut ! PDGs for two cuts above

#*********************************************************************
# maximal pdg code for quark to be considered as a light jet         *
# (otherwise b cuts are applied)                                     *
#*********************************************************************
  4       = maxjetflavor     ! Maximum jet pdg code

#*********************************************************************
# Store info for systematics studies                                 *
# WARNING: Do not use for interference type of computation           *
#*********************************************************************
#         False = use_syst              ! Enable systematics studies # Commented out by MadMiner
#   systematics = systematics_program   ! none, systematics [python], SysCalc [deprecated, C++] # Commented out by MadMiner
#   ['--mur=0.5,1,2', '--muf=0.5,1,2', '--pdf=errorset'] = systematics_arguments ! see: https://cp3.irmp.ucl.ac.be/projects/madgraph/wiki/Systematics#Systematicspythonmodule # Commented out by MadMiner


#*********************************************************************
# MadMiner systematics setup                                         *
#*********************************************************************
False = use_syst
]]>
</MGRunCard>
<slha>
######################################################################
## PARAM_CARD AUTOMATICALY GENERATED BY MG5                       ####
######################################################################
###################################
## INFORMATION FOR DIM6
###################################
BLOCK DIM6 # 
      1 0.000000e+00 # cwwwl2
      2 1.617186e+00 # madminer
      3 0.000000e+00 # cbl2
      4 0.000000e+00 # cpwwwl2
      5 -2.203044e-01 # madminer
      6 0.000000e+00 # cphidl2
      7 0.000000e+00 # cphiwl2
      8 0.000000e+00 # cphibl2
###################################
## INFORMATION FOR MASS
###################################
BLOCK MASS # 
      4 1.270000e+00 # mc
      5 4.700000e+00 # mb
      6 1.720000e+02 # mt
      13 1.056600e-01 # mm
      15 1.777000e+00 # mta
      23 9.118760e+01 # mz
      25 1.250000e+02 # mh
      9000006 1.250000e+02 # mp
      1 0.000000e+00 # d : 0.0
      2 0.000000e+00 # u : 0.0
      3 0.000000e+00 # s : 0.0
      11 0.000000e+00 # e- : 0.0
      12 0.000000e+00 # ve : 0.0
      14 0.000000e+00 # vm : 0.0
      16 0.000000e+00 # vt : 0.0
      21 0.000000e+00 # g : 0.0
      22 0.000000e+00 # a : 0.0
      24 7.982436e+01 # w+ : cmath.sqrt(mz__exp__2/2. + cmath.sqrt(mz__exp__4/4. - (aew*cmath.pi*mz__exp__2)/(gf*sqrt__2)))
###################################
## INFORMATION FOR SMINPUTS
###################################
BLOCK SMINPUTS # 
      1 1.279000e+02 # aewm1
      2 1.166370e-05 # gf
      3 1.300000e-01 # as
###################################
## INFORMATION FOR WOLFENSTEIN
###################################
BLOCK WOLFENSTEIN # 
      1 0.000000e+00 # lamws
      2 0.000000e+00 # aws
      3 0.000000e+00 # rhows
      4 0.000000e+00 # etaws
###################################
## INFORMATION FOR YUKAWA
###################################
BLOCK YUKAWA # 
      4 1.270000e+00 # ymc
      5 4.700000e+00 # ymb
      6 1.720000e+02 # ymt
      13 1.056600e-01 # ymm
      15 1.777000e+00 # ymtau
###################################
## INFORMATION FOR DECAY
###################################
DECAY 6 1.508336e+00 # wt
DECAY 15 2.270000e-12 # wtau
DECAY 23 2.495200e+00 # wz
DECAY 24 2.085000e+00 # ww
DECAY 25 4.070000e-03 # wh
DECAY 9000006 4.070000e-03 # wh1
DECAY 1 0.000000e+00 # d : 0.0
DECAY 2 0.000000e+00 # u : 0.0
DECAY 3 0.000000e+00 # s : 0.0
DECAY 4 0.000000e+00 # c : 0.0
DECAY 5 0.000000e+00 # b : 0.0
DECAY 11 0.000000e+00 # e- : 0.0
DECAY 12 0.000000e+00 # ve : 0.0
DECAY 13 0.000000e+00 # mu- : 0.0
DECAY 14 0.000000e+00 # vm : 0.0
DECAY 16 0.000000e+00 # vt : 0.0
DECAY 21 0.000000e+00 # g : 0.0
DECAY 22 0.000000e+00 # a : 0.0
###################################
## INFORMATION FOR QNUMBERS 9000006
###################################
BLOCK QNUMBERS 9000006 #  h1
      1 0 # 3 times electric charge
      2 1 # number of spin states (2s+1)
      3 1 # colour rep (1: singlet, 3: triplet, 8: octet)
      4 0 # particle/antiparticle distinction (0=own anti)
</slha>
<initrwgt>
<weightgroup name='mg_reweighting' weight_name_strategy='includeIdInWeightName'>
<weight id='SM'>set param_card dim6 2 0.0 # orig: 1.617186
set param_card dim6 5 0.0 # orig: -0.2203044
</weight>
<weight id='morphing_basis_vector_2'>set param_card dim6 2 -1.412419 # orig: 1.617186
set param_card dim6 5 -1.041613 # orig: -0.2203044
</weight>
<weight id='morphing_basis_vector_3'>set param_card dim6 2 -1.30746 # orig: 1.617186
set param_card dim6 5 1.197328 # orig: -0.2203044
</weight>
<weight id='morphing_basis_vector_4'>set param_card dim6 2 0.5652848 # orig: 1.617186
set param_card dim6 5 -1.575672 # orig: -0.2203044
</weight>
<weight id='morphing_basis_vector_5'>set param_card dim6 2 0.8622004 # orig: 1.617186
set param_card dim6 5 1.494319 # orig: -0.2203044
</weight>
</weightgroup>
</initrwgt>
<MGGenerationInfo>
#  Number of Events        :       100
#  Integrated weight (pb)  :       0.0010152
</MGGenerationInfo>
</header>
<init>
2212 2212 6.500000e+03 6.500000e+03 0 0 247000 247000 -3 1
1.015200e-03 1.382600e-05 1.015200e-05 1
<generator name='MadGraph5_aMC@NLO' version='3.5.3'>please cite 1405.0301 </generator>
</init>
<event>
 7      1 +1.0152000e-05 1.33387400e+02 7.81860800e-03 1.30042300e-01
        2 -1    0    0  502    0 +0.0000000000e+00 +0.0000000000e+00 +1.3704952866e+03 1.3704952866e+03 0.0000000000e+00 0.0000e+00 -1.0000e+00
        1 -1    0    0  501    0 -0.0000000000e+00 -0.0000000000e+00 -7.6630280898e+01 7.6630280898e+01 0.0000000000e+00 0.0000e+00 -1.0000e+00
       25  2    1    2    0    0 +1.4505436455e+02 -6.3015197257e+01 +4.9128707853e+02 5.3103610351e+02 1.2499866372e+02 0.0000e+00 0.0000e+00
        2  1    1    2  501    0 -1.3114607470e+02 +2.4964878137e+00 +2.1947667398e+01 1.3299332865e+02 0.0000000000e+00 0.0000e+00 -1.0000e+00
        1  1    1    2  502    0 -1.3908289853e+01 +6.0518709444e+01 +7.8063025973e+02 7.8309613531e+02 0.0000000000e+00 0.0000e+00 -1.0000e+00
       22  1    3    3    0    0 -1.5683707480e+01 +1.5153568529e+01 +7.2297171256e+01 7.5514834908e+01 0.0000000000e+00 0.0000e+00 1.0000e+00
       22  1    3    3    0    0 +1.6073807203e+02 -7.8168765787e+01 +4.1898990728e+02 4.5552126860e+02 0.0000000000e+00 0.0000e+00 1.0000e+00
<rwgt>
<wgt id='SM'> +1.0904843e-05 </wgt>
<wgt id='morphing_basis_vector_2'> +1.0838266e-05 </wgt>
<wgt id='morphing_basis_vector_3'> +1.2169539e-05 </wgt>
<wgt id='morphing_basis_vector_4'> +9.7715225e-06 </wgt>
<wgt id='morphing_basis_vector_5'> +1.1467536e-05 </wgt>
</rwgt>
</event>
<event>
 7      1 +1.0152000e-05 1.91836800e+02 7.81860800e-03 1.27720400e-01
        2 -1    0    0  502    0 +0.0000000000e+00 +0.0000000000e+00 +1.2138597397e+03 1.2138597397e+03 0.0000000000e+00 0.0000e+00 -1.0000e+00
        1 -1    0    0  501    0 -0.0000000000e+00 -0.0000000000e+00 -2.2272166672e+03 2.2272166672e+03 0.0000000000e+00 0.0000e+00 -1.0000e+00
       25  2    1    2    0    0 +3.7094564619e+01 -2.3549681813e+02 +1.6214752540e+02 3.1424844772e+02 1.2500203530e+02 0.0000e+00 0.0000e+00
        2  1    1    2  501    0 -5.1829636413e+01 +1.8387134341e+02 -2.1461816622e+03 2.1546671922e+03 0.0000000000e+00 0.0000e+00 -1.0000e+00
        1  1    1    2  502    0 +1.4735071794e+01 +5.1625474726e+01 +9.7067720938e+02 9.7216076695e+02 0.0000000000e+00 0.0000e+00 -1.0000e+00
       22  1    3    3    0    0 +5.5774481754e+01 -3.2823647316e+01 +2.8193157039e+01 7.0590642028e+01 0.0000000000e+00 0.0000e+00 -1.0000e+00
       22  1    3    3    0    0 -1.8679917135e+01 -2.0267317082e+02 +1.3395436836e+02 2.4365780569e+02 0.0000000000e+00 0.0000e+00 -1.0000e+00
<rwgt>
<wgt id='SM'> +1.1305531e-05 </wgt>
<wgt id='morphing_basis_vector_2'> +1.2005656e-05 </wgt>
<wgt id='morphing_basis_vector_3'> +1.2582477e-05 </wgt>
<wgt id='morphing_basis_vector_4'> +1.0487826e-05 </wgt>
<wgt id='morphing_basis_vector_5'> +1.1125714e-05 </wgt>
</rwgt>
</event>
<event>
 7      1 +1.0152000e-05 5.31909200e+01 7.81860800e-03 1.51406900e-01
        2 -1    0    0  502    0 +0.0000000000e+00 +0.0000000000e+00 +3.0788662408e+03 3.0788662408e+03 0.0000000000e+00 0.0000e+00 -1.0000e+00
        1 -1    0    0  501    0 -0.0000000000e+00 -0.0000000000e+00 -7.0072227844e+00 7.0072227844e+00 0.0000000000e+00 0.0000e+00 -1.0000e+00
       25  2    1    2    0    0 +2.5081545102e+01 +2.3440248741e+01 +8.9338574731e+02 9.0274093895e+02 1.2499832070e+02 0.0000e+00 0.0000e+00
        2  1    1    2  501    0 -6.3533606496e+00 +2.8204484015e+01 +1.0432670892e+02 1.0825858074e+02 0.0000000000e+00 0.0000e+00 -1.0000e+00
        1  1    1    2  502    0 -1.8728184452e+01 -5.1644732756e+01 +2.0741465618e+03 2.0748739439e+03 0.0000000000e+00 0.0000e+00 -1.0000e+00
       22  1    3    3    0    0 -4.3025307494e+01 -1.2215406000e+01 +4.9423105971e+02 4.9625067618e+02 0.0000000000e+00 0.0000e+00 -1.0000e+00
       22  1    3    3    0    0 +6.8106852595e+01 +3.5655654741e+01 +3.9915468761e+02 4.0649026277e+02 0.0000000000e+00 0.0000e+00 -1.0000e+00
<rwgt>
<wgt id='SM'> +1.0118475e-05 </wgt>
<wgt id='morphing_basis_vector_2'> +1.0207796e-05 </wgt>
<wgt id='morphing_basis_vector_3'> +9.9946908e-06 </wgt>
<wgt id='morphing_basis_vector_4'> +1.0274373e-05 </wgt>
<wgt id='morphing_basis_vector_5'> +9.9837780e-06 </wgt>
</rwgt>
</event>
<event>
 7      1 +1.0152000e-05 4.89819000e+01 7.81860800e-03 1.49701500e-01
        2 -1    0    0  502    0 +0.0000000000e+00 +0.0000000000e+00 +2.4286517186e+03 2.4286517186e+03 0.0000000000e+00 0.0000e+00 -1.0000e+00
        1 -1    0    0  501    0 -0.0000000000e+00 -0.0000000000e+00 -6.0309041849e+01 6.0309041849e+01 0.0000000000e+00 0.0000e+00 -1.0000e+00
       25  2    1    2    0    0 -4.3001351242e+01 +5.8385810069e+01 +1.2919380005e+03 1.2999950280e+03 1.2500102640e+02 0.0000e+00 0.0000e+00
        2  1    1    2  501    0 +3.2898348451e+01 -1.2708272071e+01 -5.0222027957e+01 6.1368180696e+01 0.0000000000e+00 0.0000e+00 -1.0000e+00
        1  1    1    2  502    0 +1.0103002791e+01 -4.5677537998e+01 +1.1266267042e+03 1.1275975518e+03 0.0000000000e+00 0.0000e+00 -1.0000e+00
       22  1    3    3    0    0 -1.8262997413e+01 +4.5617660015e+01 +1.2407819710e+03 1.2417545682e+03 0.0000000000e+00 0.0000e+00 -1.0000e+00
       22  1    3    3    0    0 -2.4738353829e+01 +1.2768150054e+01 +5.1156029519e+01 5.8240459838e+01 0.0000000000e+00 0.0000e+00 -1.0000e+00
<rwgt>
<wgt id='SM'> +1.0323748e-05 </wgt>
<wgt id='morphing_basis_vector_2'> +1.0357320e-05 </wgt>
<wgt id='morphing_basis_vector_3'> +1.0561321e-05 </wgt>
<wgt id='morphing_basis_vector_4'> +1.0122176e-05 </wgt>
<wgt id='morphing_basis_vector_5'> +1.0384983e-05 </wgt>
</rwgt>
</event>
<event>
 7      1 +1.0152000e-05 2.27269900e+02 7.81860800e-03 1.27619200e-01
        2 -1    0    0  502    0 +0.0000000000e+00 +0.0000000000e+00 +2.8781056011e+02 2.8781056011e+02 0.0000000000e+00 0.0000e+00 -1.0000e+00
        1 -1    0    0  501    0 -0.0000000000e+00 -0.0000000000e+00 -3.9085986546e+03 3.9085986546e+03 0.0000000000e+00 0.0000e+00 -1.0000e+00
       25  2    1    2    0    0 +1.4153800363e+02 +1.8867694770e+02 -1.8769912841e+02 3.2632699587e+02 1.2500539335e+02 0.0000e+00 0.0000e+00
        2  1    1    2  501    0 -1.6875555883e+02 -1.5189421833e+02 -3.6456189219e+03 3.6526822495e+03 0.0000000000e+00 0.0000e+00 -1.0000e+00
        1  1    1    2  502    0 +2.7217555201e+01 -3.6782729363e+01 +2.1252995588e+02 2.1739996926e+02 0.0000000000e+00 0.0000e+00 -1.0000e+00
       22  1    3    3    0    0 +3.4543979470e+01 -9.0409364116e+00 -5.4078031460e+01 6.4803229359e+01 0.0000000000e+00 0.0000e+00 1.0000e+00
       22  1    3    3    0    0 +1.0699402416e+02 +1.9771788411e+02 -1.3362109695e+02 2.6152376651e+02 0.0000000000e+00 0.0000e+00 1.0000e+00
<rwgt>
<wgt id='SM'> +1.1090545e-05 </wgt>
<wgt id='morphing_basis_vector_2'> +1.2670425e-05 </wgt>
<wgt id='morphing_basis_vector_3'> +1.1298055e-05 </wgt>
<wgt id='morphing_basis_vector_4'> +1.1597955e-05 </wgt>
<wgt id='morphing_basis_vector_5'> +9.7237176e-06 </wgt>
</rwgt>
</event>
<event>
 7      1 +1.0152000e-05 9.59688500e+01 7.81860800e-03 1.31819700e-01
        2 -1    0    0  502    0 +0.0000000000e+00 +0.0000000000e+00 +4.1564261537e+03 4.1564261537e+03 0.0000000000e+00 0.0000e+00 -1.0000e+00
        1 -1    0    0  501    0 -0.0000000000e+00 -0.0000000000e+00 -2.1515676396e+02 2.1515676396e+02 0.0000000000e+00 0.0000e+00 -1.0000e+00
       25  2    1    2    0    0 -2.0731311776e+01 +2.5063409739e+01 +4.9506153851e+02 5.1163375336e+02 1.2500083549e+02 0.0000e+00 0.0000e+00
        2  1    1    2  501    0 +9.4169592165e+01 -2.5483621894e+01 -1.9497822607e+02 2.1802255781e+02 0.0000000000e+00 0.0000e+00 -1.0000e+00
        1  1    1    2  502    0 -7.3438280389e+01 +4.2021215455e-01 +3.6411860772e+03 3.6419266064e+03 0.0000000000e+00 0.0000e+00 -1.0000e+00
       22  1    3    3    0    0 +4.9260534037e+01 +3.0124138510e+01 +2.5923656447e+02 2.6558926991e+02 0.0000000000e+00 0.0000e+00 -1.0000e+00
       22  1    3    3    0    0 -6.9991845813e+01 -5.0607287709e+00 +2.3582497404e+02 2.4604448345e+02 0.0000000000e+00 0.0000e+00 -1.0000e+00
<rwgt>
<wgt id='SM'> +1.0184900e-05 </wgt>
<wgt id='morphing_basis_vector_2'> +1.0113240e-05 </wgt>
<wgt id='morphing_basis_vector_3'> +1.0294904e-05 </wgt>
<wgt id='morphing_basis_vector_4'> +1.0051749e-05 </wgt>
<wgt id='morphing_basis_vector_5'> +1.0299034e-05 </wgt>
</rwgt>
</event>
<event>
 7      1 +1.0152000e-05 2.24723700e+02 7.81860800e-03 1.18619200e-01
        2 -1    0    0  502    0 +0.0000000000e+00 +0.0000000000e+00 +1.8922905700e+03 1.8922905700e+03 0.0000000000e+00 0.0000e+00 -1.0000e+00
        1 -1    0    0  501    0 -0.0000000000e+00 -0.0000000000e+00 -1.0098712896e+02 1.0098712896e+02 0.0000000000e+00 0.0000e+00 -1.0000e+00
       25  2    1    2    0    0 +2.2153108313e+02 +6.2112303352e+01 +5.8035719305e+02 6.3669193178e+02 1.2501274115e+02 0.0000e+00 0.0000e+00
        2  1    1    2  501    0 -1.6238610935e+02 -1.6321029501e+02 +1.2048628122e+02 2.5985340650e+02 0.0000000000e+00 0.0000e+00 -1.0000e+00
        1  1    1    2  502    0 -5.9144973779e+01 +1.0109799166e+02 +1.0904599668e+03 1.0967323607e+03 0.0000000000e+00 0.0000e+00 -1.0000e+00
       22  1    3    3    0    0 +5.3039987424e+01 -3.8553160605e+01 +1.4492579592e+02 1.5906939612e+02 0.0000000000e+00 0.0000e+00 1.0000e+00
       22  1    3    3    0    0 +1.6849109571e+02 +1.0066546396e+02 +4.3543139713e+02 4.7762253566e+02 0.0000000000e+00 0.0000e+00 1.0000e+00
<rwgt>
<wgt id='SM'> +1.1859924e-05 </wgt>
<wgt id='morphing_basis_vector_2'> +1.0864387e-05 </wgt>
<wgt id='morphing_basis_vector_3'> +1.5723562e-05 </wgt>
<wgt id='morphing_basis_vector_4'> +8.4102921e-06 </wgt>
<wgt id='morphing_basis_vector_5'> +1.4400356e-05 </wgt>
</rwgt>
</event>
<event>
 7      1 +1.0152000e-05 9.74471000e+01 7.81860800e-03 1.29383500e-01
        2 -1    0    0  502    0 +0.0000000000e+00 +0.0000000000e+00 +3.1716129362e+01 3.1716129362e+01 0.0000000000e+00 0.0000e+00 -1.0000e+00
        1 -1    0    0  501    0 -0.0000000000e+00 -0.0000000000e+00 -1.5203226781e+03 1.5203226781e+03 0.0000000000e+00 0.0000e+00 -1.0000e+00
       25  2    1    2    0    0 +1.1810195921e+01 +3.9270153185e+01 -3.5948381287e+02 3.8279724921e+02 1.2499398638e+02 0.0000e+00 0.0000e+00
        2  1    1    2  501    0 -6.1863472141e+01 +7.5291755297e+01 -9.2327531524e+02 9.2840360045e+02 0.0000000000e+00 0.0000e+00 -1.0000e+00
        1  1    1    2  502    0 +5.0053276220e+01 -1.1456190848e+02 -2.0584742061e+02 2.4083795778e+02 0.0000000000e+00 0.0000e+00 -1.0000e+00
       22  1    3    3    0    0 +4.5500856732e+01 +2.5468961175e+01 -3.3473977397e+02 3.3877678820e+02 0.0000000000e+00 0.0000e+00 -1.0000e+00
       22  1    3    3    0    0 -3.3690660811e+01 +1.3801192009e+01 -2.4744038903e+01 4.4020461015e+01 0.0000000000e+00 0.0000e+00 -1.0000e+00
<rwgt>
<wgt id='SM'> +1.0106650e-05 </wgt>
<wgt id='morphing_basis_vector_2'> +1.0331133e-05 </wgt>
<wgt id='morphing_basis_vector_3'> +9.8603037e-06 </wgt>
<wgt id='morphing_basis_vector_4'> +1.0445681e-05 </wgt>
<wgt id='morphing_basis_vector_5'> +9.8012361e-06 </wgt>
</rwgt>
</event>
<event>
 7      1 +1.0152000e-05 7.67547400e+01 7.81860800e-03 1.38140600e-01
        2 -1    0    0  502    0 +0.0000000000e+00 +0.0000000000e+00 +2.0403802952e+02 2.0403802952e+02 0.0000000000e+00 0.0000e+00 -1.0000e+00
        1 -1    0    0  501    0 -0.0000000000e+00 -0.0000000000e+00 -1.6118183851e+02 1.6118183851e+02 0.0000000000e+00 0.0000e+00 -1.0000e+00
       25  2    1    2    0    0 -4.4515411543e+01 +4.7112029860e+01 +3.5743420457e+01 1.4531669211e+02 1.2505272359e+02 0.0000e+00 0.0000e+00
        2  1    1    2  501    0 +8.1165531096e+01 -8.1037343651e+00 -8.2185232899e+01 1.1579260104e+02 0.0000000000e+00 0.0000e+00 -1.0000e+00
        1  1    1    2  502    0 -3.6650119553e+01 -3.9008295495e+01 +8.9298003452e+01 1.0411057488e+02 0.0000000000e+00 0.0000e+00 -1.0000e+00
       22  1    3    3    0    0 +3.9355416982e+01 +3.1295926855e+01 -5.3947974400e+00 5.0570621144e+01 0.0000000000e+00 0.0000e+00 -1.0000e+00
       22  1    3    3    0    0 -8.3870828525e+01 +1.5816103006e+01 +4.1138217897e+01 9.4746070966e+01 0.0000000000e+00 0.0000e+00 -1.0000e+00
<rwgt>
<wgt id='SM'> +1.0285222e-05 </wgt>
<wgt id='morphing_basis_vector_2'> +1.0053630e-05 </wgt>
<wgt id='morphing_basis_vector_3'> +1.0688166e-05 </wgt>
<wgt id='morphing_basis_vector_4'> +9.8199891e-06 </wgt>
<wgt id='morphing_basis_vector_5'> +1.0675015e-05 </wgt>
</rwgt>
</event>
<event>
 7      1 +1.0152000e-05 4.64775500e+01 7.81860800e-03 1.50700500e-01
        2 -1    0    0  502    0 +0.0000000000e+00 +0.0000000000e+00 +1.8513272787e+02 1.8513272787e+02 0.0000000000e+00 0.0000e+00 -1.0000e+00
        1 -1    0    0  501    0 -0.0000000000e+00 -0.0000000000e+00 -4.5513433051e+02 4.5513433051e+02 0.0000000000e+00 0.0000e+00 -1.0000e+00
       25  2    1    2    0    0 +3.4379865815e+01 -2.9997748990e+01 -1.9114157028e+02 2.3289345793e+02 1.2498969054e+02 0.0000e+00 0.0000e+00
        2  1    1    2  501    0 -4.5033761730e+00 +4.7664028249e+01 -2.3888113613e+02 2.4363156032e+02 0.0000000000e+00 0.0000e+00 -1.0000e+00
        1  1    1    2  502    0 -2.9876489642e+01 -1.7666279259e+01 +1.6002110376e+02 1.6374204013e+02 0.0000000000e+00 0.0000e+00 -1.0000e+00
       22  1    3    3    0    0 -3.8741193938e+01 +1.1260561747e+01 -2.7059167823e+01 4.8578585013e+01 0.0000000000e+00 0.0000e+00 -1.0000e+00
       22  1    3    3    0    0 +7.3121059753e+01 -4.1258310737e+01 -1.6408240245e+02 1.8431487292e+02 0.0000000000e+00 0.0000e+00 -1.0000e+00
<rwgt>
<wgt id='SM'> +1.0187226e-05 </wgt>
<wgt id='morphing_basis_vector_2'> +1.0337247e-05 </wgt>
<wgt id='morphing_basis_vector_3'> +1.0117885e-05 </wgt>
<wgt id='morphing_basis_vector_4'> +1.0319394e-05 </wgt>
<wgt id='morphing_basis_vector_5'> +1.0014264e-05 </wgt>
</rwgt>
</event>
<event>
 7      1 +1.0152000e-05 2.97687900e+02 7.81860800e-03 1.28327100e-01
        2 -1    0    0  502    0 +0.0000000000e+00 +0.0000000000e+00 +1.1787142938e+03 1.1787142938e+03 0.0000000000e+00 0.0000e+00 -1.0000e+00
        1 -1    0    0  501    0 -0.0000000000e+00 -0.0000000000e+00 -5.0241487828e+02 5.0241487828e+02 0.0000000000e+00 0.0000e+00 -1.0000e+00
       25  2    1    2    0    0 +2.9988182811e+02 -9.6231128526e+01 -2.6959715079e+02 4.3300930826e+02 1.2499958558e+02 0.0000e+00 0.0000e+00
        2  1    1    2  501    0 -1.0380719275e+01 +3.0963437431e+01 -1.2896843585e+02 1.3303890873e+02 0.0000000000e+00 0.0000e+00 -1.0000e+00
        1  1    1    2  502    0 -2.8950110884e+02 +6.5267691096e+01 +1.0748650021e+03 1.1150809551e+03 0.0000000000e+00 0.0000e+00 -1.0000e+00
       22  1    3    3    0    0 +1.1643345087e+02 +5.2188378557e+00 -4.2778198011e+01 1.2415296604e+02 0.0000000000e+00 0.0000e+00 1.0000e+00
       22  1    3    3    0    0 +1.8344837724e+02 -1.0144996638e+02 -2.2681895278e+02 3.0885634223e+02 0.0000000000e+00 0.0000e+00 1.0000e+00
<rwgt>
<wgt id='SM'> +1.2275048e-05 </wgt>
<wgt id='morphing_basis_vector_2'> +1.5746026e-05 </wgt>
<wgt id='morphing_basis_vector_3'> +1.3027947e-05 </wgt>
<wgt id='morphing_basis_vector_4'> +1.3106222e-05 </wgt>
<wgt id='morphing_basis_vector_5'> +9.5521632e-06 </wgt>
</rwgt>
</event>
<event>
 7      1 +1.0152000e-05 7.13393600e+01 7.81860800e-03 1.37064600e-01
        2 -1    0    0  502    0 +0.0000000000e+00 +0.0000000000e+00 +6.7880108681e+01 6.7880108681e+01 0.0000000000e+00 0.0000e+00 -1.0000e+00
        1 -1    0    0  501    0 -0.0000000000e+00 -0.0000000000e+00 -2.1965975137e+03 2.1965975137e+03 0.0000000000e+00 0.0000e+00 -1.0000e+00
       25  2    1    2    0    0 +9.0308968940e+01 +9.0941672706e+01 -5.8511714112e+02 6.1189325408e+02 1.2500075138e+02 0.0000e+00 0.0000e+00
        2  1    1    2  501    0 -3.1257917526e+01 -5.4585677673e+01 -1.5751456119e+03 1.5764010760e+03 0.0000000000e+00 0.0000e+00 -1.0000e+00
        1  1    1    2  502    0 -5.9051051415e+01 -3.6355995033e+01 +3.1545348016e+01 7.6183292325e+01 0.0000000000e+00 0.0000e+00 -1.0000e+00
       22  1    3    3    0    0 +6.0398836531e+01 +9.0313690889e+01 -2.1815186350e+02 2.4371052042e+02 0.0000000000e+00 0.0000e+00 1.0000e+00
       22  1    3    3    0    0 +2.9910132409e+01 +6.2798181792e-01 -3.6696527762e+02 3.6818273366e+02 0.0000000000e+00 0.0000e+00 1.0000e+00
<rwgt>
<wgt id='SM'> +1.0552961e-05 </wgt>
<wgt id='morphing_basis_vector_2'> +1.0755679e-05 </wgt>
<wgt id='morphing_basis_vector_3'> +1.1010761e-05 </wgt>
<wgt id='morphing_basis_vector_4'> +1.0229529e-05 </wgt>
<wgt id='morphing_basis_vector_5'> +1.0535974e-05 </wgt>
</rwgt>
</event>
<event>
 7      1 +1.0152000e-05 1.03462600e+02 7.81860800e-03 1.40326000e-01
        2 -1    0    0  502    0 +0.0000000000e+00 +0.0000000000e+00 +1.3014062511e+03 1.3014062511e+03 0.0000000000e+00 0.0000e+00 -1.0000e+00
        1 -1    0    0  501    0 -0.0000000000e+00 -0.0000000000e+00 -2.4428072274e+02 2.4428072274e+02 0.0000000000e+00 0.0000e+00 -1.0000e+00
       25  2    1    2    0    0 -8.7238747572e+01 -4.4336488511e+01 -1.7970426203e+01 1.5976410495e+02 1.2500123888e+02 0.0000e+00 0.0000e+00
        2  1    1    2  501    0 -1.5427216589e+01 +2.9547476644e+01 -1.5141155882e+02 1.5503713275e+02 0.0000000000e+00 0.0000e+00 -1.0000e+00
        1  1    1    2  502    0 +1.0266596416e+02 +1.4789011866e+01 +1.2265075134e+03 1.2308857362e+03 0.0000000000e+00 0.0000e+00 -1.0000e+00
       22  1    3    3    0    0 -5.1773270420e+01 +1.7749623273e+01 -5.6399080640e+01 7.8589929084e+01 0.0000000000e+00 0.0000e+00 1.0000e+00
       22  1    3    3    0    0 -3.5465477152e+01 -6.2086111784e+01 +3.8428654437e+01 8.1174175868e+01 0.0000000000e+00 0.0000e+00 1.0000e+00
<rwgt>
<wgt id='SM'> +1.0359174e-05 </wgt>
<wgt id='morphing_basis_vector_2'> +1.0317339e-05 </wgt>
<wgt id='morphing_basis_vector_3'> +1.0715442e-05 </wgt>
<wgt id='morphing_basis_vector_4'> +1.0017514e-05 </wgt>
<wgt id='morphing_basis_vector_5'> +1.0541209e-05 </wgt>
</rwgt>
</event>
<event>
 7      1 +1.0152000e-05 8.47542100e+01 7.81860800e-03 1.33761100e-01
        2 -1    0    0  502    0 +0.0000000000e+00 +0.0000000000e+00 +8.7012830978e+02 8.7012830978e+02 0.0000000000e+00 0.0000e+00 -1.0000e+00
        1 -1    0    0  501    0 -0.0000000000e+00 -0.0000000000e+00 -3.0011081249e+02 3.0011081249e+02 0.0000000000e+00 0.0000e+00 -1.0000e+00
       25  2    1    2    0    0 -6.5419310673e+01 -6.2248132548e+01 +2.4065014758e+02 2.8581959573e+02 1.2500332619e+02 0.0000e+00 0.0000e+00
        2  1    1    2  501    0 +8.5172472574e+01 -4.9719942151e+00 -2.6887599854e+02 2.8208752791e+02 0.0000000000e+00 0.0000e+00 -1.0000e+00
        1  1    1    2  502    0 -1.9753161901e+01 +6.7220126763e+01 +5.9824334826e+02 6.0233199863e+02 0.0000000000e+00 0.0000e+00 -1.0000e+00
       22  1    3    3    0    0 -1.1693710315e+01 +3.6478873890e+01 +9.0388412424e+01 9.8170852098e+01 0.0000000000e+00 0.0000e+00 1.0000e+00
       22  1    3    3    0    0 -5.3725600358e+01 -9.8727006438e+01 +1.5026173515e+02 1.8764874363e+02 0.0000000000e+00 0.0000e+00 1.0000e+00
<rwgt>
<wgt id='SM'> +1.0247599e-05 </wgt>
<wgt id='morphing_basis_vector_2'> +1.0702064e-05 </wgt>
<wgt id='morphing_basis_vector_3'> +1.0024330e-05 </wgt>
<wgt id='morphing_basis_vector_4'> +1.0662301e-05 </wgt>
<wgt id='morphing_basis_vector_5'> +9.7257918e-06 </wgt>
</rwgt>
</event>
<event>
 7      1 +1.0152000e-05 1.51257500e+02 7.81860800e-03 1.28250300e-01
        2 -1    0    0  502    0 +0.0000000000e+00 +0.0000000000e+00 +1.1575142503e+03 1.1575142503e+03 0.0000000000e+00 0.0000e+00 -1.0000e+00
        1 -1    0    0  501    0 -0.0000000000e+00 -0.0000000000e+00 -1.7884801674e+03 1.7884801674e+03 0.0000000000e+00 0.0000e+00 -1.0000e+00
       25  2    1    2    0    0 +8.0730582649e+01 +4.5805819544e+01 +1.3115840899e+02 2.0359529434e+02 1.2503165819e+02 0.0000e+00 0.0000e+00
        2  1    1    2  501    0 -1.4547179993e+02 -4.5618112829e+01 -1.7478817018e+03 1.7545180251e+03 0.0000000000e+00 0.0000e+00 -1.0000e+00
        1  1    1    2  502    0 +6.4741217278e+01 -1.8770671500e-01 +9.8575737576e+02 9.8788109826e+02 0.0000000000e+00 0.0000e+00 -1.0000e+00
       22  1    3    3    0    0 +8.8532772338e+01 +2.2776277286e+01 +2.5119112367e+01 9.4803904935e+01 0.0000000000e+00 0.0000e+00 -1.0000e+00
       22  1    3    3    0    0 -7.8021896893e+00 +2.3029542258e+01 +1.0603929663e+02 1.0879138941e+02 0.0000000000e+00 0.0000e+00 -1.0000e+00
<rwgt>
<wgt id='SM'> +1.0254398e-05 </wgt>
<wgt id='morphing_basis_vector_2'> +1.0511256e-05 </wgt>
<wgt id='morphing_basis_vector_3'> +1.0200756e-05 </wgt>
<wgt id='morphing_basis_vector_4'> +1.0420320e-05 </wgt>
<wgt id='morphing_basis_vector_5'> +9.9853110e-06 </wgt>
</rwgt>
</event>
<event>
 7      1 +1.0152000e-05 8.12307800e+01 7.81860800e-03 1.39357700e-01
        2 -1    0    0  502    0 +0.0000000000e+00 +0.0000000000e+00 +2.0826375806e+02 2.0826375806e+02 0.0000000000e+00 0.0000e+00 -1.0000e+00
        1 -1    0    0  501    0 -0.0000000000e+00 -0.0000000000e+00 -8.6066544883e+02 8.6066544883e+02 0.0000000000e+00 0.0000e+00 -1.0000e+00
       25  2    1    2    0    0 -2.4211974647e+01 +2.7310868836e+01 -4.2567512833e+02 4.4514956015e+02 1.2500685083e+02 0.0000e+00 0.0000e+00
        2  1    1    2  501    0 -2.4887791621e+01 +3.8502914458e+01 -4.1544747920e+02 4.1796947804e+02 0.0000000000e+00 0.0000e+00 -1.0000e+00
        1  1    1    2  502    0 +4.9099766268e+01 -6.5813783294e+01 +1.8872091676e+02 2.0581016871e+02 0.0000000000e+00 0.0000e+00 -1.0000e+00
       22  1    3    3    0    0 +4.9103723475e+01 +2.5483896870e+01 -2.1781689917e+02 2.2473274399e+02 0.0000000000e+00 0.0000e+00 -1.0000e+00
       22  1    3    3    0    0 -7.3315698121e+01 +1.8269719662e+00 -2.0785822916e+02 2.2041681616e+02 0.0000000000e+00 0.0000e+00 -1.0000e+00
<rwgt>
<wgt id='SM'> +1.0148336e-05 </wgt>
<wgt id='morphing_basis_vector_2'> +1.0125541e-05 </wgt>
<wgt id='morphing_basis_vector_3'> +1.0162038e-05 </wgt>
<wgt id='morphing_basis_vector_4'> +1.0126047e-05 </wgt>
<wgt id='morphing_basis_vector_5'> +1.0176574e-05 </wgt>
</rwgt>
</event>
<event>
 7      1 +1.0152000e-05 1.10221000e+02 7.81860800e-03 1.44490700e-01
        2 -1    0    0  502    0 +0.0000000000e+00 +0.0000000000e+00 +1.1914830692e+03 1.1914830692e+03 0.0000000000e+00 0.0000e+00 -1.0000e+00
        1 -1    0    0  501    0 -0.0000000000e+00 -0.0000000000e+00 -1.3719246669e+02 1.3719246669e+02 0.0000000000e+00 0.0000e+00 -1.0000e+00
       25  2    1    2    0    0 -4.5717287588e+01 +8.0049739485e+01 +1.9667273772e+02 2.5060523207e+02 1.2499914160e+02 0.0000e+00 0.0000e+00
        2  1    1    2  501    0 -1.9661307736e+01 +1.1455162606e+01 -1.0574490984e+02 1.0816549232e+02 0.0000000000e+00 0.0000e+00 -1.0000e+00
        1  1    1    2  502    0 +6.5378595324e+01 -9.1504902091e+01 +9.6336277461e+02 9.6990481148e+02 0.0000000000e+00 0.0000e+00 -1.0000e+00
       22  1    3    3    0    0 -8.4823688604e+01 +6.6583589849e+01 +1.7024253537e+02 2.0152159546e+02 0.0000000000e+00 0.0000e+00 -1.0000e+00
       22  1    3    3    0    0 +3.9106401016e+01 +1.3466149636e+01 +2.6430202349e+01 4.9083636608e+01 0.0000000000e+00 0.0000e+00 -1.0000e+00
<rwgt>
<wgt id='SM'> +1.0309743e-05 </wgt>
<wgt id='morphing_basis_vector_2'> +1.0517612e-05 </wgt>
<wgt id='morphing_basis_vector_3'> +1.0381330e-05 </wgt>
<wgt id='morphing_basis_vector_4'> +1.0337636e-05 </wgt>
<wgt id='morphing_basis_vector_5'> +1.0136636e-05 </wgt>
</rwgt>
</event>
<event>
 7      1 +1.0152000e-05 1.33119900e+02 7.81860800e-03 1.28330700e-01
        2 -1    0    0  502    0 +0.0000000000e+00 +0.0000000000e+00 +3.2071208591e+02 3.2071208591e+02 0.0000000000e+00 0.0000e+00 -1.0000e+00
        1 -1    0    0  501    0 -0.0000000000e+00 -0.0000000000e+00 -1.7910764643e+03 1.7910764643e+03 0.0000000000e+00 0.0000e+00 -1.0000e+00
       25  2    1    2    0    0 +1.8462655649e+02 -7.1947702012e+01 -1.0376613016e+02 2.5623406861e+02 1.2500020384e+02 0.0000e+00 0.0000e+00
        2  1    1    2  501    0 -6.1780157994e+01 +3.8895985417e+01 -1.5936347684e+03 1.5953060712e+03 0.0000000000e+00 0.0000e+00 -1.0000e+00
        1  1    1    2  502    0 -1.2284639850e+02 +3.3051716595e+01 +2.2703652023e+02 2.6024841039e+02 0.0000000000e+00 0.0000e+00 -1.0000e+00
       22  1    3    3    0    0 +1.4773498342e+02 -8.1719213804e+01 -2.7640591494e+01 1.7107792823e+02 0.0000000000e+00 0.0000e+00 1.0000e+00
       22  1    3    3    0    0 +3.6891573071e+01 +9.7715117916e+00 -7.6125538666e+01 8.5156140375e+01 0.0000000000e+00 0.0000e+00 1.0000e+00
<rwgt>
<wgt id='SM'> +1.0978023e-05 </wgt>
<wgt id='morphing_basis_vector_2'> +1.1918069e-05 </wgt>
<wgt id='morphing_basis_vector_3'> +1.1512889e-05 </wgt>
<wgt id='morphing_basis_vector_4'> +1.0909018e-05 </wgt>
<wgt id='morphing_basis_vector_5'> +1.0298584e-05 </wgt>
</rwgt>
</event>
<event>
 7      1 +1.0152000e-05 6.04775600e+01 7.81860800e-03 1.48414500e-01
        2 -1    0    0  502    0 +0.0000000000e+00 +0.0000000000e+00 +1.2976898983e+03 1.2976898983e+03 0.0000000000e+00 0.0000e+00 -1.0000e+00
        1 -1    0    0  501    0 -0.0000000000e+00 -0.0000000000e+00 -7.1004153769e+02 7.1004153769e+02 0.0000000000e+00 0.0000e+00 -1.0000e+00
       25  2    1    2    0    0 +7.7901160673e+01 +4.7399160482e+01 -1.7505231892e+02 2.3362842584e+02 1.2499462291e+02 0.0000e+00 0.0000e+00
        2  1    1    2  501    0 -2.8616639926e+01 -1.2533532729e+01 -5.0449936562e+02 5.0546573716e+02 0.0000000000e+00 0.0000e+00 -1.0000e+00
        1  1    1    2  502    0 -4.9284520748e+01 -3.4865627753e+01 +1.2672000451e+03 1.2686372730e+03 0.0000000000e+00 0.0000e+00 -1.0000e+00
       22  1    3    3    0    0 -2.5537934521e+01 -1.5927640968e+01 -5.6557542490e+01 6.4067397785e+01 0.0000000000e+00 0.0000e+00 -1.0000e+00
       22  1    3    3    0    0 +1.0343909519e+02 +6.3326801450e+01 -1.1849477643e+02 1.6956102806e+02 0.0000000000e+00 0.0000e+00 -1.0000e+00
<rwgt>
<wgt id='SM'> +1.0307364e-05 </wgt>
<wgt id='morphing_basis_vector_2'> +1.0467796e-05 </wgt>
<wgt id='morphing_basis_vector_3'> +1.0414245e-05 </wgt>
<wgt id='morphing_basis_vector_4'> +1.0281546e-05 </wgt>
<wgt id='morphing_basis_vector_5'> +1.0193721e-05 </wgt>
</rwgt>
</event>
<event>
 7      1 +1.0152000e-05 3.20549900e+01 7.81860800e-03 1.63472100e-01
        2 -1    0    0  502    0 +0.0000000000e+00 +0.0000000000e+00 +5.3617254219e+01 5.3617254219e+01 0.0000000000e+00 0.0000e+00 -1.0000e+00
        1 -1    0    0  501    0 -0.0000000000e+00 -0.0000000000e+00 -1.7723638287e+02 1.7723638287e+02 0.0000000000e+00 0.0000e+00 -1.0000e+00
       25  2    1    2    0    0 +2.6580631294e+01 +8.6093278827e+00 -1.0702924516e+02 1.6691817582e+02 1.2500307041e+02 0.0000e+00 0.0000e+00
        2  1    1    2  501    0 -8.8762468964e+00 +2.0812304301e+01 +5.2677908601e+00 2.3231215849e+01 0.0000000000e+00 0.0000e+00 -1.0000e+00
        1  1    1    2  502    0 -1.7704384398e+01 -2.9421632184e+01 -2.1857674354e+01 4.0704245423e+01 0.0000000000e+00 0.0000e+00 -1.0000e+00
       22  1    3    3    0    0 +5.5359375278e+00 +4.8765693097e+00 -1.3304462363e+02 1.3324901279e+02 0.0000000000e+00 0.0000e+00 -1.0000e+00
       22  1    3    3    0    0 +2.1044693767e+01 +3.7327585729e+00 +2.6015378470e+01 3.3669163031e+01 0.0000000000e+00 0.0000e+00 -1.0000e+00
<rwgt>
<wgt id='SM'> +9.8973325e-06 </wgt>
<wgt id='morphing_basis_vector_2'> +9.8946827e-06 </wgt>
<wgt id='morphing_basis_vector_3'> +9.5311456e-06 </wgt>
<wgt id='morphing_basis_vector_4'> +1.0256354e-05 </wgt>
<wgt id='morphing_basis_vector_5'> +9.7780088e-06 </wgt>
</rwgt>
</event>
<event>
 7      1 +1.0152000e-05 1.23105300e+02 7.81860800e-03 1.31291200e-01
        2 -1    0    0  502    0 +0.0000000000e+00 +0.0000000000e+00 +1.7761534188e+03 1.7761534188e+03 0.0000000000e+00 0.0000e+00 -1.0000e+00
        1 -1    0    0  501    0 -0.0000000000e+00 -0.0000000000e+00 -3.9177166521e+01 3.9177166521e+01 0.0000000000e+00 0.0000e+00 -1.0000e+00
       25  2    1    2    0    0 +8.3510282252e+00 +1.3485316292e+02 +1.0972646659e+03 1.1125961778e+03 1.2500157034e+02 0.0000e+00 0.0000e+00
        2  1    1    2  501    0 +5.1502705370e+01 -3.0856062219e+01 +8.9988774884e+00 6.0709184084e+01 0.0000000000e+00 0.0000e+00 -1.0000e+00
        1  1    1    2  502    0 -5.9853733595e+01 -1.0399710070e+02 +6.3071270892e+02 6.4202522347e+02 0.0000000000e+00 0.0000e+00 -1.0000e+00
       22  1    3    3    0    0 +2.3791967468e+01 +1.5080073166e+02 +7.9553943792e+02 8.1005550160e+02 0.0000000000e+00 0.0000e+00 -1.0000e+00
       22  1    3    3    0    0 -1.5440939243e+01 -1.5947568738e+01 +3.0172522796e+02 3.0254067617e+02 0.0000000000e+00 0.0000e+00 -1.0000e+00
<rwgt>
<wgt id='SM'> +1.1065872e-05 </wgt>
<wgt id='morphing_basis_vector_2'> +1.0866041e-05 </wgt>
<wgt id='morphing_basis_vector_3'> +1.2729531e-05 </wgt>
<wgt id='morphing_basis_vector_4'> +9.5536207e-06 </wgt>
<wgt id='morphing_basis_vector_5'> +1.1916967e-05 </wgt>
</rwgt>
</event>
<event>
 7      1 +1.0152000e-05 1.27858600e+02 7.81860800e-03 1.27004400e-01
        2 -1    0    0  502    0 +0.0000000000e+00 +0.0000000000e+00 +2.3393359801e+03 2.3393359801e+03 0.0000000000e+00 0.0000e+00 -1.0000e+00
        1 -1    0    0  501    0 -0.0000000000e+00 -0.0000000000e+00 -2.1418459738e+02 2.1418459738e+02 0.0000000000e+00 0.0000e+00 -1.0000e+00
       25  2    1    2    0    0 +1.1038594990e+02 -4.1106211857e+01 +3.2713794989e+02 3.6948457791e+02 1.2499934586e+02 0.0000e+00 0.0000e+00
        2  1    1    2  501    0 -6.3582377227e+01 +1.1360121668e+02 -1.7000576593e+02 2.1412593391e+02 0.0000000000e+00 0.0000e+00 -1.0000e+00
        1  1    1    2  502    0 -4.6803572672e+01 -7.2495004824e+01 +1.9680191987e+03 1.9699100657e+03 0.0000000000e+00 0.0000e+00 -1.0000e+00
       22  1    3    3    0    0 +1.8847762686e+01 -1.1685795941e+01 -5.8152951899e+00 2.2926265356e+01 0.0000000000e+00 0.0000e+00 -1.0000e+00
       22  1    3    3    0    0 +9.1538187213e+01 -2.9420415916e+01 +3.3295324508e+02 3.4655831255e+02 0.0000000000e+00 0.0000e+00 -1.0000e+00
<rwgt>
<wgt id='SM'> +1.0303197e-05 </wgt>
<wgt id='morphing_basis_vector_2'> +1.1032939e-05 </wgt>
<wgt id='morphing_basis_vector_3'> +9.9463018e-06 </wgt>
<wgt id='morphing_basis_vector_4'> +1.0970506e-05 </wgt>
<wgt id='morphing_basis_vector_5'> +9.4762696e-06 </wgt>
</rwgt>
</event>
<event>
 7      1 +1.0152000e-05 5.79974200e+01 7.81860800e-03 1.41375900e-01
        2 -1    0    0  502    0 +0.0000000000e+00 +0.0000000000e+00 +8.3362135831e+01 8.3362135831e+01 0.0000000000e+00 0.0000e+00 -1.0000e+00
        1 -1    0    0  501    0 -0.0000000000e+00 -0.0000000000e+00 -2.3384085013e+02 2.3384085013e+02 0.0000000000e+00 0.0000e+00 -1.0000e+00
       25  2    1    2    0    0 +4.0702406236e+01 -1.0205905892e+01 -8.8283222680e+01 1.5867976272e+02 1.2499797320e+02 0.0000e+00 0.0000e+00
        2  1    1    2  501    0 -4.5261507024e+01 -4.7612047633e+01 -7.4404233332e+01 9.9254728027e+01 0.0000000000e+00 0.0000e+00 -1.0000e+00
        1  1    1    2  502    0 +4.5591007883e+00 +5.7817953525e+01 +1.2208741715e+01 5.9268495207e+01 0.0000000000e+00 0.0000e+00 -1.0000e+00
       22  1    3    3    0    0 +1.4928461813e+01 -6.0249667539e+01 -8.0805758288e+01 1.0189431772e+02 0.0000000000e+00 0.0000e+00 1.0000e+00
       22  1    3    3    0    0 +2.5773944423e+01 +5.0043761647e+01 -7.4774643916e+00 5.6785445007e+01 0.0000000000e+00 0.0000e+00 1.0000e+00
<rwgt>
<wgt id='SM'> +1.0185805e-05 </wgt>
<wgt id='morphing_basis_vector_2'> +9.9168704e-06 </wgt>
<wgt id='morphing_basis_vector_3'> +1.0468599e-05 </wgt>
<wgt id='morphing_basis_vector_4'> +9.8157217e-06 </wgt>
<wgt id='morphing_basis_vector_5'> +1.0567121e-05 </wgt>
</rwgt>
</event>
<event>
 7      1 +1.0152000e-05 8.07326000e+01 7.81860800e-03 1.43685700e-01
        2 -1    0    0  502    0 +0.0000000000e+00 +0.0000000000e+00 +9.3750141849e+02 9.3750141849e+02 0.0000000000e+00 0.0000e+00 -1.0000e+00
        1 -1    0    0  501    0 -0.0000000000e+00 -0.0000000000e+00 -7.6109980064e+01 7.6109980064e+01 0.0000000000e+00 0.0000e+00 -1.0000e+00
       25  2    1    2    0    0 -1.5642406526e+01 -1.0179143341e+02 +1.9723102840e+02 2.5520970986e+02 1.2500294654e+02 0.0000e+00 0.0000e+00
        2  1    1    2  501    0 -1.5718081120e+01 +2.9004984565e+01 -3.8833245233e+01 5.0954569364e+01 0.0000000000e+00 0.0000e+00 -1.0000e+00
        1  1    1    2  502    0 +3.1360487646e+01 +7.2786448849e+01 +7.0299365525e+02 7.0744711933e+02 0.0000000000e+00 0.0000e+00 -1.0000e+00
       22  1    3    3    0    0 -5.5751577152e+01 -8.3131071155e+01 +7.4579575015e+01 1.2482438206e+02 0.0000000000e+00 0.0000e+00 1.0000e+00
       22  1    3    3    0    0 +4.0109170625e+01 -1.8660362260e+01 +1.2265145339e+02 1.3038532780e+02 0.0000000000e+00 0.0000e+00 1.0000e+00
<rwgt>
<wgt id='SM'> +1.0440851e-05 </wgt>
<wgt id='morphing_basis_vector_2'> +1.0519981e-05 </wgt>
<wgt id='morphing_basis_vector_3'> +1.0824259e-05 </wgt>
<wgt id='morphing_basis_vector_4'> +1.0128749e-05 </wgt>
<wgt id='morphing_basis_vector_5'> +1.0514983e-05 </wgt>
</rwgt>
</event>
<event>
 7      1 +1.0152000e-05 4.66649400e+01 7.81860800e-03 1.53709200e-01
        2 -1    0    0  502    0 +0.0000000000e+00 +0.0000000000e+00 +2.9974035657e+02 2.9974035657e+02 0.0000000000e+00 0.0000e+00 -1.0000e+00
        1 -1    0    0  501    0 -0.0000000000e+00 -0.0000000000e+00 -4.3501457574e+02 4.3501457574e+02 0.0000000000e+00 0.0000e+00 -1.0000e+00
       25  2    1    2    0    0 -3.4845343905e+01 -1.1055531832e+01 +7.2725640201e+01 1.4917236672e+02 1.2500781365e+02 0.0000e+00 0.0000e+00
        2  1    1    2  501    0 +6.3383884892e+00 -2.7565641774e+01 -3.9322368764e+02 3.9423965845e+02 0.0000000000e+00 0.0000e+00 -1.0000e+00
        1  1    1    2  502    0 +2.8506955416e+01 +3.8621173605e+01 +1.8522382826e+02 1.9134290715e+02 0.0000000000e+00 0.0000e+00 -1.0000e+00
       22  1    3    3    0    0 -6.2295193743e+01 +3.8751888978e+01 +4.0146940479e+01 8.3631195691e+01 0.0000000000e+00 0.0000e+00 1.0000e+00
       22  1    3    3    0    0 +2.7449849837e+01 -4.9807420810e+01 +3.2578699722e+01 6.5541171025e+01 0.0000000000e+00 0.0000e+00 1.0000e+00
<rwgt>
<wgt id='SM'> +1.0173934e-05 </wgt>
<wgt id='morphing_basis_vector_2'> +1.0264443e-05 </wgt>
<wgt id='morphing_basis_vector_3'> +1.0132976e-05 </wgt>
<wgt id='morphing_basis_vector_4'> +1.0252799e-05 </wgt>
<wgt id='morphing_basis_vector_5'> +1.0069622e-05 </wgt>
</rwgt>
</event>
<event>
 7      1 +1.0152000e-05 8.45674400e+01 7.81860800e-03 1.37572600e-01
        2 -1    0    0  502    0 +0.0000000000e+00 +0.0000000000e+00 +5.9234370122e+02 5.9234370122e+02 0.0000000000e+00 0.0000e+00 -1.0000e+00
        1 -1    0    0  501    0 -0.0000000000e+00 -0.0000000000e+00 -1.1890571427e+02 1.1890571427e+02 0.0000000000e+00 0.0000e+00 -1.0000e+00
       25  2    1    2    0    0 +2.2780410813e+01 +3.3353691321e+01 +5.4222151996e+01 1.4211480626e+02 1.2500064220e+02 0.0000e+00 0.0000e+00
        2  1    1    2  501    0 +4.4685930271e+01 +2.4346315562e+01 -6.1765962872e+01 8.0028804909e+01 0.0000000000e+00 0.0000e+00 -1.0000e+00
        1  1    1    2  502    0 -6.7466341085e+01 -5.7700006883e+01 +4.8098179783e+02 4.8910580432e+02 0.0000000000e+00 0.0000e+00 -1.0000e+00
       22  1    3    3    0    0 +1.6835396019e+01 -4.7342936202e+01 +2.4619243824e+01 5.5954368318e+01 0.0000000000e+00 0.0000e+00 1.0000e+00
       22  1    3    3    0    0 +5.9450147938e+00 +8.0696627523e+01 +2.9602908172e+01 8.6160437944e+01 0.0000000000e+00 0.0000e+00 1.0000e+00
<rwgt>
<wgt id='SM'> +1.0174381e-05 </wgt>
<wgt id='morphing_basis_vector_2'> +1.0125490e-05 </wgt>
<wgt id='morphing_basis_vector_3'> +1.0249689e-05 </wgt>
<wgt id='morphing_basis_vector_4'> +1.0083825e-05 </wgt>
<wgt id='morphing_basis_vector_5'> +1.0252634e-05 </wgt>
</rwgt>
</event>
<event>
 7      1 +1.0152000e-05 1.24752100e+02 7.81860800e-03 1.32189100e-01
        2 -1    0    0  502    0 +0.0000000000e+00 +0.0000000000e+00 +2.5769072265e+02 2.5769072265e+02 0.0000000000e+00 0.0000e+00 -1.0000e+00
        1 -1    0    0  501    0 -0.0000000000e+00 -0.0000000000e+00 -3.1126673746e+02 3.1126673746e+02 0.0000000000e+00 0.0000e+00 -1.0000e+00
       25  2    1    2    0    0 +3.8692795152e+01 +7.2964986863e+01 -2.2183999812e+02 2.6769811209e+02 1.2501309030e+02 0.0000e+00 0.0000e+00
        2  1    1    2  501    0 +5.1563956480e+01 +1.8137895648e+01 -3.2084880072e+01 6.3381893279e+01 0.0000000000e+00 0.0000e+00 -1.0000e+00
        1  1    1    2  502    0 -9.0256751633e+01 -9.1102882511e+01 +2.0034886338e+02 2.3787745474e+02 0.0000000000e+00 0.0000e+00 -1.0000e+00
       22  1    3    3    0    0 -3.7720821378e+01 +3.0689662847e+01 -3.0579886022e+01 5.7444279090e+01 0.0000000000e+00 0.0000e+00 -1.0000e+00
       22  1    3    3    0    0 +7.6413616530e+01 +4.2275324016e+01 -1.9126011209e+02 2.1025383300e+02 0.0000000000e+00 0.0000e+00 -1.0000e+00
<rwgt>
<wgt id='SM'> +1.0047721e-05 </wgt>
<wgt id='morphing_basis_vector_2'> +9.4628135e-06 </wgt>
<wgt id='morphing_basis_vector_3'> +1.0421377e-05 </wgt>
<wgt id='morphing_basis_vector_4'> +9.5040874e-06 </wgt>
<wgt id='morphing_basis_vector_5'> +1.0807292e-05 </wgt>
</rwgt>
</event>
<event>
 7      1 +1.0152000e-05 1.58632900e+02 7.81860800e-03 1.29431100e-01
        2 -1    0    0  502    0 +0.0000000000e+00 +0.0000000000e+00 +5.6050987889e+02 5.6050987889e+02 0.0000000000e+00 0.0000e+00 -1.0000e+00
        1 -1    0    0  501    0 -0.0000000000e+00 -0.0000000000e+00 -2.7974899586e+02 2.7974899586e+02 0.0000000000e+00 0.0000e+00 -1.0000e+00
       25  2    1    2    0    0 -3.2494036237e+01 -1.6496176656e+02 +3.7565927715e+02 4.3013154495e+02 1.2500002653e+02 0.0000e+00 0.0000e+00
        2  1    1    2  501    0 -2.2186809192e+01 +1.5702688509e+02 -2.2125418717e+02 2.7221886872e+02 0.0000000000e+00 0.0000e+00 -1.0000e+00
        1  1    1    2  502    0 +5.4680845429e+01 +7.9348814723e+00 +1.2635579305e+02 1.3790846108e+02 0.0000000000e+00 0.0000e+00 -1.0000e+00
       22  1    3    3    0    0 -3.8633273770e+01 +4.1909920802e+00 +5.2380302587e+01 6.5221088275e+01 0.0000000000e+00 0.0000e+00 -1.0000e+00
       22  1    3    3    0    0 +6.1392375323e+00 -1.6915275864e+02 +3.2327897457e+02 3.6491045667e+02 0.0000000000e+00 0.0000e+00 -1.0000e+00
<rwgt>
<wgt id='SM'> +1.1055059e-05 </wgt>
<wgt id='morphing_basis_vector_2'> +1.0496125e-05 </wgt>
<wgt id='morphing_basis_vector_3'> +1.3038841e-05 </wgt>
<wgt id='morphing_basis_vector_4'> +9.1412736e-06 </wgt>
<wgt id='morphing_basis_vector_5'> +1.2407160e-05 </wgt>
</rwgt>
</event>
<event>
 7      1 +1.0152000e-05 1.15585900e+02 7.81860800e-03 1.36178600e-01
        2 -1    0    0  502    0 +0.0000000000e+00 +0.0000000000e+00 +4.9468791650e+02 4.9468791650e+02 0.0000000000e+00 0.0000e+00 -1.0000e+00
        1 -1    0    0  501    0 -0.0000000000e+00 -0.0000000000e+00 -7.3012264636e+02 7.3012264636e+02 0.0000000000e+00 0.0000e+00 -1.0000e+00
       25  2    1    2    0    0 +9.2113027393e+01 -3.5246809458e+00 +7.5658392330e+01 1.7276046693e+02 1.2499901365e+02 0.0000e+00 0.0000e+00
        2  1    1    2  501    0 +2.5180326897e+01 +3.3358111811e+01 -6.7101970098e+02 6.7232005146e+02 0.0000000000e+00 0.0000e+00 -1.0000e+00
        1  1    1    2  502    0 -1.1729335429e+02 -2.9833430865e+01 +3.5992657879e+02 3.7973004447e+02 0.0000000000e+00 0.0000e+00 -1.0000e+00
       22  1    3    3    0    0 +9.7544398478e+01 +3.4048045166e+01 +8.4858912628e+01 1.3369822028e+02 0.0000000000e+00 0.0000e+00 1.0000e+00
       22  1    3    3    0    0 -5.4313710856e+00 -3.7572726112e+01 -9.2005202978e+00 3.9062246647e+01 0.0000000000e+00 0.0000e+00 1.0000e+00
<rwgt>
<wgt id='SM'> +1.0312810e-05 </wgt>
<wgt id='morphing_basis_vector_2'> +1.0653202e-05 </wgt>
<wgt id='morphing_basis_vector_3'> +1.0281045e-05 </wgt>
<wgt id='morphing_basis_vector_4'> +1.0495932e-05 </wgt>
<wgt id='morphing_basis_vector_5'> +9.9729832e-06 </wgt>
</rwgt>
</event>
<event>
 7      1 +1.0152000e-05 5.19362500e+01 7.81860800e-03 1.50544600e-01
        2 -1    0    0  502    0 +0.0000000000e+00 +0.0000000000e+00 +5.1453295273e+02 5.1453295273e+02 0.0000000000e+00 0.0000e+00 -1.0000e+00
        1 -1    0    0  501    0 -0.0000000000e+00 -0.0000000000e+00 -8.3143425110e+02 8.3143425110e+02 0.0000000000e+00 0.0000e+00 -1.0000e+00
       25  2    1    2    0    0 +4.8200561165e+00 -5.3106440921e+01 -3.2720555807e+02 3.5430365065e+02 1.2499629045e+02 0.0000e+00 0.0000e+00
        2  1    1    2  501    0 +2.8478628414e+01 +1.3208085525e+01 -4.8882711568e+02 4.8983408908e+02 0.0000000000e+00 0.0000e+00 -1.0000e+00
        1  1    1    2  502    0 -3.3298684530e+01 +3.9898355397e+01 +4.9913137537e+02 5.0182946410e+02 0.0000000000e+00 0.0000e+00 -1.0000e+00
       22  1    3    3    0    0 +3.7900884771e+01 +1.6107553879e+01 -4.1448536002e+01 5.8428687261e+01 0.0000000000e+00 0.0000e+00 1.0000e+00
       22  1    3    3    0    0 -3.3080828654e+01 -6.9213994801e+01 -2.8575702207e+02 2.9587496339e+02 0.0000000000e+00 0.0000e+00 1.0000e+00
<rwgt>
<wgt id='SM'> +1.0186689e-05 </wgt>
<wgt id='morphing_basis_vector_2'> +1.0326289e-05 </wgt>
<wgt id='morphing_basis_vector_3'> +1.0125015e-05 </wgt>
<wgt id='morphing_basis_vector_4'> +1.0307014e-05 </wgt>
<wgt id='morphing_basis_vector_5'> +1.0026737e-05 </wgt>
</rwgt>
</event>
<event>
 7      1 +1.0152000e-05 9.39948500e+01 7.81860800e-03 1.33364400e-01
        2 -1    0    0  502    0 +0.0000000000e+00 +0.0000000000e+00 +1.3239117313e+03 1.3239117313e+03 0.0000000000e+00 0.0000e+00 -1.0000e+00
        1 -1    0    0  501    0 -0.0000000000e+00 -0.0000000000e+00 -3.1855145704e+02 3.1855145704e+02 0.0000000000e+00 0.0000e+00 -1.0000e+00
       25  2    1    2    0    0 -8.1258690586e+01 -1.0996321913e+02 +6.2794845853e+01 1.9560873920e+02 1.2499880731e+02 0.0000e+00 0.0000e+00
        2  1    1    2  501    0 -5.4876129964e-01 +6.5396278227e+01 -2.4605045776e+02 2.5459340547e+02 0.0000000000e+00 0.0000e+00 -1.0000e+00
        1  1    1    2  502    0 +8.1807451885e+01 +4.4566940906e+01 +1.1886158861e+03 1.1922610436e+03 0.0000000000e+00 0.0000e+00 -1.0000e+00
       22  1    3    3    0    0 -1.0907380232e+02 -5.9521438709e+01 +5.9878684147e+01 1.3793242125e+02 0.0000000000e+00 0.0000e+00 -1.0000e+00
       22  1    3    3    0    0 +2.7815111731e+01 -5.0441780424e+01 +2.9161617061e+00 5.7676317948e+01 0.0000000000e+00 0.0000e+00 -1.0000e+00
<rwgt>
<wgt id='SM'> +1.0584216e-05 </wgt>
<wgt id='morphing_basis_vector_2'> +1.0625755e-05 </wgt>
<wgt id='morphing_basis_vector_3'> +1.1227655e-05 </wgt>
<wgt id='morphing_basis_vector_4'> +1.0026168e-05 </wgt>
<wgt id='morphing_basis_vector_5'> +1.0796624e-05 </wgt>
</rwgt>
</event>
<event>
 7      1 +1.0152000e-05 5.24594500e+01 7.81860800e-03 1.54832500e-01
        2 -1    0    0  502    0 +0.0000000000e+00 +0.0000000000e+00 +1.8229952369e+02 1.8229952369e+02 0.0000000000e+00 0.0000e+00 -1.0000e+00
        1 -1    0    0  501    0 -0.0000000000e+00 -0.0000000000e+00 -8.6074011509e+02 8.6074011509e+02 0.0000000000e+00 0.0000e+00 -1.0000e+00
       25  2    1    2    0    0 -2.5989959040e+01 +1.5065045450e+01 -8.3943778495e+01 1.5353805829e+02 1.2499977532e+02 0.0000e+00 0.0000e+00
        2  1    1    2  501    0 -1.9026000648e+01 +1.3610146034e+01 -7.3697929748e+02 7.3735046598e+02 0.0000000000e+00 0.0000e+00 -1.0000e+00
        1  1    1    2  502    0 +4.5015959688e+01 -2.8675191484e+01 +1.4248248458e+02 1.5215111451e+02 0.0000000000e+00 0.0000e+00 -1.0000e+00
       22  1    3    3    0    0 +2.1107906617e-01 -5.0352068746e+01 -9.8920104734e+00 5.1314980782e+01 0.0000000000e+00 0.0000e+00 -1.0000e+00
       22  1    3    3    0    0 -2.6201038106e+01 +6.5417114196e+01 -7.4051768022e+01 1.0222307751e+02 0.0000000000e+00 0.0000e+00 -1.0000e+00
<rwgt>
<wgt id='SM'> +1.0171105e-05 </wgt>
<wgt id='morphing_basis_vector_2'> +1.0183701e-05 </wgt>
<wgt id='morphing_basis_vector_3'> +1.0189961e-05 </wgt>
<wgt id='morphing_basis_vector_4'> +1.0159450e-05 </wgt>
<wgt id='morphing_basis_vector_5'> +1.0166282e-05 </wgt>
</rwgt>
</event>
<event>
 7      1 +1.0152000e-05 6.88584400e+01 7.81860800e-03 1.43903900e-01
        2 -1    0    0  502    0 +0.0000000000e+00 +0.0000000000e+00 +1.8728460544e+03 1.8728460544e+03 0.0000000000e+00 0.0000e+00 -1.0000e+00
        1 -1    0    0  501    0 -0.0000000000e+00 -0.0000000000e+00 -6.8787108425e+02 6.8787108425e+02 0.0000000000e+00 0.0000e+00 -1.0000e+00
       25  2    1    2    0    0 +2.3798288113e+01 +2.3265923624e+01 +1.2579040781e+03 1.2645376035e+03 1.2500007765e+02 0.0000e+00 0.0000e+00
        2  1    1    2  501    0 -3.4043894689e+01 -5.9912337830e+01 -6.8222514606e+02 6.8569645245e+02 0.0000000000e+00 0.0000e+00 -1.0000e+00
        1  1    1    2  502    0 +1.0245606576e+01 +3.6646414205e+01 +6.0929603813e+02 6.1048308266e+02 0.0000000000e+00 0.0000e+00 -1.0000e+00
       22  1    3    3    0    0 -5.1666350400e+01 +9.7528279623e+00 +4.8619732140e+02 4.8903206925e+02 0.0000000000e+00 0.0000e+00 -1.0000e+00
       22  1    3    3    0    0 +7.5464638512e+01 +1.3513095662e+01 +7.7170675668e+02 7.7550553430e+02 0.0000000000e+00 0.0000e+00 -1.0000e+00
<rwgt>
<wgt id='SM'> +1.0144255e-05 </wgt>
<wgt id='morphing_basis_vector_2'> +1.0073155e-05 </wgt>
<wgt id='morphing_basis_vector_3'> +1.0192071e-05 </wgt>
<wgt id='morphing_basis_vector_4'> +1.0069258e-05 </wgt>
<wgt id='morphing_basis_vector_5'> +1.0233630e-05 </wgt>
</rwgt>
</event>
<event>
 7      1 +1.0152000e-05 1.19746500e+02 7.81860800e-03 1.28715100e-01
        2 -1    0    0  502    0 +0.0000000000e+00 +0.0000000000e+00 +2.1722871760e+03 2.1722871760e+03 0.0000000000e+00 0.0000e+00 -1.0000e+00
        1 -1    0    0  501    0 -0.0000000000e+00 -0.0000000000e+00 -2.4313037634e+01 2.4313037634e+01 0.0000000000e+00 0.0000e+00 -1.0000e+00
       25  2    1    2    0    0 -6.8282595748e+01 +1.7387289142e+01 +6.5804428946e+02 6.7350733268e+02 1.2500003833e+02 0.0000e+00 0.0000e+00
        2  1    1    2  501    0 +1.3214996172e+02 -6.2627473090e+01 +3.3517297801e+02 3.6568666636e+02 0.0000000000e+00 0.0000e+00 -1.0000e+00
        1  1    1    2  502    0 -6.3867365972e+01 +4.5240183948e+01 +1.1547568709e+03 1.1574062146e+03 0.0000000000e+00 0.0000e+00 -1.0000e+00
       22  1    3    3    0    0 -1.0776146382e+01 +4.5835833326e+01 +8.7477505460e+01 9.9344667240e+01 0.0000000000e+00 0.0000e+00 1.0000e+00
       22  1    3    3    0    0 -5.7506449366e+01 -2.8448544184e+01 +5.7056678400e+02 5.7416266544e+02 0.0000000000e+00 0.0000e+00 1.0000e+00
<rwgt>
<wgt id='SM'> +1.0176803e-05 </wgt>
<wgt id='morphing_basis_vector_2'> +1.0363047e-05 </wgt>
<wgt id='morphing_basis_vector_3'> +1.0068010e-05 </wgt>
<wgt id='morphing_basis_vector_4'> +1.0369788e-05 </wgt>
<wgt id='morphing_basis_vector_5'> +9.9618514e-06 </wgt>
</rwgt>
</event>
<event>
 7      1 +1.0152000e-05 8.95943700e+01 7.81860800e-03 1.43767700e-01
        2 -1    0    0  502    0 +0.0000000000e+00 +0.0000000000e+00 +5.9121132682e+01 5.9121132682e+01 0.0000000000e+00 0.0000e+00 -1.0000e+00
        1 -1    0    0  501    0 -0.0000000000e+00 -0.0000000000e+00 -1.5125432361e+03 1.5125432361e+03 0.0000000000e+00 0.0000e+00 -1.0000e+00
       25  2    1    2    0    0 -6.7811846761e+01 -3.6483809546e+01 -8.1161051670e+02 8.2478224022e+02 1.2499839218e+02 0.0000e+00 0.0000e+00
        2  1    1    2  501    0 +7.1260039201e+01 +6.5826738611e+01 -6.8649431826e+02 6.9331493688e+02 0.0000000000e+00 0.0000e+00 -1.0000e+00
        1  1    1    2  502    0 -3.4481924406e+00 -2.9342929065e+01 +4.4682731587e+01 5.3567191632e+01 0.0000000000e+00 0.0000e+00 -1.0000e+00
       22  1    3    3    0    0 -7.4649168496e+01 -1.6575915106e+00 -7.4978739191e+02 7.5349610419e+02 0.0000000000e+00 0.0000e+00 -1.0000e+00
       22  1    3    3    0    0 +6.8373217353e+00 -3.4826218035e+01 -6.1823124792e+01 7.1286136030e+01 0.0000000000e+00 0.0000e+00 -1.0000e+00
<rwgt>
<wgt id='SM'> +1.0411795e-05 </wgt>
<wgt id='morphing_basis_vector_2'> +1.0470030e-05 </wgt>
<wgt id='morphing_basis_vector_3'> +1.0767253e-05 </wgt>
<wgt id='morphing_basis_vector_4'> +1.0116110e-05 </wgt>
<wgt id='morphing_basis_vector_5'> +1.0495107e-05 </wgt>
</rwgt>
</event>
<event>
 7      1 +1.0152000e-05 4.94850500e+01 7.81860800e-03 1.47454000e-01
        2 -1    0    0  502    0 +0.0000000000e+00 +0.0000000000e+00 +2.1496013305e+03 2.1496013305e+03 0.0000000000e+00 0.0000e+00 -1.0000e+00
        1 -1    0    0  501    0 -0.0000000000e+00 -0.0000000000e+00 -3.6333603484e+01 3.6333603484e+01 0.0000000000e+00 0.0000e+00 -1.0000e+00
       25  2    1    2    0    0 +8.2093326443e+00 +8.7859544391e+00 +3.2364330888e+02 3.4715135695e+02 1.2499794842e+02 0.0000e+00 0.0000e+00
        2  1    1    2  501    0 +2.2327266029e+00 +4.0802668193e+01 -6.9877423646e+00 4.1456861231e+01 0.0000000000e+00 0.0000e+00 -1.0000e+00
        1  1    1    2  502    0 -1.0442059247e+01 -4.9588622632e+01 +1.7966121605e+03 1.7973267158e+03 0.0000000000e+00 0.0000e+00 -1.0000e+00
       22  1    3    3    0    0 -4.2811422586e+01 -2.8122277153e+01 +2.1994635370e+02 2.2583197046e+02 0.0000000000e+00 0.0000e+00 1.0000e+00
       22  1    3    3    0    0 +5.1020755230e+01 +3.6908231592e+01 +1.0369695519e+02 1.2131938649e+02 0.0000000000e+00 0.0000e+00 1.0000e+00
<rwgt>
<wgt id='SM'> +1.0146062e-05 </wgt>
<wgt id='morphing_basis_vector_2'> +1.0162656e-05 </wgt>
<wgt id='morphing_basis_vector_3'> +1.0123351e-05 </wgt>
<wgt id='morphing_basis_vector_4'> +1.0174616e-05 </wgt>
<wgt id='morphing_basis_vector_5'> +1.0120910e-05 </wgt>
</rwgt>
</event>
<event>
 7      1 +1.0152000e-05 2.45044700e+02 7.81860800e-03 1.22443300e-01
        2 -1    0    0  502    0 +0.0000000000e+00 +0.0000000000e+00 +9.7776299038e+02 9.7776299038e+02 0.0000000000e+00 0.0000e+00 -1.0000e+00
        1 -1    0    0  501    0 -0.0000000000e+00 -0.0000000000e+00 -2.4581135379e+03 2.4581135379e+03 0.0000000000e+00 0.0000e+00 -1.0000e+00
       25  2    1    2    0    0 +2.3757796653e+01 -1.7793575567e+02 +5.3802919817e+02 5.8079757852e+02 1.2499937233e+02 0.0000e+00 0.0000e+00
        2  1    1    2  501    0 -6.2311094329e+01 +2.3775705664e+02 -2.4274512379e+03 2.4398628246e+03 0.0000000000e+00 0.0000e+00 -1.0000e+00
        1  1    1    2  502    0 +3.8553297676e+01 -5.9821300970e+01 +4.0907149224e+02 4.1521612514e+02 0.0000000000e+00 0.0000e+00 -1.0000e+00
       22  1    3    3    0    0 +6.3267061483e+01 -5.5072972530e+01 +2.7997357661e+02 2.9226863836e+02 0.0000000000e+00 0.0000e+00 1.0000e+00
       22  1    3    3    0    0 -3.9509264830e+01 -1.2286278314e+02 +2.5805562156e+02 2.8852894016e+02 0.0000000000e+00 0.0000e+00 1.0000e+00
<rwgt>
<wgt id='SM'> +1.0515569e-05 </wgt>
<wgt id='morphing_basis_vector_2'> +1.0364686e-05 </wgt>
<wgt id='morphing_basis_vector_3'> +1.1229210e-05 </wgt>
<wgt id='morphing_basis_vector_4'> +9.8354528e-06 </wgt>
<wgt id='morphing_basis_vector_5'> +1.0956321e-05 </wgt>
</rwgt>
</event>
<event>
 7      1 +1.0152000e-05 5.60573000e+01 7.81860800e-03 1.43975500e-01
        2 -1    0    0  502    0 +0.0000000000e+00 +0.0000000000e+00 +5.4573748992e+02 5.4573748992e+02 0.0000000000e+00 0.0000e+00 -1.0000e+00
        1 -1    0    0  501    0 -0.0000000000e+00 -0.0000000000e+00 -3.3303476847e+03 3.3303476847e+03 0.0000000000e+00 0.0000e+00 -1.0000e+00
       25  2    1    2    0    0 -2.3796374984e+01 +1.2259111314e+01 -2.5133119263e+02 2.8197447836e+02 1.2500273911e+02 0.0000e+00 0.0000e+00
        2  1    1    2  501    0 +8.3947560084e+00 -5.6125139240e+01 -3.0624127138e+03 3.0629384801e+03 0.0000000000e+00 0.0000e+00 -1.0000e+00
        1  1    1    2  502    0 +1.5401618976e+01 +4.3866027926e+01 +5.2913371172e+02 5.3117221610e+02 0.0000000000e+00 0.0000e+00 -1.0000e+00
       22  1    3    3    0    0 +4.6171916359e+01 +1.0272298579e+01 -5.0027560882e+01 6.8848549921e+01 0.0000000000e+00 0.0000e+00 -1.0000e+00
       22  1    3    3    0    0 -6.9968291343e+01 +1.9868127352e+00 -2.0130363175e+02 2.1312592844e+02 0.0000000000e+00 0.0000e+00 -1.0000e+00
<rwgt>
<wgt id='SM'> +1.0153169e-05 </wgt>
<wgt id='morphing_basis_vector_2'> +1.0219740e-05 </wgt>
<wgt id='morphing_basis_vector_3'> +1.0100136e-05 </wgt>
<wgt id='morphing_basis_vector_4'> +1.0232389e-05 </wgt>
<wgt id='morphing_basis_vector_5'> +1.0067259e-05 </wgt>
</rwgt>
</event>
<event>
 7      1 +1.0152000e-05 1.03677700e+02 7.81860800e-03 1.32531100e-01
        2 -1    0    0  502    0 +0.0000000000e+00 +0.0000000000e+00 +1.2630085074e+03 1.2630085074e+03 0.0000000000e+00 0.0000e+00 -1.0000e+00
        1 -1    0    0  501    0 -0.0000000000e+00 -0.0000000000e+00 -1.7476912352e+02 1.7476912352e+02 0.0000000000e+00 0.0000e+00 -1.0000e+00
       25  2    1    2    0    0 +1.4745446103e+02 +2.6370476491e+01 +4.7479768123e+02 5.1331815095e+02 1.2499786354e+02 0.0000e+00 0.0000e+00
        2  1    1    2  501    0 -8.8672363272e+01 -5.1180967124e+01 -1.3715591600e+02 1.7115497276e+02 0.0000000000e+00 0.0000e+00 -1.0000e+00
        1  1    1    2  502    0 -5.8782097762e+01 +2.4810490633e+01 +7.5059761866e+02 7.5330450722e+02 0.0000000000e+00 0.0000e+00 -1.0000e+00
       22  1    3    3    0    0 +1.3274374479e+02 -2.4912933836e+01 +2.7293763503e+02 3.0452669615e+02 0.0000000000e+00 0.0000e+00 1.0000e+00
       22  1    3    3    0    0 +1.4710716242e+01 +5.1283410327e+01 +2.0186004620e+02 2.0879145480e+02 0.0000000000e+00 0.0000e+00 1.0000e+00
<rwgt>
<wgt id='SM'> +1.0737503e-05 </wgt>
<wgt id='morphing_basis_vector_2'> +1.0851626e-05 </wgt>
<wgt id='morphing_basis_vector_3'> +1.1567872e-05 </wgt>
<wgt id='morphing_basis_vector_4'> +1.0049241e-05 </wgt>
<wgt id='morphing_basis_vector_5'> +1.0952019e-05 </wgt>
</rwgt>
</event>
<event>
 7      1 +1.0152000e-05 6.96162700e+01 7.81860800e-03 1.39233200e-01
        2 -1    0    0  502    0 +0.0000000000e+00 +0.0000000000e+00 +2.8463533393e+02 2.8463533393e+02 0.0000000000e+00 0.0000e+00 -1.0000e+00
        1 -1    0    0  501    0 -0.0000000000e+00 -0.0000000000e+00 -2.0343224328e+02 2.0343224328e+02 0.0000000000e+00 0.0000e+00 -1.0000e+00
       25  2    1    2    0    0 +6.6553520230e+01 -2.1701824453e+01 +5.9323137483e+01 1.5506636822e+02 1.2500401463e+02 0.0000e+00 0.0000e+00
        2  1    1    2  501    0 -3.3279684332e+01 -4.2565163026e+01 -1.4303828482e+02 1.5290284960e+02 0.0000000000e+00 0.0000e+00 -1.0000e+00
        1  1    1    2  502    0 -3.3273835898e+01 +6.4266987479e+01 +1.6491823799e+02 1.8009835939e+02 0.0000000000e+00 0.0000e+00 -1.0000e+00
       22  1    3    3    0    0 -1.9739719942e+01 +2.8832492660e+01 +4.0181562911e+01 5.3249668303e+01 0.0000000000e+00 0.0000e+00 -1.0000e+00
       22  1    3    3    0    0 +8.6293240172e+01 -5.0534317113e+01 +1.9141574573e+01 1.0181669992e+02 0.0000000000e+00 0.0000e+00 -1.0000e+00
<rwgt>
<wgt id='SM'> +1.0319193e-05 </wgt>
<wgt id='morphing_basis_vector_2'> +1.0177151e-05 </wgt>
<wgt id='morphing_basis_vector_3'> +1.0697681e-05 </wgt>
<wgt id='morphing_basis_vector_4'> +9.9134046e-06 </wgt>
<wgt id='morphing_basis_vector_5'> +1.0609494e-05 </wgt>
</rwgt>
</event>
<event>
 7      1 +1.0152000e-05 1.31462200e+02 7.81860800e-03 1.36278400e-01
        2 -1    0    0  502    0 +0.0000000000e+00 +0.0000000000e+00 +1.4071113075e+03 1.4071113075e+03 0.0000000000e+00 0.0000e+00 -1.0000e+00
        1 -1    0    0  501    0 -0.0000000000e+00 -0.0000000000e+00 -1.5958751294e+02 1.5958751294e+02 0.0000000000e+00 0.0000e+00 -1.0000e+00
       25  2    1    2    0    0 -3.5010882298e+01 -1.5860308724e+02 +2.1553151344e+02 2.9742188373e+02 1.2500096988e+02 0.0000e+00 0.0000e+00
        2  1    1    2  501    0 +1.8774280139e+01 +1.2597867018e+02 -8.4074146460e+01 1.5261572998e+02 0.0000000000e+00 0.0000e+00 -1.0000e+00
        1  1    1    2  502    0 +1.6236602159e+01 +3.2624417067e+01 +1.1160664276e+03 1.1166612067e+03 0.0000000000e+00 0.0000e+00 -1.0000e+00
       22  1    3    3    0    0 -3.0035884201e+00 -1.6699185528e+02 +1.5218750538e+02 2.2595649596e+02 0.0000000000e+00 0.0000e+00 -1.0000e+00
       22  1    3    3    0    0 -3.2007293878e+01 +8.3887680399e+00 +6.3344008062e+01 7.1465387762e+01 0.0000000000e+00 0.0000e+00 -1.0000e+00
<rwgt>
<wgt id='SM'> +1.0779759e-05 </wgt>
<wgt id='morphing_basis_vector_2'> +1.1237161e-05 </wgt>
<wgt id='morphing_basis_vector_3'> +1.1389297e-05 </wgt>
<wgt id='morphing_basis_vector_4'> +1.0433775e-05 </wgt>
<wgt id='morphing_basis_vector_5'> +1.0577167e-05 </wgt>
</rwgt>
</event>
<event>
 7      1 +1.0152000e-05 7.88805400e+01 7.81860800e-03 1.42443400e-01
        2 -1    0    0  502    0 +0.0000000000e+00 +0.0000000000e+00 +6.4293078298e+02 6.4293078298e+02 0.0000000000e+00 0.0000e+00 -1.0000e+00
        1 -1    0    0  501    0 -0.0000000000e+00 -0.0000000000e+00 -4.9170511906e+02 4.9170511906e+02 0.0000000000e+00 0.0000e+00 -1.0000e+00
       25  2    1    2    0    0 +1.7807438279e+01 -5.3420923068e+01 -2.5454886576e+02 2.8912082266e+02 1.2499930061e+02 0.0000e+00 0.0000e+00
        2  1    1    2  501    0 -4.2164874375e+01 +8.1399757905e+01 -2.0973211727e+02 2.2889158620e+02 0.0000000000e+00 0.0000e+00 -1.0000e+00
        1  1    1    2  502    0 +2.4357436096e+01 -2.7978834837e+01 +6.1550664696e+02 6.1662349318e+02 0.0000000000e+00 0.0000e+00 -1.0000e+00
       22  1    3    3    0    0 -8.0444608520e+00 -5.0944559300e+01 -2.5783558499e+02 2.6294343567e+02 0.0000000000e+00 0.0000e+00 1.0000e+00
       22  1    3    3    0    0 +2.5851899131e+01 -2.4763637677e+00 +3.2867192309e+00 2.6177386987e+01 0.0000000000e+00 0.0000e+00 1.0000e+00
<rwgt>
<wgt id='SM'> +1.0317964e-05 </wgt>
<wgt id='morphing_basis_vector_2'> +1.0396116e-05 </wgt>
<wgt id='morphing_basis_vector_3'> +1.0509880e-05 </wgt>
<wgt id='morphing_basis_vector_4'> +1.0178481e-05 </wgt>
<wgt id='morphing_basis_vector_5'> +1.0317922e-05 </wgt>
</rwgt>
</event>
<event>
 7      1 +1.0152000e-05 2.35384200e+02 7.81860800e-03 1.25905700e-01
        2 -1    0    0  502    0 +0.0000000000e+00 +0.0000000000e+00 +4.0174012137e+03 4.0174012137e+03 0.0000000000e+00 0.0000e+00 -1.0000e+00
        1 -1    0    0  501    0 -0.0000000000e+00 -0.0000000000e+00 -3.2747243938e+02 3.2747243938e+02 0.0000000000e+00 0.0000e+00 -1.0000e+00
       25  2    1    2    0    0 +1.9879364386e+02 +4.2529598501e+01 +1.5368245038e+03 1.5552434064e+03 1.2499927309e+02 0.0000e+00 0.0000e+00
        2  1    1    2  501    0 -2.1818811142e+02 -9.0966795661e+01 -2.7404860629e+02 3.6191663195e+02 0.0000000000e+00 0.0000e+00 -1.0000e+00
        1  1    1    2  502    0 +1.9394467556e+01 +4.8437197160e+01 +2.4271528769e+03 2.4277136147e+03 0.0000000000e+00 0.0000e+00 -1.0000e+00
       22  1    3    3    0    0 +2.0562043147e+02 +4.3632457520e+01 +1.1948026393e+03 1.2131516394e+03 0.0000000000e+00 0.0000e+00 -1.0000e+00
       22  1    3    3    0    0 -6.8267876113e+00 -1.1028590185e+00 +3.4202186445e+02 3.4209176706e+02 0.0000000000e+00 0.0000e+00 -1.0000e+00
<rwgt>
<wgt id='SM'> +1.0934681e-05 </wgt>
<wgt id='morphing_basis_vector_2'> +1.0991151e-05 </wgt>
<wgt id='morphing_basis_vector_3'> +1.2141295e-05 </wgt>
<wgt id='morphing_basis_vector_4'> +9.9051373e-06 </wgt>
<wgt id='morphing_basis_vector_5'> +1.1350031e-05 </wgt>
</rwgt>
</event>
<event>
 7      1 +1.0152000e-05 1.22449300e+02 7.81860800e-03 1.33226100e-01
        2 -1    0    0  502    0 +0.0000000000e+00 +0.0000000000e+00 +5.9475262694e+02 5.9475262694e+02 0.0000000000e+00 0.0000e+00 -1.0000e+00
        1 -1    0    0  501    0 -0.0000000000e+00 -0.0000000000e+00 -3.5106137275e+02 3.5106137275e+02 0.0000000000e+00 0.0000e+00 -1.0000e+00
       25  2    1    2    0    0 -6.1048088987e+01 +7.6282856224e+01 +1.2387673353e+02 2.0128724019e+02 1.2500065852e+02 0.0000e+00 0.0000e+00
        2  1    1    2  501    0 +1.0931725070e+02 -6.0406868046e+01 -2.9827092184e+02 3.2336479991e+02 0.0000000000e+00 0.0000e+00 -1.0000e+00
        1  1    1    2  502    0 -4.8269161709e+01 -1.5875988179e+01 +4.1808544250e+02 4.2116195959e+02 0.0000000000e+00 0.0000e+00 -1.0000e+00
       22  1    3    3    0    0 -6.9925228583e+01 +9.2208636236e+01 +1.3661843381e+02 1.7904347697e+02 0.0000000000e+00 0.0000e+00 -1.0000e+00
       22  1    3    3    0    0 +8.8771395957e+00 -1.5925780012e+01 -1.2741700278e+01 2.2243763224e+01 0.0000000000e+00 0.0000e+00 -1.0000e+00
<rwgt>
<wgt id='SM'> +1.0372602e-05 </wgt>
<wgt id='morphing_basis_vector_2'> +1.0260124e-05 </wgt>
<wgt id='morphing_basis_vector_3'> +1.0809921e-05 </wgt>
<wgt id='morphing_basis_vector_4'> +9.9278525e-06 </wgt>
<wgt id='morphing_basis_vector_5'> +1.0656711e-05 </wgt>
</rwgt>
</event>
<event>
 7      1 +1.0152000e-05 5.97549500e+01 7.81860800e-03 1.40968500e-01
        2 -1    0    0  502    0 +0.0000000000e+00 +0.0000000000e+00 +5.5217541049e+01 5.5217541049e+01 0.0000000000e+00 0.0000e+00 -1.0000e+00
        1 -1    0    0  501    0 -0.0000000000e+00 -0.0000000000e+00 -1.9776800725e+03 1.9776800725e+03 0.0000000000e+00 0.0000e+00 -1.0000e+00
       25  2    1    2    0    0 +1.0572268212e+01 +4.2606006219e+00 -3.0888512807e+02 3.3341409785e+02 1.2500005092e+02 0.0000e+00 0.0000e+00
        2  1    1    2  501    0 +5.0638723418e+01 -2.1147396264e+01 -1.6323475348e+03 1.6332697166e+03 0.0000000000e+00 0.0000e+00 -1.0000e+00
        1  1    1    2  502    0 -6.1210991630e+01 +1.6886795643e+01 +1.8770131412e+01 6.6213799141e+01 0.0000000000e+00 0.0000e+00 -1.0000e+00
       22  1    3    3    0    0 +3.5982704925e+01 -3.3579352598e+01 -4.8601269237e+01 6.9169439394e+01 0.0000000000e+00 0.0000e+00 1.0000e+00
       22  1    3    3    0    0 -2.5410436713e+01 +3.7839953220e+01 -2.6028385883e+02 2.6424465846e+02 0.0000000000e+00 0.0000e+00 1.0000e+00
<rwgt>
<wgt id='SM'> +1.0157171e-05 </wgt>
<wgt id='morphing_basis_vector_2'> +1.0133814e-05 </wgt>
<wgt id='morphing_basis_vector_3'> +1.0184496e-05 </wgt>
<wgt id='morphing_basis_vector_4'> +1.0121574e-05 </wgt>
<wgt id='morphing_basis_vector_5'> +1.0190985e-05 </wgt>
</rwgt>
</event>
<event>
 7      1 +1.0152000e-05 4.07597500e+01 7.81860800e-03 1.54069200e-01
        2 -1    0    0  502    0 +0.0000000000e+00 +0.0000000000e+00 +1.2549010878e+03 1.2549010878e+03 0.0000000000e+00 0.0000e+00 -1.0000e+00
        1 -1    0    0  501    0 -0.0000000000e+00 -0.0000000000e+00 -8.8103596138e+00 8.8103596138e+00 0.0000000000e+00 0.0000e+00 -1.0000e+00
       25  2    1    2    0    0 +6.0962607437e+00 +5.8595360179e+01 +9.4683906022e+02 9.5686984409e+02 1.2500044774e+02 0.0000e+00 0.0000e+00
        2  1    1    2  501    0 +1.0268473530e+01 -2.9918728176e+01 +1.9309731361e+02 1.9567101054e+02 0.0000000000e+00 0.0000e+00 -1.0000e+00
        1  1    1    2  502    0 -1.6364734273e+01 -2.8676632003e+01 +1.0615435438e+02 1.1117059280e+02 0.0000000000e+00 0.0000e+00 -1.0000e+00
       22  1    3    3    0    0 +5.9957809766e+01 +2.1500760614e+01 +2.9731151078e+02 3.0405814592e+02 0.0000000000e+00 0.0000e+00 -1.0000e+00
       22  1    3    3    0    0 -5.3861549022e+01 +3.7094599566e+01 +6.4952754944e+02 6.5281169817e+02 0.0000000000e+00 0.0000e+00 -1.0000e+00
<rwgt>
<wgt id='SM'> +9.7797830e-06 </wgt>
<wgt id='morphing_basis_vector_2'> +8.7455948e-06 </wgt>
<wgt id='morphing_basis_vector_3'> +1.0179727e-05 </wgt>
<wgt id='morphing_basis_vector_4'> +9.0674495e-06 </wgt>
<wgt id='morphing_basis_vector_5'> +1.1032372e-05 </wgt>
</rwgt>
</event>
<event>
 7      1 +1.0152000e-05 2.74914700e+02 7.81860800e-03 1.23419900e-01
        2 -1    0    0  502    0 +0.0000000000e+00 +0.0000000000e+00 +1.2774348166e+03 1.2774348166e+03 0.0000000000e+00 0.0000e+00 -1.0000e+00
        1 -1    0    0  501    0 -0.0000000000e+00 -0.0000000000e+00 -3.1294263884e+02 3.1294263884e+02 0.0000000000e+00 0.0000e+00 -1.0000e+00
       25  2    1    2    0    0 +1.3267290486e+02 -2.7443484295e+02 -4.1409932236e+01 3.3204849036e+02 1.2499933901e+02 0.0000e+00 0.0000e+00
        2  1    1    2  501    0 -1.2091415501e+02 +2.1830876582e+02 -1.2350607564e+00 2.4956056478e+02 0.0000000000e+00 0.0000e+00 -1.0000e+00
        1  1    1    2  502    0 -1.1758749842e+01 +5.6126077134e+01 +1.0071371708e+03 1.0087684003e+03 0.0000000000e+00 0.0000e+00 -1.0000e+00
       22  1    3    3    0    0 +2.8894119817e+01 -1.9807257805e+02 -1.6792749448e+01 2.0087213039e+02 0.0000000000e+00 0.0000e+00 -1.0000e+00
       22  1    3    3    0    0 +1.0377878504e+02 -7.6362264905e+01 -2.4617182788e+01 1.3117635997e+02 0.0000000000e+00 0.0000e+00 -1.0000e+00
<rwgt>
<wgt id='SM'> +1.5085430e-05 </wgt>
<wgt id='morphing_basis_vector_2'> +1.9432974e-05 </wgt>
<wgt id='morphing_basis_vector_3'> +2.0450454e-05 </wgt>
<wgt id='morphing_basis_vector_4'> +1.2517586e-05 </wgt>
<wgt id='morphing_basis_vector_5'> +1.3191226e-05 </wgt>
</rwgt>
</event>
<event>
 7      1 +1.0152000e-05 7.37113400e+01 7.81860800e-03 1.50717300e-01
        2 -1    0    0  502    0 +0.0000000000e+00 +0.0000000000e+00 +1.1241050801e+03 1.1241050801e+03 0.0000000000e+00 0.0000e+00 -1.0000e+00
        1 -1    0    0  501    0 -0.0000000000e+00 -0.0000000000e+00 -1.6192761988e+03 1.6192761988e+03 0.0000000000e+00 0.0000e+00 -1.0000e+00
       25  2    1    2    0    0 -5.3070103733e+01 -2.0084605663e+01 -1.6351032082e+02 2.1349651646e+02 1.2500124092e+02 0.0000e+00 0.0000e+00
        2  1    1    2  501    0 -8.9756616288e+00 -1.9932492756e+01 -1.4294492406e+03 1.4296163815e+03 0.0000000000e+00 0.0000e+00 -1.0000e+00
        1  1    1    2  502    0 +6.2045765362e+01 +4.0017098419e+01 +1.0977884428e+03 1.1002683810e+03 0.0000000000e+00 0.0000e+00 -1.0000e+00
       22  1    3    3    0    0 +3.0424197940e+01 -2.0873215240e+01 -1.0565828357e+02 1.1191512776e+02 0.0000000000e+00 0.0000e+00 1.0000e+00
       22  1    3    3    0    0 -8.3494301673e+01 +7.8860957746e-01 -5.7852037249e+01 1.0158138870e+02 0.0000000000e+00 0.0000e+00 1.0000e+00
<rwgt>
<wgt id='SM'> +1.0196087e-05 </wgt>
<wgt id='morphing_basis_vector_2'> +1.0282474e-05 </wgt>
<wgt id='morphing_basis_vector_3'> +1.0192409e-05 </wgt>
<wgt id='morphing_basis_vector_4'> +1.0238582e-05 </wgt>
<wgt id='morphing_basis_vector_5'> +1.0110493e-05 </wgt>
</rwgt>
</event>
<event>
 7      1 +1.0152000e-05 8.52254000e+01 7.81860800e-03 1.42071200e-01
        2 -1    0    0  502    0 +0.0000000000e+00 +0.0000000000e+00 +2.6735864157e+02 2.6735864157e+02 0.0000000000e+00 0.0000e+00 -1.0000e+00
        1 -1    0    0  501    0 -0.0000000000e+00 -0.0000000000e+00 -2.6604708624e+03 2.6604708624e+03 0.0000000000e+00 0.0000e+00 -1.0000e+00
       25  2    1    2    0    0 +2.7892531240e+00 -8.8996653433e+01 +1.7634827749e+01 1.5444414710e+02 1.2495528468e+02 0.0000e+00 0.0000e+00
        2  1    1    2  501    0 +3.1192987528e+01 +7.9341285019e+01 -2.5896373145e+03 2.5910402279e+03 0.0000000000e+00 0.0000e+00 -1.0000e+00
        1  1    1    2  502    0 -3.3982240652e+01 +9.6553684140e+00 +1.7889026592e+02 1.8234512897e+02 0.0000000000e+00 0.0000e+00 -1.0000e+00
       22  1    3    3    0    0 -4.0241414462e+01 +1.3353367022e+01 +4.2055394380e+00 4.2607163842e+01 0.0000000000e+00 0.0000e+00 1.0000e+00
       22  1    3    3    0    0 +4.3030667586e+01 -1.0235002046e+02 +1.3429288311e+01 1.1183698326e+02 0.0000000000e+00 0.0000e+00 1.0000e+00
<rwgt>
<wgt id='SM'> +1.0259571e-05 </wgt>
<wgt id='morphing_basis_vector_2'> +1.0547033e-05 </wgt>
<wgt id='morphing_basis_vector_3'> +1.0188954e-05 </wgt>
<wgt id='morphing_basis_vector_4'> +1.0455050e-05 </wgt>
<wgt id='morphing_basis_vector_5'> +9.9545785e-06 </wgt>
</rwgt>
</event>
<event>
 7      1 +1.0152000e-05 7.56177500e+01 7.81860800e-03 1.39738100e-01
        2 -1    0    0  502    0 +0.0000000000e+00 +0.0000000000e+00 +6.3870427877e+02 6.3870427877e+02 0.0000000000e+00 0.0000e+00 -1.0000e+00
        1 -1    0    0  501    0 -0.0000000000e+00 -0.0000000000e+00 -7.8210388130e+02 7.8210388130e+02 0.0000000000e+00 0.0000e+00 -1.0000e+00
       25  2    1    2    0    0 +4.2376726997e+01 +1.8775806687e+00 +8.3749693676e+01 1.5633215604e+02 1.2500567795e+02 0.0000e+00 0.0000e+00
        2  1    1    2  501    0 -6.4733373891e+01 +4.0347823431e+01 -7.4275492645e+02 7.4666139402e+02 0.0000000000e+00 0.0000e+00 -1.0000e+00
        1  1    1    2  502    0 +2.2356646894e+01 -4.2225404100e+01 +5.1560563024e+02 5.1781461002e+02 0.0000000000e+00 0.0000e+00 -1.0000e+00
       22  1    3    3    0    0 +8.1539725278e+01 +6.1984505557e+00 +2.4846936293e+01 8.5466471969e+01 0.0000000000e+00 0.0000e+00 1.0000e+00
       22  1    3    3    0    0 -3.9162998281e+01 -4.3208698870e+00 +5.8902757383e+01 7.0865684067e+01 0.0000000000e+00 0.0000e+00 1.0000e+00
<rwgt>
<wgt id='SM'> +1.0160933e-05 </wgt>
<wgt id='morphing_basis_vector_2'> +1.0274373e-05 </wgt>
<wgt id='morphing_basis_vector_3'> +1.0081348e-05 </wgt>
<wgt id='morphing_basis_vector_4'> +1.0286095e-05 </wgt>
<wgt id='morphing_basis_vector_5'> +1.0019157e-05 </wgt>
</rwgt>
</event>
<event>
 7      1 +1.0152000e-05 1.10894800e+02 7.81860800e-03 1.39798500e-01
        2 -1    0    0  502    0 +0.0000000000e+00 +0.0000000000e+00 +1.0061373738e+03 1.0061373738e+03 0.0000000000e+00 0.0000e+00 -1.0000e+00
        1 -1    0    0  501    0 -0.0000000000e+00 -0.0000000000e+00 -8.0942357887e+01 8.0942357887e+01 0.0000000000e+00 0.0000e+00 -1.0000e+00
       25  2    1    2    0    0 +9.0458411075e+01 -9.0630207410e+00 +7.3850215876e+02 7.5450382838e+02 1.2500290422e+02 0.0000e+00 0.0000e+00
        2  1    1    2  501    0 -1.1107870304e+02 -1.5958947385e+01 -2.7828299243e+01 1.1561825336e+02 0.0000000000e+00 0.0000e+00 -1.0000e+00
        1  1    1    2  502    0 +2.0620291968e+01 +2.5021968126e+01 +2.1452115639e+02 2.1695764994e+02 0.0000000000e+00 0.0000e+00 -1.0000e+00
       22  1    3    3    0    0 +1.0393365157e+02 +5.9041431104e+00 +3.4205271462e+02 3.5754317559e+02 0.0000000000e+00 0.0000e+00 -1.0000e+00
       22  1    3    3    0    0 -1.3475240493e+01 -1.4967163851e+01 +3.9644944414e+02 3.9696065278e+02 0.0000000000e+00 0.0000e+00 -1.0000e+00
<rwgt>
<wgt id='SM'> +1.0251606e-05 </wgt>
<wgt id='morphing_basis_vector_2'> +9.9805381e-06 </wgt>
<wgt id='morphing_basis_vector_3'> +1.0638929e-05 </wgt>
<wgt id='morphing_basis_vector_4'> +9.7872649e-06 </wgt>
<wgt id='morphing_basis_vector_5'> +1.0675532e-05 </wgt>
</rwgt>
</event>
<event>
 7      1 +1.0152000e-05 7.61345900e+01 7.81860800e-03 1.34965100e-01
        2 -1    0    0  502    0 +0.0000000000e+00 +0.0000000000e+00 +1.0934664285e+02 1.0934664285e+02 0.0000000000e+00 0.0000e+00 -1.0000e+00
        1 -1    0    0  501    0 -0.0000000000e+00 -0.0000000000e+00 -3.2438539491e+03 3.2438539491e+03 0.0000000000e+00 0.0000e+00 -1.0000e+00
       25  2    1    2    0    0 -6.3833346784e+01 -1.2549599604e+02 -2.4765507500e+03 2.4836977574e+03 1.2500796638e+02 0.0000e+00 0.0000e+00
        2  1    1    2  501    0 +1.3237088022e+01 +6.9052978124e+01 -7.4828629828e+02 7.5158227659e+02 0.0000000000e+00 0.0000e+00 -1.0000e+00
        1  1    1    2  502    0 +5.0596258761e+01 +5.6443017920e+01 +9.0329742077e+01 1.1792055790e+02 0.0000000000e+00 0.0000e+00 -1.0000e+00
       22  1    3    3    0    0 -3.9499033098e+01 +1.7511858368e+01 -5.5580726947e+02 5.5748413394e+02 0.0000000000e+00 0.0000e+00 1.0000e+00
       22  1    3    3    0    0 -2.4334313686e+01 -1.4300785441e+02 -1.9207434805e+03 1.9262136235e+03 0.0000000000e+00 0.0000e+00 1.0000e+00
<rwgt>
<wgt id='SM'> +1.1158030e-05 </wgt>
<wgt id='morphing_basis_vector_2'> +1.1639700e-05 </wgt>
<wgt id='morphing_basis_vector_3'> +1.2379012e-05 </wgt>
<wgt id='morphing_basis_vector_4'> +1.0299772e-05 </wgt>
<wgt id='morphing_basis_vector_5'> +1.1179168e-05 </wgt>
</rwgt>
</event>
<event>
 7      1 +1.0152000e-05 3.76154900e+02 7.81860800e-03 1.29490500e-01
        2 -1    0    0  502    0 +0.0000000000e+00 +0.0000000000e+00 +1.0499096709e+03 1.0499096709e+03 0.0000000000e+00 0.0000e+00 -1.0000e+00
        1 -1    0    0  501    0 -0.0000000000e+00 -0.0000000000e+00 -4.7148941240e+02 4.7148941240e+02 0.0000000000e+00 0.0000e+00 -1.0000e+00
       25  2    1    2    0    0 +2.9671859754e+02 -2.3052903920e+02 -4.5317186493e+01 3.9857780678e+02 1.2500022648e+02 0.0000e+00 0.0000e+00
        2  1    1    2  501    0 -1.4312628386e+01 -1.8224923600e+01 -2.0832369627e+02 2.0960859143e+02 0.0000000000e+00 0.0000e+00 -1.0000e+00
        1  1    1    2  502    0 -2.8240596916e+02 +2.4875396280e+02 +8.3206114125e+02 9.1321268509e+02 0.0000000000e+00 0.0000e+00 -1.0000e+00
       22  1    3    3    0    0 +2.4837532845e+02 -2.3850128013e+02 -2.4105862873e+01 3.4518727820e+02 0.0000000000e+00 0.0000e+00 -1.0000e+00
       22  1    3    3    0    0 +4.8343269092e+01 +7.9722409277e+00 -2.1211323620e+01 5.3390528575e+01 0.0000000000e+00 0.0000e+00 -1.0000e+00
<rwgt>
<wgt id='SM'> +1.3855214e-05 </wgt>
<wgt id='morphing_basis_vector_2'> +1.6341471e-05 </wgt>
<wgt id='morphing_basis_vector_3'> +1.8306993e-05 </wgt>
<wgt id='morphing_basis_vector_4'> +1.1253414e-05 </wgt>
<wgt id='morphing_basis_vector_5'> +1.3178187e-05 </wgt>
</rwgt>
</event>
<event>
 7      1 +1.0152000e-05 5.48517900e+01 7.81860800e-03 1.51815500e-01
        2 -1    0    0  502    0 +0.0000000000e+00 +0.0000000000e+00 +8.4465587364e+02 8.4465587364e+02 0.0000000000e+00 0.0000e+00 -1.0000e+00
        1 -1    0    0  501    0 -0.0000000000e+00 -0.0000000000e+00 -5.1309003766e+01 5.1309003766e+01 0.0000000000e+00 0.0000e+00 -1.0000e+00
       25  2    1    2    0    0 -4.3303756846e+01 -6.6725526194e+01 +2.6042110925e+02 2.9962096053e+02 1.2500421851e+02 0.0000e+00 0.0000e+00
        2  1    1    2  501    0 +3.2692645648e+01 +4.1597930696e+01 -9.0554366405e+00 5.3676790612e+01 0.0000000000e+00 0.0000e+00 -1.0000e+00
        1  1    1    2  502    0 +1.0611111198e+01 +2.5127595498e+01 +5.4198119726e+02 5.4266712626e+02 0.0000000000e+00 0.0000e+00 -1.0000e+00
       22  1    3    3    0    0 -8.7573737229e+00 +2.9086845853e+01 +1.4944508324e+01 3.3853722473e+01 0.0000000000e+00 0.0000e+00 -1.0000e+00
       22  1    3    3    0    0 -3.4546383123e+01 -9.5812372047e+01 +2.4547660093e+02 2.6576723806e+02 0.0000000000e+00 0.0000e+00 -1.0000e+00
<rwgt>
<wgt id='SM'> +1.0323832e-05 </wgt>
<wgt id='morphing_basis_vector_2'> +1.0510821e-05 </wgt>
<wgt id='morphing_basis_vector_3'> +1.0434504e-05 </wgt>
<wgt id='morphing_basis_vector_4'> +1.0306654e-05 </wgt>
<wgt id='morphing_basis_vector_5'> +1.0186157e-05 </wgt>
</rwgt>
</event>
<event>
 7      1 +1.0152000e-05 9.70513700e+01 7.81860800e-03 1.41135100e-01
        2 -1    0    0  502    0 +0.0000000000e+00 +0.0000000000e+00 +8.5931526456e+02 8.5931526456e+02 0.0000000000e+00 0.0000e+00 -1.0000e+00
        1 -1    0    0  501    0 -0.0000000000e+00 -0.0000000000e+00 -3.6802632349e+01 3.6802632349e+01 0.0000000000e+00 0.0000e+00 -1.0000e+00
       25  2    1    2    0    0 -9.0372522264e+01 -5.2438003695e+01 +3.9184957451e+02 4.2436663703e+02 1.2499606621e+02 0.0000e+00 0.0000e+00
        2  1    1    2  501    0 +9.4151680116e+01 +1.9300715674e+01 +9.7440727399e+01 1.3686399033e+02 0.0000000000e+00 0.0000e+00 -1.0000e+00
        1  1    1    2  502    0 -3.7791578517e+00 +3.3137288021e+01 +3.3322233030e+02 3.3488726954e+02 0.0000000000e+00 0.0000e+00 -1.0000e+00
       22  1    3    3    0    0 -4.6608975701e+01 -8.2556962723e+01 +3.2736386025e+02 3.4081541296e+02 0.0000000000e+00 0.0000e+00 1.0000e+00
       22  1    3    3    0    0 -4.3763546563e+01 +3.0118959028e+01 +6.4485714257e+01 8.3551224072e+01 0.0000000000e+00 0.0000e+00 1.0000e+00
<rwgt>
<wgt id='SM'> +1.0391767e-05 </wgt>
<wgt id='morphing_basis_vector_2'> +1.1093416e-05 </wgt>
<wgt id='morphing_basis_vector_3'> +1.0194432e-05 </wgt>
<wgt id='morphing_basis_vector_4'> +1.0893432e-05 </wgt>
<wgt id='morphing_basis_vector_5'> +9.6525360e-06 </wgt>
</rwgt>
</event>
<event>
 7      1 +1.0152000e-05 1.54853400e+02 7.81860800e-03 1.23027100e-01
        2 -1    0    0  502    0 +0.0000000000e+00 +0.0000000000e+00 +2.7934000538e+03 2.7934000538e+03 0.0000000000e+00 0.0000e+00 -1.0000e+00
        1 -1    0    0  501    0 -0.0000000000e+00 -0.0000000000e+00 -1.5677129922e+03 1.5677129922e+03 0.0000000000e+00 0.0000e+00 -1.0000e+00
       25  2    1    2    0    0 -3.0171240197e+01 -1.5562260441e+02 +4.2492445482e+02 4.7044060048e+02 1.2499947015e+02 0.0000e+00 0.0000e+00
        2  1    1    2  501    0 -9.1152738438e+01 +5.4109908932e+01 -1.5404643867e+03 1.5441072601e+03 0.0000000000e+00 0.0000e+00 -1.0000e+00
        1  1    1    2  502    0 +1.2132397864e+02 +1.0151269548e+02 +2.3412269934e+03 2.3465651855e+03 0.0000000000e+00 0.0000e+00 -1.0000e+00
       22  1    3    3    0    0 -4.5848476487e+01 -9.3095261274e+00 +5.4310292875e+01 7.1682340817e+01 0.0000000000e+00 0.0000e+00 -1.0000e+00
       22  1    3    3    0    0 +1.5677236290e+01 -1.4631307828e+02 +3.7061416195e+02 3.9875825967e+02 0.0000000000e+00 0.0000e+00 -1.0000e+00
<rwgt>
<wgt id='SM'> +1.0813415e-05 </wgt>
<wgt id='morphing_basis_vector_2'> +1.0469908e-05 </wgt>
<wgt id='morphing_basis_vector_3'> +1.2167451e-05 </wgt>
<wgt id='morphing_basis_vector_4'> +9.4886167e-06 </wgt>
<wgt id='morphing_basis_vector_5'> +1.1691103e-05 </wgt>
</rwgt>
</event>
<event>
 7      1 +1.0152000e-05 7.44468700e+01 7.81860800e-03 1.38962200e-01
        2 -1    0    0  502    0 +0.0000000000e+00 +0.0000000000e+00 +8.7336094743e+02 8.7336094743e+02 0.0000000000e+00 0.0000e+00 -1.0000e+00
        1 -1    0    0  501    0 -0.0000000000e+00 -0.0000000000e+00 -3.6701222754e+02 3.6701222754e+02 0.0000000000e+00 0.0000e+00 -1.0000e+00
       25  2    1    2    0    0 +1.8336499589e+01 +1.6318649662e+01 +1.0117156014e+02 1.6268273892e+02 1.2500985328e+02 0.0000e+00 0.0000e+00
        2  1    1    2  501    0 -5.2906228106e+01 -5.4674378867e+01 -3.3103723410e+02 3.3966749482e+02 0.0000000000e+00 0.0000e+00 -1.0000e+00
        1  1    1    2  502    0 +3.4569728518e+01 +3.8355729205e+01 +7.3621439385e+02 7.3802294124e+02 0.0000000000e+00 0.0000e+00 -1.0000e+00
       22  1    3    3    0    0 +1.9839958278e+01 -4.5867833270e+01 +8.4683595791e+01 9.8330023235e+01 0.0000000000e+00 0.0000e+00 -1.0000e+00
       22  1    3    3    0    0 -1.5034586889e+00 +6.2186482932e+01 +1.6487964348e+01 6.4352715683e+01 0.0000000000e+00 0.0000e+00 -1.0000e+00
<rwgt>
<wgt id='SM'> +1.0161334e-05 </wgt>
<wgt id='morphing_basis_vector_2'> +1.0161521e-05 </wgt>
<wgt id='morphing_basis_vector_3'> +1.0175498e-05 </wgt>
<wgt id='morphing_basis_vector_4'> +1.0148415e-05 </wgt>
<wgt id='morphing_basis_vector_5'> +1.0166809e-05 </wgt>
</rwgt>
</event>
<event>
 7      1 +1.0152000e-05 4.03325700e+01 7.81860800e-03 1.53043000e-01
        2 -1    0    0  502    0 +0.0000000000e+00 +0.0000000000e+00 +8.2932847656e+02 8.2932847656e+02 0.0000000000e+00 0.0000e+00 -1.0000e+00
        1 -1    0    0  501    0 -0.0000000000e+00 -0.0000000000e+00 -1.7494379078e+01 1.7494379078e+01 0.0000000000e+00 0.0000e+00 -1.0000e+00
       25  2    1    2    0    0 +1.9646108994e+01 -9.5459567126e+00 +5.0909991233e+02 5.2467268095e+02 1.2498642531e+02 0.0000e+00 0.0000e+00
        2  1    1    2  501    0 +2.4448970257e+01 +2.3897867350e+01 +2.9947533151e+01 4.5450136989e+01 0.0000000000e+00 0.0000e+00 -1.0000e+00
        1  1    1    2  502    0 -4.4095079251e+01 -1.4351910638e+01 +2.7278665201e+02 2.7670003770e+02 0.0000000000e+00 0.0000e+00 -1.0000e+00
       22  1    3    3    0    0 -1.5975906046e+01 -5.9486023338e+01 +1.9013942404e+02 1.9986699858e+02 0.0000000000e+00 0.0000e+00 1.0000e+00
       22  1    3    3    0    0 +3.5622015040e+01 +4.9940066625e+01 +3.1896048828e+02 3.2480568236e+02 0.0000000000e+00 0.0000e+00 1.0000e+00
<rwgt>
<wgt id='SM'> +1.0114718e-05 </wgt>
<wgt id='morphing_basis_vector_2'> +1.0188068e-05 </wgt>
<wgt id='morphing_basis_vector_3'> +9.9987020e-06 </wgt>
<wgt id='morphing_basis_vector_4'> +1.0256640e-05 </wgt>
<wgt id='morphing_basis_vector_5'> +9.9992017e-06 </wgt>
</rwgt>
</event>
<event>
 7      1 +1.0152000e-05 1.61154800e+02 7.81860800e-03 1.25639200e-01
        2 -1    0    0  502    0 +0.0000000000e+00 +0.0000000000e+00 +4.8016535479e+02 4.8016535479e+02 0.0000000000e+00 0.0000e+00 -1.0000e+00
        1 -1    0    0  501    0 -0.0000000000e+00 -0.0000000000e+00 -2.8200343243e+02 2.8200343243e+02 0.0000000000e+00 0.0000e+00 -1.0000e+00
       25  2    1    2    0    0 -4.3883127119e+01 -1.2718710822e+02 -1.2085257833e+02 2.1984603904e+02 1.2499858339e+02 0.0000e+00 0.0000e+00
        2  1    1    2  501    0 +6.9489901301e+01 -3.5949436513e+01 -7.9138089523e+01 1.1128362675e+02 0.0000000000e+00 0.0000e+00 -1.0000e+00
        1  1    1    2  502    0 -2.5606774181e+01 +1.6313654473e+02 +3.9815259021e+02 4.3103912143e+02 0.0000000000e+00 0.0000e+00 -1.0000e+00
       22  1    3    3    0    0 -1.0227460223e+01 -4.6921595382e+01 +2.1798843999e+01 5.2739232602e+01 0.0000000000e+00 0.0000e+00 -1.0000e+00
       22  1    3    3    0    0 -3.3655666897e+01 -8.0265512835e+01 -1.4265142233e+02 1.6710680643e+02 0.0000000000e+00 0.0000e+00 -1.0000e+00
<rwgt>
<wgt id='SM'> +1.0188005e-05 </wgt>
<wgt id='morphing_basis_vector_2'> +1.1339575e-05 </wgt>
<wgt id='morphing_basis_vector_3'> +9.3486308e-06 </wgt>
<wgt id='morphing_basis_vector_4'> +1.1527822e-05 </wgt>
<wgt id='morphing_basis_vector_5'> +8.8260977e-06 </wgt>
</rwgt>
</event>
<event>
 7      1 +1.0152000e-05 3.73895400e+01 7.81860800e-03 1.60003200e-01
        2 -1    0    0  502    0 +0.0000000000e+00 +0.0000000000e+00 +4.8630057159e+02 4.8630057159e+02 0.0000000000e+00 0.0000e+00 -1.0000e+00
        1 -1    0    0  501    0 -0.0000000000e+00 -0.0000000000e+00 -3.2431513813e+03 3.2431513813e+03 0.0000000000e+00 0.0000e+00 -1.0000e+00
       25  2    1    2    0    0 +1.0309174871e+01 -3.7715665730e+01 -5.4075317081e+02 5.5638831745e+02 1.2500087012e+02 0.0000e+00 0.0000e+00
        2  1    1    2  501    0 -2.9297537805e+01 +2.3382376266e+01 -2.6941544536e+03 2.6944152058e+03 0.0000000000e+00 0.0000e+00 -1.0000e+00
        1  1    1    2  502    0 +1.8988362933e+01 +1.4333289464e+01 +4.7805681471e+02 4.7864842965e+02 0.0000000000e+00 0.0000e+00 -1.0000e+00
       22  1    3    3    0    0 +3.9550392584e+00 -5.3344975832e+01 -5.3627006390e+02 5.3893126669e+02 0.0000000000e+00 0.0000e+00 1.0000e+00
       22  1    3    3    0    0 +6.3541356131e+00 +1.5629310102e+01 -4.4831069045e+00 1.7457050758e+01 0.0000000000e+00 0.0000e+00 1.0000e+00
<rwgt>
<wgt id='SM'> +1.0189833e-05 </wgt>
<wgt id='morphing_basis_vector_2'> +1.0174600e-05 </wgt>
<wgt id='morphing_basis_vector_3'> +1.0260473e-05 </wgt>
<wgt id='morphing_basis_vector_4'> +1.0118050e-05 </wgt>
<wgt id='morphing_basis_vector_5'> +1.0232789e-05 </wgt>
</rwgt>
</event>
<event>
 7      1 +1.0152000e-05 3.60400500e+01 7.81860800e-03 1.55824000e-01
        2 -1    0    0  502    0 +0.0000000000e+00 +0.0000000000e+00 +5.6744578091e+01 5.6744578091e+01 0.0000000000e+00 0.0000e+00 -1.0000e+00
        1 -1    0    0  501    0 -0.0000000000e+00 -0.0000000000e+00 -1.3074960081e+03 1.3074960081e+03 0.0000000000e+00 0.0000e+00 -1.0000e+00
       25  2    1    2    0    0 +4.3749269138e+01 -2.9089496077e+00 -2.1621227283e+02 2.5356405278e+02 1.2499808559e+02 0.0000e+00 0.0000e+00
        2  1    1    2  501    0 -2.3383863989e+01 +2.7537787630e+01 -1.0655401981e+03 1.0661524509e+03 0.0000000000e+00 0.0000e+00 -1.0000e+00
        1  1    1    2  502    0 -2.0365405149e+01 -2.4628838022e+01 +3.1001040883e+01 4.4524082529e+01 0.0000000000e+00 0.0000e+00 -1.0000e+00
       22  1    3    3    0    0 +5.0698771795e+00 -3.5756651040e+00 +1.6515849397e+01 1.7642627833e+01 0.0000000000e+00 0.0000e+00 -1.0000e+00
       22  1    3    3    0    0 +3.8679391958e+01 +6.6671549634e-01 -2.3272812223e+02 2.3592142494e+02 0.0000000000e+00 0.0000e+00 -1.0000e+00
<rwgt>
<wgt id='SM'> +1.0179298e-05 </wgt>
<wgt id='morphing_basis_vector_2'> +1.0284504e-05 </wgt>
<wgt id='morphing_basis_vector_3'> +1.0134482e-05 </wgt>
<wgt id='morphing_basis_vector_4'> +1.0268393e-05 </wgt>
<wgt id='morphing_basis_vector_5'> +1.0059210e-05 </wgt>
</rwgt>
</event>
<event>
 7      1 +1.0152000e-05 3.79151100e+01 7.81860800e-03 1.60474900e-01
        2 -1    0    0  502    0 +0.0000000000e+00 +0.0000000000e+00 +1.4848978778e+02 1.4848978778e+02 0.0000000000e+00 0.0000e+00 -1.0000e+00
        1 -1    0    0  501    0 -0.0000000000e+00 -0.0000000000e+00 -3.1237045310e+02 3.1237045310e+02 0.0000000000e+00 0.0000e+00 -1.0000e+00
       25  2    1    2    0    0 -2.5804235700e+01 +2.0109506557e+01 +4.5610408465e+00 1.2928376526e+02 1.2499295193e+02 0.0000e+00 0.0000e+00
        2  1    1    2  501    0 +1.0230532481e+01 -3.6770780751e+01 -2.4691948983e+02 2.4985193329e+02 0.0000000000e+00 0.0000e+00 -1.0000e+00
        1  1    1    2  502    0 +1.5573703219e+01 +1.6661274193e+01 +7.8477783660e+01 8.1724542323e+01 0.0000000000e+00 0.0000e+00 -1.0000e+00
       22  1    3    3    0    0 -4.3516666914e+01 +6.6274858411e+01 +8.1763139190e+00 7.9705139520e+01 0.0000000000e+00 0.0000e+00 1.0000e+00
       22  1    3    3    0    0 +1.7712431214e+01 -4.6165351853e+01 -3.6152730725e+00 4.9578625744e+01 0.0000000000e+00 0.0000e+00 1.0000e+00
<rwgt>
<wgt id='SM'> +1.0161813e-05 </wgt>
<wgt id='morphing_basis_vector_2'> +1.0232120e-05 </wgt>
<wgt id='morphing_basis_vector_3'> +1.0118927e-05 </wgt>
<wgt id='morphing_basis_vector_4'> +1.0233311e-05 </wgt>
<wgt id='morphing_basis_vector_5'> +1.0076331e-05 </wgt>
</rwgt>
</event>
<event>
 7      1 +1.0152000e-05 3.98713000e+01 7.81860800e-03 1.52846100e-01
        2 -1    0    0  502    0 +0.0000000000e+00 +0.0000000000e+00 +2.8581812100e+03 2.8581812100e+03 0.0000000000e+00 0.0000e+00 -1.0000e+00
        1 -1    0    0  501    0 -0.0000000000e+00 -0.0000000000e+00 -5.2818574113e+01 5.2818574113e+01 0.0000000000e+00 0.0000e+00 -1.0000e+00
       25  2    1    2    0    0 -2.9913867217e+01 -1.3109540499e+00 +5.4741435207e+02 5.6230215949e+02 1.2499875067e+02 0.0000e+00 0.0000e+00
        2  1    1    2  501    0 +6.6687103426e+00 +3.4396023454e+01 -3.8406600376e+01 5.1986777930e+01 0.0000000000e+00 0.0000e+00 -1.0000e+00
        1  1    1    2  502    0 +2.3245156874e+01 -3.3085069404e+01 +2.2963548841e+03 2.2967108466e+03 0.0000000000e+00 0.0000e+00 -1.0000e+00
       22  1    3    3    0    0 -3.2406782315e+01 -4.9179464551e+01 +1.3734087069e+02 1.4943672251e+02 0.0000000000e+00 0.0000e+00 1.0000e+00
       22  1    3    3    0    0 +2.4929150985e+00 +4.7868510501e+01 +4.1007348138e+02 4.1286543698e+02 0.0000000000e+00 0.0000e+00 1.0000e+00
<rwgt>
<wgt id='SM'> +1.0180492e-05 </wgt>
<wgt id='morphing_basis_vector_2'> +1.0142693e-05 </wgt>
<wgt id='morphing_basis_vector_3'> +1.0255507e-05 </wgt>
<wgt id='morphing_basis_vector_4'> +1.0094521e-05 </wgt>
<wgt id='morphing_basis_vector_5'> +1.0247345e-05 </wgt>
</rwgt>
</event>
<event>
 7      1 +1.0152000e-05 1.08454400e+02 7.81860800e-03 1.40399900e-01
        2 -1    0    0  502    0 +0.0000000000e+00 +0.0000000000e+00 +2.6470230412e+03 2.6470230412e+03 0.0000000000e+00 0.0000e+00 -1.0000e+00
        1 -1    0    0  501    0 -0.0000000000e+00 -0.0000000000e+00 -1.0057489127e+03 1.0057489127e+03 0.0000000000e+00 0.0000e+00 -1.0000e+00
       25  2    1    2    0    0 -1.2777784364e+02 -3.7196405121e+01 -2.3299442333e+02 2.9600978057e+02 1.2499855603e+02 0.0000e+00 0.0000e+00
        2  1    1    2  501    0 +2.0187006508e+01 +2.4329373635e+01 -7.3978679744e+02 7.4046197696e+02 0.0000000000e+00 0.0000e+00 -1.0000e+00
        1  1    1    2  502    0 +1.0759083713e+02 +1.2867031486e+01 +2.6140553493e+03 2.6163001964e+03 0.0000000000e+00 0.0000e+00 -1.0000e+00
       22  1    3    3    0    0 -5.0673221745e+01 -4.3564364359e+01 -2.0546196227e+01 6.9912627067e+01 0.0000000000e+00 0.0000e+00 1.0000e+00
       22  1    3    3    0    0 -7.7104621895e+01 +6.3679592389e+00 -2.1244822711e+02 2.2609715350e+02 0.0000000000e+00 0.0000e+00 1.0000e+00
<rwgt>
<wgt id='SM'> +1.0500061e-05 </wgt>
<wgt id='morphing_basis_vector_2'> +1.0662061e-05 </wgt>
<wgt id='morphing_basis_vector_3'> +1.0907644e-05 </wgt>
<wgt id='morphing_basis_vector_4'> +1.0203175e-05 </wgt>
<wgt id='morphing_basis_vector_5'> +1.0502610e-05 </wgt>
</rwgt>
</event>
<event>
 7      1 +1.0152000e-05 7.59323200e+01 7.81860800e-03 1.47892300e-01
        2 -1    0    0  502    0 +0.0000000000e+00 +0.0000000000e+00 +4.5945170136e+02 4.5945170136e+02 0.0000000000e+00 0.0000e+00 -1.0000e+00
        1 -1    0    0  501    0 -0.0000000000e+00 -0.0000000000e+00 -3.4476918145e+02 3.4476918145e+02 0.0000000000e+00 0.0000e+00 -1.0000e+00
       25  2    1    2    0    0 -4.7507110279e+01 +4.4956262992e+01 -9.3091323277e+01 1.6902516028e+02 1.2500207690e+02 0.0000e+00 0.0000e+00
        2  1    1    2  501    0 +1.2260653264e+01 +2.2718111309e+01 -2.0945865839e+02 2.1104351630e+02 0.0000000000e+00 0.0000e+00 -1.0000e+00
        1  1    1    2  502    0 +3.5246457015e+01 -6.7674374301e+01 +4.1723250157e+02 4.2415220622e+02 0.0000000000e+00 0.0000e+00 -1.0000e+00
       22  1    3    3    0    0 -3.7226584260e+01 +7.0769130666e+00 +2.4454844140e+01 4.5099231436e+01 0.0000000000e+00 0.0000e+00 -1.0000e+00
       22  1    3    3    0    0 -1.0280526019e+01 +3.7879349925e+01 -1.1754616742e+02 1.2392592885e+02 0.0000000000e+00 0.0000e+00 -1.0000e+00
<rwgt>
<wgt id='SM'> +1.0244274e-05 </wgt>
<wgt id='morphing_basis_vector_2'> +1.0210499e-05 </wgt>
<wgt id='morphing_basis_vector_3'> +1.0414436e-05 </wgt>
<wgt id='morphing_basis_vector_4'> +1.0073527e-05 </wgt>
<wgt id='morphing_basis_vector_5'> +1.0344877e-05 </wgt>
</rwgt>
</event>
<event>
 7      1 +1.0152000e-05 8.11886200e+01 7.81860800e-03 1.39137400e-01
        2 -1    0    0  502    0 +0.0000000000e+00 +0.0000000000e+00 +2.1504466773e+03 2.1504466773e+03 0.0000000000e+00 0.0000e+00 -1.0000e+00
        1 -1    0    0  501    0 -0.0000000000e+00 -0.0000000000e+00 -4.7211987040e+02 4.7211987040e+02 0.0000000000e+00 0.0000e+00 -1.0000e+00
       25  2    1    2    0    0 -4.1970002415e+01 -2.1284856593e+01 +1.1763035171e+03 1.1838623925e+03 1.2500269561e+02 0.0000e+00 0.0000e+00
        2  1    1    2  501    0 +8.1210396979e+01 -4.0093563108e+00 -4.6424352635e+02 4.7131014764e+02 0.0000000000e+00 0.0000e+00 -1.0000e+00
        1  1    1    2  502    0 -3.9240394565e+01 +2.5294212904e+01 +9.6626681623e+02 9.6739400759e+02 0.0000000000e+00 0.0000e+00 -1.0000e+00
       22  1    3    3    0    0 -7.4858769745e+01 +1.4405697497e+01 +4.9535766878e+02 5.0118916544e+02 0.0000000000e+00 0.0000e+00 1.0000e+00
       22  1    3    3    0    0 +3.2888767330e+01 -3.5690554091e+01 +6.8094584827e+02 6.8267322706e+02 0.0000000000e+00 0.0000e+00 1.0000e+00
<rwgt>
<wgt id='SM'> +1.0138527e-05 </wgt>
<wgt id='morphing_basis_vector_2'> +1.0281247e-05 </wgt>
<wgt id='morphing_basis_vector_3'> +1.0001344e-05 </wgt>
<wgt id='morphing_basis_vector_4'> +1.0331041e-05 </wgt>
<wgt id='morphing_basis_vector_5'> +9.9464851e-06 </wgt>
</rwgt>
</event>
<event>
 7      1 +1.0152000e-05 4.01977900e+01 7.81860800e-03 1.55363400e-01
        2 -1    0    0  502    0 +0.0000000000e+00 +0.0000000000e+00 +2.7172843766e+02 2.7172843766e+02 0.0000000000e+00 0.0000e+00 -1.0000e+00
        1 -1    0    0  501    0 -0.0000000000e+00 -0.0000000000e+00 -7.5609355677e+02 7.5609355677e+02 0.0000000000e+00 0.0000e+00 -1.0000e+00
       25  2    1    2    0    0 +5.0382044647e+00 -6.8156953105e+01 -4.4326077845e+02 4.6559154499e+02 1.2499846119e+02 0.0000e+00 0.0000e+00
        2  1    1    2  501    0 +4.3951116965e+00 +2.9177134936e+01 -2.9939464947e+02 3.0084510689e+02 0.0000000000e+00 0.0000e+00 -1.0000e+00
        1  1    1    2  502    0 -9.4333161613e+00 +3.8979818169e+01 +2.5829030880e+02 2.6138534255e+02 0.0000000000e+00 0.0000e+00 -1.0000e+00
       22  1    3    3    0    0 -3.9049764892e+01 -2.9753231036e+01 -3.6293073699e+02 3.6623606970e+02 0.0000000000e+00 0.0000e+00 1.0000e+00
       22  1    3    3    0    0 +4.4087969357e+01 -3.8403722069e+01 -8.0330041456e+01 9.9355475295e+01 0.0000000000e+00 0.0000e+00 1.0000e+00
<rwgt>
<wgt id='SM'> +1.0274879e-05 </wgt>
<wgt id='morphing_basis_vector_2'> +1.0424459e-05 </wgt>
<wgt id='morphing_basis_vector_3'> +1.0340539e-05 </wgt>
<wgt id='morphing_basis_vector_4'> +1.0282132e-05 </wgt>
<wgt id='morphing_basis_vector_5'> +1.0155537e-05 </wgt>
</rwgt>
</event>
<event>
 7      1 +1.0152000e-05 6.67269700e+01 7.81860800e-03 1.37319500e-01
        2 -1    0    0  502    0 +0.0000000000e+00 +0.0000000000e+00 +9.9495425114e+02 9.9495425114e+02 0.0000000000e+00 0.0000e+00 -1.0000e+00
        1 -1    0    0  501    0 -0.0000000000e+00 -0.0000000000e+00 -5.8385142470e+01 5.8385142470e+01 0.0000000000e+00 0.0000e+00 -1.0000e+00
       25  2    1    2    0    0 -1.8073349737e+01 +7.6157344945e+00 +2.2717154443e+02 2.6003032547e+02 1.2499685668e+02 0.0000e+00 0.0000e+00
        2  1    1    2  501    0 +6.2033915510e+01 +4.1411634440e+01 -6.0556774435e+00 7.4831820570e+01 0.0000000000e+00 0.0000e+00 -1.0000e+00
        1  1    1    2  502    0 -4.3960565773e+01 -4.9027368934e+01 +7.1545324168e+02 7.1847724757e+02 0.0000000000e+00 0.0000e+00 -1.0000e+00
       22  1    3    3    0    0 +1.2038554034e+00 +2.0669530578e+01 -9.0988717345e+00 2.2615663355e+01 0.0000000000e+00 0.0000e+00 1.0000e+00
       22  1    3    3    0    0 -1.9277205141e+01 -1.3053796084e+01 +2.3627041617e+02 2.3741466211e+02 0.0000000000e+00 0.0000e+00 1.0000e+00
<rwgt>
<wgt id='SM'> +1.0165983e-05 </wgt>
<wgt id='morphing_basis_vector_2'> +1.0091248e-05 </wgt>
<wgt id='morphing_basis_vector_3'> +1.0249885e-05 </wgt>
<wgt id='morphing_basis_vector_4'> +1.0055909e-05 </wgt>
<wgt id='morphing_basis_vector_5'> +1.0273096e-05 </wgt>
</rwgt>
</event>
<event>
 7      1 +1.0152000e-05 1.13117300e+02 7.81860800e-03 1.35021000e-01
        2 -1    0    0  502    0 +0.0000000000e+00 +0.0000000000e+00 +2.6163453782e+02 2.6163453782e+02 0.0000000000e+00 0.0000e+00 -1.0000e+00
        1 -1    0    0  501    0 -0.0000000000e+00 -0.0000000000e+00 -6.3372015871e+02 6.3372015871e+02 0.0000000000e+00 0.0000e+00 -1.0000e+00
       25  2    1    2    0    0 -3.5846999293e+01 -8.4467637355e+01 -1.7342326084e+02 2.3263708669e+02 1.2499839033e+02 0.0000e+00 0.0000e+00
        2  1    1    2  501    0 -4.6889117495e+01 +4.4283279997e+00 -4.1499755497e+02 4.1766154966e+02 0.0000000000e+00 0.0000e+00 -1.0000e+00
        1  1    1    2  502    0 +8.2736116788e+01 +8.0039309355e+01 +2.1633519492e+02 2.4505606017e+02 0.0000000000e+00 0.0000e+00 -1.0000e+00
       22  1    3    3    0    0 -6.8452061075e+01 -8.0753949184e+00 -5.6006338052e+01 8.8812198321e+01 0.0000000000e+00 0.0000e+00 1.0000e+00
       22  1    3    3    0    0 +3.2605061782e+01 -7.6392242436e+01 -1.1741692279e+02 1.4382488837e+02 0.0000000000e+00 0.0000e+00 1.0000e+00
<rwgt>
<wgt id='SM'> +1.0347170e-05 </wgt>
<wgt id='morphing_basis_vector_2'> +1.0235329e-05 </wgt>
<wgt id='morphing_basis_vector_3'> +1.0743897e-05 </wgt>
<wgt id='morphing_basis_vector_4'> +9.9386581e-06 </wgt>
<wgt id='morphing_basis_vector_5'> +1.0614617e-05 </wgt>
</rwgt>
</event>
<event>
 7      1 +1.0152000e-05 1.01743400e+02 7.81860800e-03 1.40723800e-01
        2 -1    0    0  502    0 +0.0000000000e+00 +0.0000000000e+00 +5.3796650209e+02 5.3796650209e+02 0.0000000000e+00 0.0000e+00 -1.0000e+00
        1 -1    0    0  501    0 -0.0000000000e+00 -0.0000000000e+00 -1.2363280117e+03 1.2363280117e+03 0.0000000000e+00 0.0000e+00 -1.0000e+00
       25  2    1    2    0    0 -1.1528482387e+02 +1.7829933668e+01 -1.1299201819e+02 2.0494192206e+02 1.2500199236e+02 0.0000e+00 0.0000e+00
        2  1    1    2  501    0 +2.2782052361e+01 +2.3670006223e+01 -1.0718835370e+03 1.0723868742e+03 0.0000000000e+00 0.0000e+00 -1.0000e+00
        1  1    1    2  502    0 +9.2502771509e+01 -4.1499939891e+01 +4.8651404562e+02 4.9696571746e+02 0.0000000000e+00 0.0000e+00 -1.0000e+00
       22  1    3    3    0    0 -8.3808061860e+01 -3.7695624891e+01 -1.0668160972e+02 1.4080382531e+02 0.0000000000e+00 0.0000e+00 1.0000e+00
       22  1    3    3    0    0 -3.1476762011e+01 +5.5525558559e+01 -6.3104084656e+00 6.4138096752e+01 0.0000000000e+00 0.0000e+00 1.0000e+00
<rwgt>
<wgt id='SM'> +1.0436219e-05 </wgt>
<wgt id='morphing_basis_vector_2'> +1.0503559e-05 </wgt>
<wgt id='morphing_basis_vector_3'> +1.0822013e-05 </wgt>
<wgt id='morphing_basis_vector_4'> +1.0116756e-05 </wgt>
<wgt id='morphing_basis_vector_5'> +1.0522483e-05 </wgt>
</rwgt>
</event>
<event>
 7      1 +1.0152000e-05 1.27579600e+02 7.81860800e-03 1.28900800e-01
        2 -1    0    0  502    0 +0.0000000000e+00 +0.0000000000e+00 +3.7294289172e+02 3.7294289172e+02 0.0000000000e+00 0.0000e+00 -1.0000e+00
        1 -1    0    0  501    0 -0.0000000000e+00 -0.0000000000e+00 -2.0867247323e+03 2.0867247323e+03 0.0000000000e+00 0.0000e+00 -1.0000e+00
       25  2    1    2    0    0 +3.6546628221e+01 -1.9380401034e+02 +1.1635438139e+02 2.6088093788e+02 1.2499948491e+02 0.0000e+00 0.0000e+00
        2  1    1    2  501    0 -3.6067376446e+01 +1.2161479636e+02 -2.0053113478e+03 2.0093194410e+03 0.0000000000e+00 0.0000e+00 -1.0000e+00
        1  1    1    2  502    0 -4.7925177492e-01 +7.2189213977e+01 +1.7517512580e+02 1.8946724518e+02 0.0000000000e+00 0.0000e+00 -1.0000e+00
       22  1    3    3    0    0 -3.4492602129e+00 -1.5815152762e+02 +1.3094048659e+02 2.0535144049e+02 0.0000000000e+00 0.0000e+00 -1.0000e+00
       22  1    3    3    0    0 +3.9995888434e+01 -3.5652482716e+01 -1.4586105203e+01 5.5529497390e+01 0.0000000000e+00 0.0000e+00 -1.0000e+00
<rwgt>
<wgt id='SM'> +1.1159033e-05 </wgt>
<wgt id='morphing_basis_vector_2'> +1.1850468e-05 </wgt>
<wgt id='morphing_basis_vector_3'> +1.2199228e-05 </wgt>
<wgt id='morphing_basis_vector_4'> +1.0541713e-05 </wgt>
<wgt id='morphing_basis_vector_5'> +1.0902561e-05 </wgt>
</rwgt>
</event>
<event>
 7      1 +1.0152000e-05 1.03232200e+02 7.81860800e-03 1.27879200e-01
        2 -1    0    0  502    0 +0.0000000000e+00 +0.0000000000e+00 +2.3433821608e+03 2.3433821608e+03 0.0000000000e+00 0.0000e+00 -1.0000e+00
        1 -1    0    0  501    0 -0.0000000000e+00 -0.0000000000e+00 -2.0467681858e+03 2.0467681858e+03 0.0000000000e+00 0.0000e+00 -1.0000e+00
       25  2    1    2    0    0 -4.1738135099e+01 -1.0585514383e+02 +4.6639258063e+02 4.9607915029e+02 1.2500040274e+02 0.0000e+00 0.0000e+00
        2  1    1    2  501    0 +9.7112958632e+01 +1.5008076569e+01 -2.0292152907e+03 2.0315931840e+03 0.0000000000e+00 0.0000e+00 -1.0000e+00
        1  1    1    2  502    0 -5.5374823532e+01 +9.0847067260e+01 +1.8594366850e+03 1.8624780123e+03 0.0000000000e+00 0.0000e+00 -1.0000e+00
       22  1    3    3    0    0 -8.6514198158e+01 -6.6138778659e+01 +3.1446611260e+02 3.3278819165e+02 0.0000000000e+00 0.0000e+00 1.0000e+00
       22  1    3    3    0    0 +4.4776063058e+01 -3.9716365169e+01 +1.5192646803e+02 1.6329095864e+02 0.0000000000e+00 0.0000e+00 1.0000e+00
<rwgt>
<wgt id='SM'> +1.0299633e-05 </wgt>
<wgt id='morphing_basis_vector_2'> +1.0997309e-05 </wgt>
<wgt id='morphing_basis_vector_3'> +9.9624449e-06 </wgt>
<wgt id='morphing_basis_vector_4'> +1.0933413e-05 </wgt>
<wgt id='morphing_basis_vector_5'> +9.5093287e-06 </wgt>
</rwgt>
</event>
<event>
 7      1 +1.0152000e-05 9.37362400e+01 7.81860800e-03 1.32152800e-01
        2 -1    0    0  502    0 +0.0000000000e+00 +0.0000000000e+00 +1.4397617415e+03 1.4397617415e+03 0.0000000000e+00 0.0000e+00 -1.0000e+00
        1 -1    0    0  501    0 -0.0000000000e+00 -0.0000000000e+00 -1.4036909221e+03 1.4036909221e+03 0.0000000000e+00 0.0000e+00 -1.0000e+00
       25  2    1    2    0    0 -5.7988649497e+01 +8.3815197264e+01 +2.0778179793e+02 2.6302884538e+02 1.2499290856e+02 0.0000e+00 0.0000e+00
        2  1    1    2  501    0 +7.2287316866e+01 +1.0055478652e+01 -1.3732252851e+03 1.3751633549e+03 0.0000000000e+00 0.0000e+00 -1.0000e+00
        1  1    1    2  502    0 -1.4298667368e+01 -9.3870675916e+01 +1.2015143066e+03 1.2052604634e+03 0.0000000000e+00 0.0000e+00 -1.0000e+00
       22  1    3    3    0    0 -7.7521610443e+01 +6.9175881556e+01 +7.5297369060e+01 1.2831444370e+02 0.0000000000e+00 0.0000e+00 1.0000e+00
       22  1    3    3    0    0 +1.9532960945e+01 +1.4639315708e+01 +1.3248442887e+02 1.3471440168e+02 0.0000000000e+00 0.0000e+00 1.0000e+00
<rwgt>
<wgt id='SM'> +1.0417103e-05 </wgt>
<wgt id='morphing_basis_vector_2'> +1.0271336e-05 </wgt>
<wgt id='morphing_basis_vector_3'> +1.0952864e-05 </wgt>
<wgt id='morphing_basis_vector_4'> +9.8705357e-06 </wgt>
<wgt id='morphing_basis_vector_5'> +1.0773280e-05 </wgt>
</rwgt>
</event>
<event>
 7      1 +1.0152000e-05 1.19360900e+02 7.81860800e-03 1.37232300e-01
        2 -1    0    0  502    0 +0.0000000000e+00 +0.0000000000e+00 +2.9661088174e+03 2.9661088174e+03 0.0000000000e+00 0.0000e+00 -1.0000e+00
        1 -1    0    0  501    0 -0.0000000000e+00 -0.0000000000e+00 -9.9255108134e+02 9.9255108134e+02 0.0000000000e+00 0.0000e+00 -1.0000e+00
       25  2    1    2    0    0 -7.2735571357e+01 -4.6644419285e+01 +1.9805239881e+02 2.4963890651e+02 1.2501466226e+02 0.0000e+00 0.0000e+00
        2  1    1    2  501    0 +1.0977732847e+02 +4.8281614531e+01 -9.6291266490e+02 9.7035198581e+02 0.0000000000e+00 0.0000e+00 -1.0000e+00
        1  1    1    2  502    0 -3.7041757115e+01 -1.6371952467e+00 +2.7384180022e+03 2.7386690065e+03 0.0000000000e+00 0.0000e+00 -1.0000e+00
       22  1    3    3    0    0 +2.0315712579e+01 +2.0174715746e+01 +1.1781160515e+01 3.0960346835e+01 0.0000000000e+00 0.0000e+00 1.0000e+00
       22  1    3    3    0    0 -9.3051283937e+01 -6.6819135031e+01 +1.8627123829e+02 2.1867855968e+02 0.0000000000e+00 0.0000e+00 1.0000e+00
<rwgt>
<wgt id='SM'> +1.0260821e-05 </wgt>
<wgt id='morphing_basis_vector_2'> +1.0442933e-05 </wgt>
<wgt id='morphing_basis_vector_3'> +1.0278005e-05 </wgt>
<wgt id='morphing_basis_vector_4'> +1.0327250e-05 </wgt>
<wgt id='morphing_basis_vector_5'> +1.0091022e-05 </wgt>
</rwgt>
</event>
<event>
 7      1 +1.0152000e-05 9.31488700e+01 7.81860800e-03 1.32207100e-01
        2 -1    0    0  502    0 +0.0000000000e+00 +0.0000000000e+00 +1.6069488128e+03 1.6069488128e+03 0.0000000000e+00 0.0000e+00 -1.0000e+00
        1 -1    0    0  501    0 -0.0000000000e+00 -0.0000000000e+00 -3.9261307126e+02 3.9261307126e+02 0.0000000000e+00 0.0000e+00 -1.0000e+00
       25  2    1    2    0    0 +1.2635077445e+02 -1.0295865403e+02 +2.2778837004e+02 3.0669934986e+02 1.2494777724e+02 0.0000e+00 0.0000e+00
        2  1    1    2  501    0 -7.7888797470e+01 +4.8246050840e+01 -3.4619701183e+02 3.5811550818e+02 0.0000000000e+00 0.0000e+00 -1.0000e+00
        1  1    1    2  502    0 -4.8461976975e+01 +5.4712603190e+01 +1.3327443833e+03 1.3347470260e+03 0.0000000000e+00 0.0000e+00 -1.0000e+00
       22  1    3    3    0    0 +1.1741568252e+02 -1.2957316697e+02 +1.7785832405e+02 2.4941778512e+02 0.0000000000e+00 0.0000e+00 -1.0000e+00
       22  1    3    3    0    0 +8.9350919211e+00 +2.6614512937e+01 +4.9930045990e+01 5.7281564740e+01 0.0000000000e+00 0.0000e+00 -1.0000e+00
<rwgt>
<wgt id='SM'> +1.0699569e-05 </wgt>
<wgt id='morphing_basis_vector_2'> +1.1067799e-05 </wgt>
<wgt id='morphing_basis_vector_3'> +1.1253817e-05 </wgt>
<wgt id='morphing_basis_vector_4'> +1.0363351e-05 </wgt>
<wgt id='morphing_basis_vector_5'> +1.0560460e-05 </wgt>
</rwgt>
</event>
<event>
 7      1 +1.0152000e-05 1.91577200e+02 7.81860800e-03 1.27751800e-01
        2 -1    0    0  502    0 +0.0000000000e+00 +0.0000000000e+00 +6.2258640785e+02 6.2258640785e+02 0.0000000000e+00 0.0000e+00 -1.0000e+00
        1 -1    0    0  501    0 -0.0000000000e+00 -0.0000000000e+00 -6.0756686635e+02 6.0756686635e+02 0.0000000000e+00 0.0000e+00 -1.0000e+00
       25  2    1    2    0    0 +1.2633421964e+02 +1.7807556831e+02 +5.1342265694e+01 2.5677328116e+02 1.2500098636e+02 0.0000e+00 0.0000e+00
        2  1    1    2  501    0 +1.2494947979e+01 -5.2121965136e+01 -4.8456534170e+02 4.8752065941e+02 0.0000000000e+00 0.0000e+00 -1.0000e+00
        1  1    1    2  502    0 -1.3882916761e+02 -1.2595360317e+02 +4.4824261751e+02 4.8585933364e+02 0.0000000000e+00 0.0000e+00 -1.0000e+00
       22  1    3    3    0    0 +3.5996349410e+01 +3.0927843367e+01 -3.9430625744e+01 6.1701239150e+01 0.0000000000e+00 0.0000e+00 -1.0000e+00
       22  1    3    3    0    0 +9.0337870226e+01 +1.4714772494e+02 +9.0772891438e+01 1.9507204201e+02 0.0000000000e+00 0.0000e+00 -1.0000e+00
<rwgt>
<wgt id='SM'> +1.1397502e-05 </wgt>
<wgt id='morphing_basis_vector_2'> +1.1856988e-05 </wgt>
<wgt id='morphing_basis_vector_3'> +1.3038266e-05 </wgt>
<wgt id='morphing_basis_vector_4'> +1.0176409e-05 </wgt>
<wgt id='morphing_basis_vector_5'> +1.1584282e-05 </wgt>
</rwgt>
</event>
<event>
 7      1 +1.0152000e-05 1.34289300e+02 7.81860800e-03 1.25681600e-01
        2 -1    0    0  502    0 +0.0000000000e+00 +0.0000000000e+00 +1.1908456607e+03 1.1908456607e+03 0.0000000000e+00 0.0000e+00 -1.0000e+00
        1 -1    0    0  501    0 -0.0000000000e+00 -0.0000000000e+00 -3.9290926994e+02 3.9290926994e+02 0.0000000000e+00 0.0000e+00 -1.0000e+00
       25  2    1    2    0    0 +1.2019625737e+02 -8.7389912464e+01 -1.1425700183e+02 2.2530906225e+02 1.2500149590e+02 0.0000e+00 0.0000e+00
        2  1    1    2  501    0 +1.4396569786e+01 +9.2381988556e+01 -2.0912161484e+02 2.2907104318e+02 0.0000000000e+00 0.0000e+00 -1.0000e+00
        1  1    1    2  502    0 -1.3459282715e+02 -4.9920760920e+00 +1.1213150074e+03 1.1293748252e+03 0.0000000000e+00 0.0000e+00 -1.0000e+00
       22  1    3    3    0    0 +6.9715344737e+01 -5.1322318945e+01 +9.2829435047e+00 8.7065393549e+01 0.0000000000e+00 0.0000e+00 1.0000e+00
       22  1    3    3    0    0 +5.0480912632e+01 -3.6067593519e+01 -1.2353994533e+02 1.3824366870e+02 0.0000000000e+00 0.0000e+00 1.0000e+00
<rwgt>
<wgt id='SM'> +1.0449091e-05 </wgt>
<wgt id='morphing_basis_vector_2'> +1.1666396e-05 </wgt>
<wgt id='morphing_basis_vector_3'> +9.9377505e-06 </wgt>
<wgt id='morphing_basis_vector_4'> +1.1487041e-05 </wgt>
<wgt id='morphing_basis_vector_5'> +9.1316383e-06 </wgt>
</rwgt>
</event>
<event>
 7      1 +1.0152000e-05 1.73886500e+02 7.81860800e-03 1.31331600e-01
        2 -1    0    0  502    0 +0.0000000000e+00 +0.0000000000e+00 +2.0737769782e+03 2.0737769782e+03 0.0000000000e+00 0.0000e+00 -1.0000e+00
        1 -1    0    0  501    0 -0.0000000000e+00 -0.0000000000e+00 -2.9951433810e+02 2.9951433810e+02 0.0000000000e+00 0.0000e+00 -1.0000e+00
       25  2    1    2    0    0 -1.8117923955e+02 +1.1251859797e+02 -1.6234481512e+02 2.9574846532e+02 1.2499985605e+02 0.0000e+00 0.0000e+00
        2  1    1    2  501    0 +2.7806662330e+01 -3.1942474344e+01 -5.9995673934e+01 7.3437136572e+01 0.0000000000e+00 0.0000e+00 -1.0000e+00
        1  1    1    2  502    0 +1.5337257722e+02 -8.0576123623e+01 +1.9966031291e+03 2.0041057144e+03 0.0000000000e+00 0.0000e+00 -1.0000e+00
       22  1    3    3    0    0 -1.7081097897e+01 +4.6824896320e+01 -9.3691843417e+01 1.0612490916e+02 0.0000000000e+00 0.0000e+00 1.0000e+00
       22  1    3    3    0    0 -1.6409814165e+02 +6.5693701647e+01 -6.8652971703e+01 1.8962355616e+02 0.0000000000e+00 0.0000e+00 1.0000e+00
<rwgt>
<wgt id='SM'> +1.1480935e-05 </wgt>
<wgt id='morphing_basis_vector_2'> +1.3176799e-05 </wgt>
<wgt id='morphing_basis_vector_3'> +1.2258875e-05 </wgt>
<wgt id='morphing_basis_vector_4'> +1.1550913e-05 </wgt>
<wgt id='morphing_basis_vector_5'> +1.0230956e-05 </wgt>
</rwgt>
</event>
<event>
 7      1 +1.0152000e-05 1.30863300e+02 7.81860800e-03 1.34835400e-01
        2 -1    0    0  502    0 +0.0000000000e+00 +0.0000000000e+00 +5.9372993134e+02 5.9372993134e+02 0.0000000000e+00 0.0000e+00 -1.0000e+00
        1 -1    0    0  501    0 -0.0000000000e+00 -0.0000000000e+00 -1.3723298421e+03 1.3723298421e+03 0.0000000000e+00 0.0000e+00 -1.0000e+00
       25  2    1    2    0    0 +1.2071041195e+02 -1.0217133716e+02 -2.9779810412e+02 3.5960905419e+02 1.2499990137e+02 0.0000e+00 0.0000e+00
        2  1    1    2  501    0 -5.6569860757e+00 +4.0972929625e+01 -1.0356644807e+03 1.0364900864e+03 0.0000000000e+00 0.0000e+00 -1.0000e+00
        1  1    1    2  502    0 -1.1505342588e+02 +6.1198407537e+01 +5.5486267412e+02 5.6996063287e+02 0.0000000000e+00 0.0000e+00 -1.0000e+00
       22  1    3    3    0    0 +1.0599371009e+02 -7.2933794326e+01 -1.1088456617e+02 1.6985108757e+02 0.0000000000e+00 0.0000e+00 1.0000e+00
       22  1    3    3    0    0 +1.4716701861e+01 -2.9237542836e+01 -1.8691353795e+02 1.8975796662e+02 0.0000000000e+00 0.0000e+00 1.0000e+00
<rwgt>
<wgt id='SM'> +1.0573320e-05 </wgt>
<wgt id='morphing_basis_vector_2'> +1.1228708e-05 </wgt>
<wgt id='morphing_basis_vector_3'> +1.0691705e-05 </wgt>
<wgt id='morphing_basis_vector_4'> +1.0757915e-05 </wgt>
<wgt id='morphing_basis_vector_5'> +9.9968792e-06 </wgt>
</rwgt>
</event>
<event>
 7      1 +1.0152000e-05 4.68045100e+01 7.81860800e-03 1.51018600e-01
        2 -1    0    0  502    0 +0.0000000000e+00 +0.0000000000e+00 +4.9320877336e+01 4.9320877336e+01 0.0000000000e+00 0.0000e+00 -1.0000e+00
        1 -1    0    0  501    0 -0.0000000000e+00 -0.0000000000e+00 -6.4349933093e+02 6.4349933093e+02 0.0000000000e+00 0.0000e+00 -1.0000e+00
       25  2    1    2    0    0 +3.1695907710e+01 +2.7082407111e+01 -2.0606258928e+02 2.4458906017e+02 1.2499572118e+02 0.0000e+00 0.0000e+00
        2  1    1    2  501    0 -2.6529767161e+01 +2.0829424688e+01 -3.9767481383e+02 3.9910268232e+02 0.0000000000e+00 0.0000e+00 -1.0000e+00
        1  1    1    2  502    0 -5.1661405490e+00 -4.7911831799e+01 +9.5589495090e+00 4.9128465783e+01 0.0000000000e+00 0.0000e+00 -1.0000e+00
       22  1    3    3    0    0 +5.3821715953e+01 +6.0819823615e-01 -2.3391713306e+01 5.8688323069e+01 0.0000000000e+00 0.0000e+00 1.0000e+00
       22  1    3    3    0    0 -2.2125808243e+01 +2.6474208875e+01 -1.8267087597e+02 1.8590073710e+02 0.0000000000e+00 0.0000e+00 1.0000e+00
<rwgt>
<wgt id='SM'> +1.0169500e-05 </wgt>
<wgt id='morphing_basis_vector_2'> +1.0310502e-05 </wgt>
<wgt id='morphing_basis_vector_3'> +1.0080539e-05 </wgt>
<wgt id='morphing_basis_vector_4'> +1.0315863e-05 </wgt>
<wgt id='morphing_basis_vector_5'> +9.9975853e-06 </wgt>
</rwgt>
</event>
<event>
 7      1 +1.0152000e-05 7.53845800e+01 7.81860800e-03 1.43517800e-01
        2 -1    0    0  502    0 +0.0000000000e+00 +0.0000000000e+00 +2.0913039687e+03 2.0913039687e+03 0.0000000000e+00 0.0000e+00 -1.0000e+00
        1 -1    0    0  501    0 -0.0000000000e+00 -0.0000000000e+00 -3.9993638447e+02 3.9993638447e+02 0.0000000000e+00 0.0000e+00 -1.0000e+00
       25  2    1    2    0    0 -3.2057473778e+01 +1.0126374830e+02 -1.3874136314e+02 2.1483901944e+02 1.2499844033e+02 0.0000e+00 0.0000e+00
        2  1    1    2  501    0 +2.5553501066e+01 -6.6080602736e+01 -2.1736225573e+02 2.2861753583e+02 0.0000000000e+00 0.0000e+00 -1.0000e+00
        1  1    1    2  502    0 +6.5039727120e+00 -3.5183145562e+01 +2.0474712031e+03 2.0477837978e+03 0.0000000000e+00 0.0000e+00 -1.0000e+00
       22  1    3    3    0    0 -1.2004365600e+01 +1.1835128565e+02 -1.4520518688e+02 1.8771168825e+02 0.0000000000e+00 0.0000e+00 1.0000e+00
       22  1    3    3    0    0 -2.0053108178e+01 -1.7087537353e+01 +6.4638237375e+00 2.7127331194e+01 0.0000000000e+00 0.0000e+00 1.0000e+00
<rwgt>
<wgt id='SM'> +1.0449462e-05 </wgt>
<wgt id='morphing_basis_vector_2'> +1.0678103e-05 </wgt>
<wgt id='morphing_basis_vector_3'> +1.0721849e-05 </wgt>
<wgt id='morphing_basis_vector_4'> +1.0303658e-05 </wgt>
<wgt id='morphing_basis_vector_5'> +1.0334994e-05 </wgt>
</rwgt>
</event>
<event>
 7      1 +1.0152000e-05 7.03226200e+01 7.81860800e-03 1.47944700e-01
        2 -1    0    0  502    0 +0.0000000000e+00 +0.0000000000e+00 +4.6455283823e+02 4.6455283823e+02 0.0000000000e+00 0.0000e+00 -1.0000e+00
        1 -1    0    0  501    0 -0.0000000000e+00 -0.0000000000e+00 -3.4160718551e+02 3.4160718551e+02 0.0000000000e+00 0.0000e+00 -1.0000e+00
       25  2    1    2    0    0 +1.5501107540e+01 -7.3658836234e+01 +6.6807810722e+00 1.4605283638e+02 1.2498355767e+02 0.0000e+00 0.0000e+00
        2  1    1    2  501    0 -3.8849107113e+01 +5.8621218729e+01 -2.6686313409e+02 2.7597397113e+02 0.0000000000e+00 0.0000e+00 -1.0000e+00
        1  1    1    2  502    0 +2.3347999574e+01 +1.5037617505e+01 +3.8312800574e+02 3.8413321622e+02 0.0000000000e+00 0.0000e+00 -1.0000e+00
       22  1    3    3    0    0 -2.0518325559e+01 -9.7960565197e+01 +1.6678940959e+01 1.0146655158e+02 0.0000000000e+00 0.0000e+00 1.0000e+00
       22  1    3    3    0    0 +3.6019433098e+01 +2.4301728963e+01 -9.9981598870e+00 4.4586284802e+01 0.0000000000e+00 0.0000e+00 1.0000e+00
<rwgt>
<wgt id='SM'> +1.0291553e-05 </wgt>
<wgt id='morphing_basis_vector_2'> +1.0288671e-05 </wgt>
<wgt id='morphing_basis_vector_3'> +1.0509314e-05 </wgt>
<wgt id='morphing_basis_vector_4'> +1.0091545e-05 </wgt>
<wgt id='morphing_basis_vector_5'> +1.0380601e-05 </wgt>
</rwgt>
</event>
<event>
 7      1 +1.0152000e-05 1.62882200e+02 7.81860800e-03 1.37196300e-01
        2 -1    0    0  502    0 +0.0000000000e+00 +0.0000000000e+00 +2.5113497975e+03 2.5113497975e+03 0.0000000000e+00 0.0000e+00 -1.0000e+00
        1 -1    0    0  501    0 -0.0000000000e+00 -0.0000000000e+00 -1.1891323839e+03 1.1891323839e+03 0.0000000000e+00 0.0000e+00 -1.0000e+00
       25  2    1    2    0    0 -1.4360589420e+02 -1.3707569465e+01 +1.0955685599e+03 1.1120730790e+03 1.2500205327e+02 0.0000e+00 0.0000e+00
        2  1    1    2  501    0 +1.5889740311e+02 +3.6264781174e+01 -1.1751233866e+03 1.1863719875e+03 0.0000000000e+00 0.0000e+00 -1.0000e+00
        1  1    1    2  502    0 -1.5291508910e+01 -2.2557211708e+01 +1.4017722402e+03 1.4020371149e+03 0.0000000000e+00 0.0000e+00 -1.0000e+00
       22  1    3    3    0    0 -2.6115648794e+01 +4.2927871316e+01 +1.6719716812e+02 1.7458442735e+02 0.0000000000e+00 0.0000e+00 1.0000e+00
       22  1    3    3    0    0 -1.1749024541e+02 -5.6635440782e+01 +9.2837139177e+02 9.3748865165e+02 0.0000000000e+00 0.0000e+00 1.0000e+00
<rwgt>
<wgt id='SM'> +1.0510630e-05 </wgt>
<wgt id='morphing_basis_vector_2'> +1.0606611e-05 </wgt>
<wgt id='morphing_basis_vector_3'> +1.0990640e-05 </wgt>
<wgt id='morphing_basis_vector_4'> +1.0120614e-05 </wgt>
<wgt id='morphing_basis_vector_5'> +1.0605695e-05 </wgt>
</rwgt>
</event>
<event>
 7      1 +1.0152000e-05 8.67695900e+01 7.81860800e-03 1.45417200e-01
        2 -1    0    0  502    0 +0.0000000000e+00 +0.0000000000e+00 +1.5161451531e+03 1.5161451531e+03 0.0000000000e+00 0.0000e+00 -1.0000e+00
        1 -1    0    0  501    0 -0.0000000000e+00 -0.0000000000e+00 -2.6444550299e+02 2.6444550299e+02 0.0000000000e+00 0.0000e+00 -1.0000e+00
       25  2    1    2    0    0 -6.1636017047e+01 -8.8921277367e+01 +4.3998356209e+01 1.7107919470e+02 1.2500497328e+02 0.0000e+00 0.0000e+00
        2  1    1    2  501    0 +1.4945602532e+00 +2.6955236914e+01 -1.9866785570e+02 2.0049372907e+02 0.0000000000e+00 0.0000e+00 -1.0000e+00
        1  1    1    2  502    0 +6.0141456794e+01 +6.1966040453e+01 +1.4063691496e+03 1.4090177323e+03 0.0000000000e+00 0.0000e+00 -1.0000e+00
       22  1    3    3    0    0 +3.3621919617e+01 -2.0946897092e+01 +3.6418677135e+01 5.3810092184e+01 0.0000000000e+00 0.0000e+00 -1.0000e+00
       22  1    3    3    0    0 -9.5257936664e+01 -6.7974380275e+01 +7.5796790738e+00 1.1726910252e+02 0.0000000000e+00 0.0000e+00 -1.0000e+00
<rwgt>
<wgt id='SM'> +1.0390530e-05 </wgt>
<wgt id='morphing_basis_vector_2'> +1.0505088e-05 </wgt>
<wgt id='morphing_basis_vector_3'> +1.0665010e-05 </wgt>
<wgt id='morphing_basis_vector_4'> +1.0191885e-05 </wgt>
<wgt id='morphing_basis_vector_5'> +1.0387128e-05 </wgt>
</rwgt>
</event>
<event>
 7      1 +1.0152000e-05 8.32620500e+01 7.81860800e-03 1.33225900e-01
        2 -1    0    0  502    0 +0.0000000000e+00 +0.0000000000e+00 +2.1829438838e+03 2.1829438838e+03 0.0000000000e+00 0.0000e+00 -1.0000e+00
        1 -1    0    0  501    0 -0.0000000000e+00 -0.0000000000e+00 -2.1386013891e+03 2.1386013891e+03 0.0000000000e+00 0.0000e+00 -1.0000e+00
       25  2    1    2    0    0 +6.4013874973e+01 +5.0958387958e+01 -8.1111544109e+01 1.6999703923e+02 1.2500150906e+02 0.0000e+00 0.0000e+00
        2  1    1    2  501    0 -6.7309394634e+01 +3.2463883382e+01 -2.0115381801e+03 2.0129258080e+03 0.0000000000e+00 0.0000e+00 -1.0000e+00
        1  1    1    2  502    0 +3.2955196609e+00 -8.3422271340e+01 +2.1369922189e+03 2.1386224257e+03 0.0000000000e+00 0.0000e+00 -1.0000e+00
       22  1    3    3    0    0 +3.0223435237e+01 -3.4309188905e+01 +2.6316641395e+00 4.5798494921e+01 0.0000000000e+00 0.0000e+00 -1.0000e+00
       22  1    3    3    0    0 +3.3790439736e+01 +8.5267576863e+01 -8.3743208248e+01 1.2419854431e+02 0.0000000000e+00 0.0000e+00 -1.0000e+00
<rwgt>
<wgt id='SM'> +1.0214844e-05 </wgt>
<wgt id='morphing_basis_vector_2'> +1.0562237e-05 </wgt>
<wgt id='morphing_basis_vector_3'> +1.0027482e-05 </wgt>
<wgt id='morphing_basis_vector_4'> +1.0547102e-05 </wgt>
<wgt id='morphing_basis_vector_5'> +9.8073022e-06 </wgt>
</rwgt>
</event>
<event>
 7      1 +1.0152000e-05 1.51567000e+02 7.81860800e-03 1.22733200e-01
        2 -1    0    0  502    0 +0.0000000000e+00 +0.0000000000e+00 +7.7563149716e+02 7.7563149716e+02 0.0000000000e+00 0.0000e+00 -1.0000e+00
        1 -1    0    0  501    0 -0.0000000000e+00 -0.0000000000e+00 -3.3910825423e+03 3.3910825423e+03 0.0000000000e+00 0.0000e+00 -1.0000e+00
       25  2    1    2    0    0 -1.4391970472e+00 +2.0951415875e+02 +5.5567533210e+01 2.5020431479e+02 1.2496477258e+02 0.0000e+00 0.0000e+00
        2  1    1    2  501    0 +7.8849470838e+01 -1.2906393486e+02 -3.2870073906e+03 3.2904851199e+03 0.0000000000e+00 0.0000e+00 -1.0000e+00
        1  1    1    2  502    0 -7.7410273791e+01 -8.0450223888e+01 +6.1598881224e+02 6.2602460480e+02 0.0000000000e+00 0.0000e+00 -1.0000e+00
       22  1    3    3    0    0 +1.6732776875e+01 +7.6041418494e+01 -3.7555790011e+01 8.6444898703e+01 0.0000000000e+00 0.0000e+00 -1.0000e+00
       22  1    3    3    0    0 -1.8171973922e+01 +1.3347274026e+02 +9.3123323221e+01 1.6375941608e+02 0.0000000000e+00 0.0000e+00 -1.0000e+00
<rwgt>
<wgt id='SM'> +1.1195615e-05 </wgt>
<wgt id='morphing_basis_vector_2'> +1.1096765e-05 </wgt>
<wgt id='morphing_basis_vector_3'> +1.2979392e-05 </wgt>
<wgt id='morphing_basis_vector_4'> +9.6262942e-06 </wgt>
<wgt id='morphing_basis_vector_5'> +1.1988741e-05 </wgt>
</rwgt>
</event>
<event>
 7      1 +1.0152000e-05 1.30463100e+02 7.81860800e-03 1.35380100e-01
        2 -1    0    0  502    0 +0.0000000000e+00 +0.0000000000e+00 +8.0730522340e+01 8.0730522340e+01 0.0000000000e+00 0.0000e+00 -1.0000e+00
        1 -1    0    0  501    0 -0.0000000000e+00 -0.0000000000e+00 -9.8430190952e+02 9.8430190952e+02 0.0000000000e+00 0.0000e+00 -1.0000e+00
       25  2    1    2    0    0 -6.2440535860e+01 -1.4831525916e+02 -5.7724110173e+02 6.1215062670e+02 1.2499945451e+02 0.0000e+00 0.0000e+00
        2  1    1    2  501    0 -3.5167712028e+00 +3.9451064700e+01 -3.2313722002e+02 3.2555555156e+02 0.0000000000e+00 0.0000e+00 -1.0000e+00
        1  1    1    2  502    0 +6.5957307062e+01 +1.0886419445e+02 -3.1930654268e+00 1.2732625360e+02 0.0000000000e+00 0.0000e+00 -1.0000e+00
       22  1    3    3    0    0 -5.2387989386e+01 -8.5571365286e+01 -1.5161845421e+02 1.8181065878e+02 0.0000000000e+00 0.0000e+00 1.0000e+00
       22  1    3    3    0    0 -1.0052546473e+01 -6.2743893869e+01 -4.2562264752e+02 4.3033996793e+02 0.0000000000e+00 0.0000e+00 1.0000e+00
<rwgt>
<wgt id='SM'> +1.1031283e-05 </wgt>
<wgt id='morphing_basis_vector_2'> +1.1386227e-05 </wgt>
<wgt id='morphing_basis_vector_3'> +1.2145269e-05 </wgt>
<wgt id='morphing_basis_vector_4'> +1.0206670e-05 </wgt>
<wgt id='morphing_basis_vector_5'> +1.1128847e-05 </wgt>
</rwgt>
</event>
<event>
 7      1 +1.0152000e-05 7.94889100e+01 7.81860800e-03 1.37179200e-01
        2 -1    0    0  502    0 +0.0000000000e+00 +0.0000000000e+00 +3.4511513842e+03 3.4511513842e+03 0.0000000000e+00 0.0000e+00 -1.0000e+00
        1 -1    0    0  501    0 -0.0000000000e+00 -0.0000000000e+00 -5.3881943257e+02 5.3881943257e+02 0.0000000000e+00 0.0000e+00 -1.0000e+00
       25  2    1    2    0    0 +3.3123712139e+01 -1.1354703772e+02 +1.5685244613e+02 2.3284641238e+02 1.2499860728e+02 0.0000e+00 0.0000e+00
        2  1    1    2  501    0 -5.0834487630e+01 +6.0504643196e+01 -4.9746328617e+02 5.0370098081e+02 0.0000000000e+00 0.0000e+00 -1.0000e+00
        1  1    1    2  502    0 +1.7710775491e+01 +5.3042394529e+01 +3.2529427917e+03 3.2534234236e+03 0.0000000000e+00 0.0000e+00 -1.0000e+00
       22  1    3    3    0    0 -3.1149363980e+01 -3.1751473601e+01 -1.8370560087e-01 4.4480025854e+01 0.0000000000e+00 0.0000e+00 -1.0000e+00
       22  1    3    3    0    0 +6.4273076119e+01 -8.1795564124e+01 +1.5703615173e+02 1.8836638653e+02 0.0000000000e+00 0.0000e+00 -1.0000e+00
<rwgt>
<wgt id='SM'> +1.0440045e-05 </wgt>
<wgt id='morphing_basis_vector_2'> +1.0485406e-05 </wgt>
<wgt id='morphing_basis_vector_3'> +1.0850325e-05 </wgt>
<wgt id='morphing_basis_vector_4'> +1.0089016e-05 </wgt>
<wgt id='morphing_basis_vector_5'> +1.0557442e-05 </wgt>
</rwgt>
</event>
<event>
 7      1 +1.0152000e-05 1.50494000e+02 7.81860800e-03 1.32561700e-01
        2 -1    0    0  502    0 +0.0000000000e+00 +0.0000000000e+00 +3.1658026234e+03 3.1658026234e+03 0.0000000000e+00 0.0000e+00 -1.0000e+00
        1 -1    0    0  501    0 -0.0000000000e+00 -0.0000000000e+00 -1.2588341267e+03 1.2588341267e+03 0.0000000000e+00 0.0000e+00 -1.0000e+00
       25  2    1    2    0    0 -1.0523413165e+02 +1.5950153183e+02 +4.0040871137e+02 4.6094125634e+02 1.2499897814e+02 0.0000e+00 0.0000e+00
        2  1    1    2  501    0 +1.8714061506e+01 -3.9641287051e+01 -1.2261785315e+03 1.2269618734e+03 0.0000000000e+00 0.0000e+00 -1.0000e+00
        1  1    1    2  502    0 +8.6520070147e+01 -1.1986024478e+02 +2.7327383168e+03 2.7367336204e+03 0.0000000000e+00 0.0000e+00 -1.0000e+00
       22  1    3    3    0    0 +2.2672726999e+01 +6.3396265903e+01 +1.3925191075e+02 1.5467460596e+02 0.0000000000e+00 0.0000e+00 1.0000e+00
       22  1    3    3    0    0 -1.2790685865e+02 +9.6105265925e+01 +2.6115680062e+02 3.0626665039e+02 0.0000000000e+00 0.0000e+00 1.0000e+00
<rwgt>
<wgt id='SM'> +1.0851075e-05 </wgt>
<wgt id='morphing_basis_vector_2'> +1.1552365e-05 </wgt>
<wgt id='morphing_basis_vector_3'> +1.1374396e-05 </wgt>
<wgt id='morphing_basis_vector_4'> +1.0687802e-05 </wgt>
<wgt id='morphing_basis_vector_5'> +1.0386402e-05 </wgt>
</rwgt>
</event>
<event>
 7      1 +1.0152000e-05 1.11246000e+02 7.81860800e-03 1.41384000e-01
        2 -1    0    0  502    0 +0.0000000000e+00 +0.0000000000e+00 +1.1093592649e+03 1.1093592649e+03 0.0000000000e+00 0.0000e+00 -1.0000e+00
        1 -1    0    0  501    0 -0.0000000000e+00 -0.0000000000e+00 -6.4034207005e+02 6.4034207005e+02 0.0000000000e+00 0.0000e+00 -1.0000e+00
       25  2    1    2    0    0 -2.9404045544e+01 +8.3877016918e+01 -2.8094896591e+02 3.2009024524e+02 1.2500196715e+02 0.0000e+00 0.0000e+00
        2  1    1    2  501    0 -2.5268470841e+01 +1.3265741853e+01 -3.3636611279e+02 3.3757463968e+02 0.0000000000e+00 0.0000e+00 -1.0000e+00
        1  1    1    2  502    0 +5.4672516384e+01 -9.7142758771e+01 +1.0863322736e+03 1.0920364500e+03 0.0000000000e+00 0.0000e+00 -1.0000e+00
       22  1    3    3    0    0 +1.5322980932e+01 +6.8964024630e+01 -2.5829604735e+02 2.6778289437e+02 0.0000000000e+00 0.0000e+00 1.0000e+00
       22  1    3    3    0    0 -4.4727026476e+01 +1.4912992288e+01 -2.2652918556e+01 5.2307350874e+01 0.0000000000e+00 0.0000e+00 1.0000e+00
<rwgt>
<wgt id='SM'> +1.0234321e-05 </wgt>
<wgt id='morphing_basis_vector_2'> +1.0435408e-05 </wgt>
<wgt id='morphing_basis_vector_3'> +1.0195435e-05 </wgt>
<wgt id='morphing_basis_vector_4'> +1.0361354e-05 </wgt>
<wgt id='morphing_basis_vector_5'> +1.0024547e-05 </wgt>
</rwgt>
</event>
<event>
 7      1 +1.0152000e-05 6.41331900e+01 7.81860800e-03 1.39784200e-01
        2 -1    0    0  502    0 +0.0000000000e+00 +0.0000000000e+00 +2.5441775994e+03 2.5441775994e+03 0.0000000000e+00 0.0000e+00 -1.0000e+00
        1 -1    0    0  501    0 -0.0000000000e+00 -0.0000000000e+00 -1.5836713468e+02 1.5836713468e+02 0.0000000000e+00 0.0000e+00 -1.0000e+00
       25  2    1    2    0    0 -2.9273591540e+01 -1.2718263637e+01 +6.1003926777e+02 6.2353067152e+02 1.2499557078e+02 0.0000e+00 0.0000e+00
        2  1    1    2  501    0 -2.9068616256e+01 +4.8014849801e+01 -1.4580135939e+02 1.5623202825e+02 0.0000000000e+00 0.0000e+00 -1.0000e+00
        1  1    1    2  502    0 +5.8342207796e+01 -3.5296586164e+01 +1.9215725563e+03 1.9227820343e+03 0.0000000000e+00 0.0000e+00 -1.0000e+00
       22  1    3    3    0    0 -7.0657119786e+01 -3.7006299010e+01 +4.2155061380e+02 4.2903008605e+02 0.0000000000e+00 0.0000e+00 1.0000e+00
       22  1    3    3    0    0 +4.1383528246e+01 +2.4288035373e+01 +1.8848865397e+02 1.9450058547e+02 0.0000000000e+00 0.0000e+00 1.0000e+00
<rwgt>
<wgt id='SM'> +1.0193318e-05 </wgt>
<wgt id='morphing_basis_vector_2'> +1.0123285e-05 </wgt>
<wgt id='morphing_basis_vector_3'> +1.0314953e-05 </wgt>
<wgt id='morphing_basis_vector_4'> +1.0050328e-05 </wgt>
<wgt id='morphing_basis_vector_5'> +1.0310454e-05 </wgt>
</rwgt>
</event>
<event>
 7      1 +1.0152000e-05 1.03547200e+02 7.81860800e-03 1.32347200e-01
        2 -1    0    0  502    0 +0.0000000000e+00 +0.0000000000e+00 +9.6803526109e+02 9.6803526109e+02 0.0000000000e+00 0.0000e+00 -1.0000e+00
        1 -1    0    0  501    0 -0.0000000000e+00 -0.0000000000e+00 -2.3604120551e+02 2.3604120551e+02 0.0000000000e+00 0.0000e+00 -1.0000e+00
       25  2    1    2    0    0 +1.2540219921e+02 +7.4440866810e+01 +2.2651103556e+02 2.9698456303e+02 1.2500170892e+02 0.0000e+00 0.0000e+00
        2  1    1    2  501    0 -2.6348380263e+01 -5.9349459165e+01 -1.9187882111e+02 2.0256869806e+02 0.0000000000e+00 0.0000e+00 -1.0000e+00
        1  1    1    2  502    0 -9.9053818947e+01 -1.5091407646e+01 +6.9736184112e+02 7.0452320550e+02 0.0000000000e+00 0.0000e+00 -1.0000e+00
       22  1    3    3    0    0 +4.4637628282e+00 +3.6822160476e+01 -4.2887226396e-01 3.7094212650e+01 0.0000000000e+00 0.0000e+00 -1.0000e+00
       22  1    3    3    0    0 +1.2093843638e+02 +3.7618706334e+01 +2.2693990782e+02 2.5989035038e+02 0.0000000000e+00 0.0000e+00 -1.0000e+00
<rwgt>
<wgt id='SM'> +1.0699713e-05 </wgt>
<wgt id='morphing_basis_vector_2'> +1.0797888e-05 </wgt>
<wgt id='morphing_basis_vector_3'> +1.1481847e-05 </wgt>
<wgt id='morphing_basis_vector_4'> +1.0046076e-05 </wgt>
<wgt id='morphing_basis_vector_5'> +1.0910623e-05 </wgt>
</rwgt>
</event>
<event>
 7      1 +1.0152000e-05 1.01804400e+02 7.81860800e-03 1.46570000e-01
        2 -1    0    0  502    0 +0.0000000000e+00 +0.0000000000e+00 +3.1345685615e+03 3.1345685615e+03 0.0000000000e+00 0.0000e+00 -1.0000e+00
        1 -1    0    0  501    0 -0.0000000000e+00 -0.0000000000e+00 -1.0890568453e+03 1.0890568453e+03 0.0000000000e+00 0.0000e+00 -1.0000e+00
       25  2    1    2    0    0 +3.5042545340e+01 -7.4672780286e+01 -4.8975693708e+02 5.1214344888e+02 1.2500020288e+02 0.0000e+00 0.0000e+00
        2  1    1    2  501    0 +1.6636814394e+01 -1.3077027542e+01 -5.8708588484e+02 5.8746712965e+02 0.0000000000e+00 0.0000e+00 -1.0000e+00
        1  1    1    2  502    0 -5.1679359734e+01 +8.7749807828e+01 +3.1223545382e+03 3.1240148282e+03 0.0000000000e+00 0.0000e+00 -1.0000e+00
       22  1    3    3    0    0 -3.5560543451e+01 -9.5718581790e+00 -2.6753515311e+02 2.7005782875e+02 0.0000000000e+00 0.0000e+00 1.0000e+00
       22  1    3    3    0    0 +7.0603088792e+01 -6.5100922107e+01 -2.2222178397e+02 2.4208562014e+02 0.0000000000e+00 0.0000e+00 1.0000e+00
<rwgt>
<wgt id='SM'> +1.0232678e-05 </wgt>
<wgt id='morphing_basis_vector_2'> +1.0360364e-05 </wgt>
<wgt id='morphing_basis_vector_3'> +1.0251293e-05 </wgt>
<wgt id='morphing_basis_vector_4'> +1.0273308e-05 </wgt>
<wgt id='morphing_basis_vector_5'> +1.0116027e-05 </wgt>
</rwgt>
</event>
<event>
 7      1 +1.0152000e-05 1.10949800e+02 7.81860800e-03 1.32116200e-01
        2 -1    0    0  502    0 +0.0000000000e+00 +0.0000000000e+00 +8.0308620792e+02 8.0308620792e+02 0.0000000000e+00 0.0000e+00 -1.0000e+00
        1 -1    0    0  501    0 -0.0000000000e+00 -0.0000000000e+00 -6.5453107500e+02 6.5453107500e+02 0.0000000000e+00 0.0000e+00 -1.0000e+00
       25  2    1    2    0    0 +6.7072303211e+01 +6.5230482025e+00 +8.0850926577e+01 1.6341037389e+02 1.2499933581e+02 0.0000e+00 0.0000e+00
        2  1    1    2  501    0 +4.3791246261e+01 -4.3694801119e+01 -6.0664714621e+02 6.0979313615e+02 0.0000000000e+00 0.0000e+00 -1.0000e+00
        1  1    1    2  502    0 -1.1086354947e+02 +3.7171752917e+01 +6.7435135255e+02 6.8441377288e+02 0.0000000000e+00 0.0000e+00 -1.0000e+00
       22  1    3    3    0    0 +7.7154571695e+01 -4.2637613951e+01 +6.8740961880e+01 1.1178601834e+02 0.0000000000e+00 0.0000e+00 1.0000e+00
       22  1    3    3    0    0 -1.0082268483e+01 +4.9160662153e+01 +1.2109964696e+01 5.1624355551e+01 0.0000000000e+00 0.0000e+00 1.0000e+00
<rwgt>
<wgt id='SM'> +1.0276823e-05 </wgt>
<wgt id='morphing_basis_vector_2'> +1.0201792e-05 </wgt>
<wgt id='morphing_basis_vector_3'> +1.0532114e-05 </wgt>
<wgt id='morphing_basis_vector_4'> +1.0010767e-05 </wgt>
<wgt id='morphing_basis_vector_5'> +1.0451889e-05 </wgt>
</rwgt>
</event>
<event>
 7      1 +1.0152000e-05 7.04252300e+01 7.81860800e-03 1.36990400e-01
        2 -1    0    0  502    0 +0.0000000000e+00 +0.0000000000e+00 +3.3364078446e+03 3.3364078446e+03 0.0000000000e+00 0.0000e+00 -1.0000e+00
        1 -1    0    0  501    0 -0.0000000000e+00 -0.0000000000e+00 -7.4870158995e+01 7.4870158995e+01 0.0000000000e+00 0.0000e+00 -1.0000e+00
       25  2    1    2    0    0 +1.4290071674e+01 +3.1922327700e+00 +1.0224868554e+03 1.0302030050e+03 1.2499786181e+02 0.0000e+00 0.0000e+00
        2  1    1    2  501    0 +2.1194071840e+01 -6.7160436542e+01 -5.2823052907e+01 8.8034015222e+01 0.0000000000e+00 0.0000e+00 -1.0000e+00
        1  1    1    2  502    0 -3.5484143514e+01 +6.3968203772e+01 +2.2918738830e+03 2.2930409833e+03 0.0000000000e+00 0.0000e+00 -1.0000e+00
       22  1    3    3    0    0 +2.4751089946e+00 -3.6503845055e+01 +9.5154882538e+01 1.0194659651e+02 0.0000000000e+00 0.0000e+00 1.0000e+00
       22  1    3    3    0    0 +1.1814962679e+01 +3.9696077825e+01 +9.2733197289e+02 9.2825640848e+02 0.0000000000e+00 0.0000e+00 1.0000e+00
<rwgt>
<wgt id='SM'> +1.0167194e-05 </wgt>
<wgt id='morphing_basis_vector_2'> +1.0115552e-05 </wgt>
<wgt id='morphing_basis_vector_3'> +1.0233453e-05 </wgt>
<wgt id='morphing_basis_vector_4'> +1.0083244e-05 </wgt>
<wgt id='morphing_basis_vector_5'> +1.0244336e-05 </wgt>
</rwgt>
</event>
<event>
 7      1 +1.0152000e-05 8.61364200e+01 7.81860800e-03 1.46455400e-01
        2 -1    0    0  502    0 +0.0000000000e+00 +0.0000000000e+00 +4.5948372946e+02 4.5948372946e+02 0.0000000000e+00 0.0000e+00 -1.0000e+00
        1 -1    0    0  501    0 -0.0000000000e+00 -0.0000000000e+00 -6.3397433417e+02 6.3397433417e+02 0.0000000000e+00 0.0000e+00 -1.0000e+00
       25  2    1    2    0    0 -9.9643055550e+01 -1.4811425111e+00 -7.6126623862e+01 1.7706220622e+02 1.2499931883e+02 0.0000e+00 0.0000e+00
        2  1    1    2  501    0 +1.6416113671e+01 -1.9143053925e+01 -5.0256653092e+02 5.0319883078e+02 0.0000000000e+00 0.0000e+00 -1.0000e+00
        1  1    1    2  502    0 +8.3226941879e+01 +2.0624196436e+01 +4.0420255007e+02 4.1319702663e+02 0.0000000000e+00 0.0000e+00 -1.0000e+00
       22  1    3    3    0    0 -5.2393620453e+01 +9.2926088477e+00 -1.0707016145e+02 1.1956363794e+02 0.0000000000e+00 0.0000e+00 -1.0000e+00
       22  1    3    3    0    0 -4.7249435097e+01 -1.0773751359e+01 +3.0943537591e+01 5.7498568278e+01 0.0000000000e+00 0.0000e+00 -1.0000e+00
<rwgt>
<wgt id='SM'> +1.0320390e-05 </wgt>
<wgt id='morphing_basis_vector_2'> +1.0588901e-05 </wgt>
<wgt id='morphing_basis_vector_3'> +1.0358764e-05 </wgt>
<wgt id='morphing_basis_vector_4'> +1.0406123e-05 </wgt>
<wgt id='morphing_basis_vector_5'> +1.0076134e-05 </wgt>
</rwgt>
</event>
<event>
 7      1 +1.0152000e-05 6.96739900e+01 7.81860800e-03 1.37621500e-01
        2 -1    0    0  502    0 +0.0000000000e+00 +0.0000000000e+00 +2.3312666188e+02 2.3312666188e+02 0.0000000000e+00 0.0000e+00 -1.0000e+00
        1 -1    0    0  501    0 -0.0000000000e+00 -0.0000000000e+00 -7.5841177244e+02 7.5841177244e+02 0.0000000000e+00 0.0000e+00 -1.0000e+00
       25  2    1    2    0    0 +7.5704975016e+01 -3.6609476643e+01 -6.0791152446e+02 6.2630107355e+02 1.2500046452e+02 0.0000e+00 0.0000e+00
        2  1    1    2  501    0 -1.0208935586e+01 +6.0665086091e+01 -1.2872330948e+02 1.4266802529e+02 0.0000000000e+00 0.0000e+00 -1.0000e+00
        1  1    1    2  502    0 -6.5496039430e+01 -2.4055609448e+01 +2.1134972338e+02 2.2256933549e+02 0.0000000000e+00 0.0000e+00 -1.0000e+00
       22  1    3    3    0    0 +9.1462580917e+01 -3.7578790422e+01 -2.6214280004e+02 2.8017211997e+02 0.0000000000e+00 0.0000e+00 1.0000e+00
       22  1    3    3    0    0 -1.5757605901e+01 +9.6931377922e-01 -3.4576872442e+02 3.4612895357e+02 0.0000000000e+00 0.0000e+00 1.0000e+00
<rwgt>
<wgt id='SM'> +1.0347240e-05 </wgt>
<wgt id='morphing_basis_vector_2'> +1.1290543e-05 </wgt>
<wgt id='morphing_basis_vector_3'> +9.8979723e-06 </wgt>
<wgt id='morphing_basis_vector_4'> +1.1199877e-05 </wgt>
<wgt id='morphing_basis_vector_5'> +9.2985079e-06 </wgt>
</rwgt>
</event>
<event>
 7      1 +1.0152000e-05 4.25329900e+01 7.81860800e-03 1.59503200e-01
        2 -1    0    0  502    0 +0.0000000000e+00 +0.0000000000e+00 +2.4490457170e+03 2.4490457170e+03 0.0000000000e+00 0.0000e+00 -1.0000e+00
        1 -1    0    0  501    0 -0.0000000000e+00 -0.0000000000e+00 -3.6104783799e+01 3.6104783799e+01 0.0000000000e+00 0.0000e+00 -1.0000e+00
       25  2    1    2    0    0 -1.2985401309e+00 -2.3092061388e+01 +1.1677856284e+02 1.7261726676e+02 1.2499823414e+02 0.0000e+00 0.0000e+00
        2  1    1    2  501    0 +1.1185532386e+01 -1.8424965725e+01 +6.5564524495e+00 2.2529593105e+01 0.0000000000e+00 0.0000e+00 -1.0000e+00
        1  1    1    2  502    0 -9.8869922554e+00 +4.1517027113e+01 +2.2896059179e+03 2.2900036409e+03 0.0000000000e+00 0.0000e+00 -1.0000e+00
       22  1    3    3    0    0 -3.1693547797e+01 -5.7625541248e+01 +1.0698390973e+02 1.2558161058e+02 0.0000000000e+00 0.0000e+00 1.0000e+00
       22  1    3    3    0    0 +3.0395007666e+01 +3.4533479860e+01 +9.7946531108e+00 4.7035656175e+01 0.0000000000e+00 0.0000e+00 1.0000e+00
<rwgt>
<wgt id='SM'> +1.0127958e-05 </wgt>
<wgt id='morphing_basis_vector_2'> +1.0147521e-05 </wgt>
<wgt id='morphing_basis_vector_3'> +1.0075374e-05 </wgt>
<wgt id='morphing_basis_vector_4'> +1.0185699e-05 </wgt>
<wgt id='morphing_basis_vector_5'> +1.0088385e-05 </wgt>
</rwgt>
</event>
<event>
 7      1 +1.0152000e-05 9.79721700e+01 7.81860800e-03 1.36901000e-01
        2 -1    0    0  502    0 +0.0000000000e+00 +0.0000000000e+00 +1.1508906286e+03 1.1508906286e+03 0.0000000000e+00 0.0000e+00 -1.0000e+00
        1 -1    0    0  501    0 -0.0000000000e+00 -0.0000000000e+00 -3.4962562872e+02 3.4962562872e+02 0.0000000000e+00 0.0000e+00 -1.0000e+00
       25  2    1    2    0    0 -4.1346476728e+01 -1.3708313447e+02 +4.5232463773e+02 4.9063617277e+02 1.2499983697e+02 0.0000e+00 0.0000e+00
        2  1    1    2  501    0 +2.2515796210e+01 +9.4646328449e+01 -3.2249066415e+02 3.3684583571e+02 0.0000000000e+00 0.0000e+00 -1.0000e+00
        1  1    1    2  502    0 +1.8830680517e+01 +4.2436806021e+01 +6.7143102630e+02 6.7303424884e+02 0.0000000000e+00 0.0000e+00 -1.0000e+00
       22  1    3    3    0    0 +1.9231378330e+01 -1.2471933271e+02 +3.3572850002e+02 3.5866193496e+02 0.0000000000e+00 0.0000e+00 1.0000e+00
       22  1    3    3    0    0 -6.0577855058e+01 -1.2363801759e+01 +1.1659613771e+02 1.3197423781e+02 0.0000000000e+00 0.0000e+00 1.0000e+00
<rwgt>
<wgt id='SM'> +1.0608222e-05 </wgt>
<wgt id='morphing_basis_vector_2'> +1.0952658e-05 </wgt>
<wgt id='morphing_basis_vector_3'> +1.1036181e-05 </wgt>
<wgt id='morphing_basis_vector_4'> +1.0374141e-05 </wgt>
<wgt id='morphing_basis_vector_5'> +1.0443442e-05 </wgt>
</rwgt>
</event>
<event>
 7      1 +1.0152000e-05 8.63567600e+01 7.81860800e-03 1.39185100e-01
        2 -1    0    0  502    0 +0.0000000000e+00 +0.0000000000e+00 +3.9199972450e+02 3.9199972450e+02 0.0000000000e+00 0.0000e+00 -1.0000e+00
        1 -1    0    0  501    0 -0.0000000000e+00 -0.0000000000e+00 -8.7625826913e+02 8.7625826913e+02 0.0000000000e+00 0.0000e+00 -1.0000e+00
       25  2    1    2    0    0 +3.2861255364e+01 -7.7416739270e+01 -1.2124265605e+02 1.9338635855e+02 1.2500115360e+02 0.0000e+00 0.0000e+00
        2  1    1    2  501    0 -4.2830286674e+01 -8.8003085445e+00 -7.1297309439e+02 7.1431261519e+02 0.0000000000e+00 0.0000e+00 -1.0000e+00
        1  1    1    2  502    0 +9.9690313105e+00 +8.6217047814e+01 +3.4995720582e+02 3.6055901989e+02 0.0000000000e+00 0.0000e+00 -1.0000e+00
       22  1    3    3    0    0 +2.2795006180e+01 -1.1099255516e+02 -7.7250569532e+01 1.3713719445e+02 0.0000000000e+00 0.0000e+00 -1.0000e+00
       22  1    3    3    0    0 +1.0066249184e+01 +3.3575815892e+01 -4.3992086520e+01 5.6249164099e+01 0.0000000000e+00 0.0000e+00 -1.0000e+00
<rwgt>
<wgt id='SM'> +1.0320655e-05 </wgt>
<wgt id='morphing_basis_vector_2'> +1.0252745e-05 </wgt>
<wgt id='morphing_basis_vector_3'> +1.0638362e-05 </wgt>
<wgt id='morphing_basis_vector_4'> +1.0001715e-05 </wgt>
<wgt id='morphing_basis_vector_5'> +1.0513297e-05 </wgt>
</rwgt>
</event>
</LesHouchesEvents>
