<event>
 7    1  0.5854318E-006  0.4273994E+02  0.7818608E-02  0.1572066E+00
          2   -1    0    0  502    0  0.00000000000E+00  0.00000000000E+00  0.62281876935E+03  0.62281876935E+03  0.00000000000E+00 0. -1.
          1   -1    0    0  501    0 -0.00000000000E+00 -0.00000000000E+00 -0.43616854472E+03  0.43616854472E+03  0.00000000000E+00 0. -1.
         25    2    1    2    0    0  0.44700692678E+01  0.21576949221E+02  0.65005251072E+02  0.14260204731E+03  0.12499645985E+03 0.  0.
          2    1    1    2  501    0  0.95381157862E+01 -0.41922895174E+02 -0.39591174605E+03  0.39823939465E+03  0.00000000000E+00 0. -1.
          1    1    1    2  502    0 -0.14008185054E+02  0.20345945953E+02  0.51755671961E+03  0.51814587211E+03  0.00000000000E+00 0. -1.
         22    1    3    3    0    0  0.10330887050E+02 -0.50998871189E+02  0.39942028555E+02  0.65597086329E+02  0.00000000000E+00 0. -1.
         22    1    3    3    0    0 -0.58608177820E+01  0.72575820410E+02  0.25063222517E+02  0.77004960984E+02  0.00000000000E+00 0. -1.
</event>
<event>
 7    1  0.5854318E-006  0.8887496E+02  0.7818608E-02  0.1464643E+00
          2   -1    0    0  502    0  0.00000000000E+00  0.00000000000E+00  0.46059715441E+03  0.46059715441E+03  0.00000000000E+00 0. -1.
          1   -1    0    0  501    0 -0.00000000000E+00 -0.00000000000E+00 -0.54304372595E+03  0.54304372595E+03  0.00000000000E+00 0. -1.
         25    2    1    2    0    0  0.39865103671E+02  0.51981144835E+02 -0.16160027028E+03  0.21454468678E+03  0.12499403730E+03 0.  0.
          2    1    1    2  501    0  0.18936007723E+02  0.15427603161E+02 -0.34993319201E+03  0.35078458090E+03  0.00000000000E+00 0. -1.
          1    1    1    2  502    0 -0.58801111394E+02 -0.67408747996E+02  0.42908689074E+03  0.43831161269E+03  0.00000000000E+00 0. -1.
         22    1    3    3    0    0  0.14716751849E+02  0.90554289703E+02 -0.12826537755E+03  0.15769803184E+03  0.00000000000E+00 0. -1.
         22    1    3    3    0    0  0.25148351822E+02 -0.38573144867E+02 -0.33334892727E+02  0.56846654936E+02  0.00000000000E+00 0. -1.
</event>
<event>
 7    1  0.5854318E-006  0.8729303E+02  0.7818608E-02  0.1444486E+00
          2   -1    0    0  502    0  0.00000000000E+00  0.00000000000E+00  0.17082957252E+03  0.17082957252E+03  0.00000000000E+00 0. -1.
          1   -1    0    0  501    0 -0.00000000000E+00 -0.00000000000E+00 -0.13103455906E+03  0.13103455906E+03  0.00000000000E+00 0. -1.
         25    2    1    2    0    0  0.23845024493E+02 -0.76464505598E+02  0.66690353903E+02  0.16272547399E+03  0.12496627854E+03 0.  0.
          2    1    1    2  501    0  0.28598290852E+02 -0.35799959115E+01 -0.32302951825E+02  0.43291561614E+02  0.00000000000E+00 0. -1.
          1    1    1    2  502    0 -0.52443315345E+02  0.80044501510E+02  0.54076113751E+01  0.95847095976E+02  0.00000000000E+00 0. -1.
         22    1    3    3    0    0 -0.21541181154E+02 -0.64042453331E+02 -0.14293360209E+02  0.69063437941E+02  0.00000000000E+00 0. -1.
         22    1    3    3    0    0  0.45386205647E+02 -0.12422052268E+02  0.80983714112E+02  0.93662036050E+02  0.00000000000E+00 0. -1.
</event>
<event>
 7    1  0.5854318E-006  0.4557515E+02  0.7818608E-02  0.1476039E+00
          2   -1    0    0  502    0  0.00000000000E+00  0.00000000000E+00  0.27690484353E+04  0.27690484353E+04  0.00000000000E+00 0. -1.
          1   -1    0    0  501    0 -0.00000000000E+00 -0.00000000000E+00 -0.10041843354E+04  0.10041843354E+04  0.00000000000E+00 0. -1.
         25    2    1    2    0    0  0.82506993793E+01  0.32005726261E+02  0.47528460866E+03  0.49255702934E+03  0.12499810945E+03 0.  0.
          2    1    1    2  501    0 -0.44924178738E+02 -0.78774695064E+01 -0.99481474898E+03  0.99585973969E+03  0.00000000000E+00 0. -1.
          1    1    1    2  502    0  0.36673479358E+02 -0.24128256755E+02  0.22843942402E+04  0.22848160017E+04  0.00000000000E+00 0. -1.
         22    1    3    3    0    0 -0.42182433719E+02 -0.19362095785E+02  0.97611250884E+02  0.10808424847E+03  0.00000000000E+00 0. -1.
         22    1    3    3    0    0  0.50433133098E+02  0.51367822046E+02  0.37767335778E+03  0.38447278087E+03  0.00000000000E+00 0. -1.
</event>
<event>
 7    1  0.5854318E-006  0.1511879E+03  0.7818608E-02  0.1223995E+00
          2   -1    0    0  502    0  0.00000000000E+00  0.00000000000E+00  0.31366671710E+04  0.31366671710E+04  0.00000000000E+00 0. -1.
          1   -1    0    0  501    0 -0.00000000000E+00 -0.00000000000E+00 -0.82535888821E+03  0.82535888821E+03  0.00000000000E+00 0. -1.
         25    2    1    2    0    0 -0.13724590877E+03  0.37387731575E+02  0.15253546306E+03  0.24315924775E+03  0.12500028131E+03 0.  0.
          2    1    1    2  501    0  0.73653726905E+02 -0.13425647964E+03 -0.77137529056E+03  0.78642832649E+03  0.00000000000E+00 0. -1.
          1    1    1    2  502    0  0.63592181863E+02  0.96868748061E+02  0.29301481103E+04  0.29324384850E+04  0.00000000000E+00 0. -1.
         22    1    3    3    0    0 -0.56668313654E+02 -0.36368887001E+01 -0.95274882291E+01  0.57578622454E+02  0.00000000000E+00 0. -1.
         22    1    3    3    0    0 -0.80577595115E+02  0.41024620275E+02  0.16206295129E+03  0.18558062529E+03  0.00000000000E+00 0. -1.
</event>
<event>
 7    1  0.5854318E-006  0.7613905E+02  0.7818608E-02  0.1473661E+00
          2   -1    0    0  502    0  0.00000000000E+00  0.00000000000E+00  0.25215649181E+03  0.25215649181E+03  0.00000000000E+00 0. -1.
          1   -1    0    0  501    0 -0.00000000000E+00 -0.00000000000E+00 -0.83932845916E+02  0.83932845916E+02  0.00000000000E+00 0. -1.
         25    2    1    2    0    0  0.72412781639E+02 -0.26388811960E+02  0.16917242625E+03  0.22401870992E+03  0.12500036901E+03 0.  0.
          2    1    1    2  501    0  0.51413068293E+01  0.26226125903E+02 -0.18565027179E+02  0.32540789018E+02  0.00000000000E+00 0. -1.
          1    1    1    2  502    0 -0.77554088469E+02  0.16268605759E+00  0.17616246827E+02  0.79529838785E+02  0.00000000000E+00 0. -1.
         22    1    3    3    0    0  0.20429871021E+02 -0.40743970958E+02 -0.91328659712E+00  0.45588210009E+02  0.00000000000E+00 0.  1.
         22    1    3    3    0    0  0.51982910618E+02  0.14355158998E+02  0.17008571284E+03  0.17843049991E+03  0.00000000000E+00 0.  1.
</event>
<event>
 7    1  0.5854318E-006  0.7921647E+02  0.7818608E-02  0.1366225E+00
          2   -1    0    0  502    0  0.00000000000E+00  0.00000000000E+00  0.11973071648E+03  0.11973071648E+03  0.00000000000E+00 0. -1.
          1   -1    0    0  501    0 -0.00000000000E+00 -0.00000000000E+00 -0.62363546505E+03  0.62363546505E+03  0.00000000000E+00 0. -1.
         25    2    1    2    0    0  0.46722712530E+02 -0.97544511094E+01  0.12184174686E+02  0.13435321380E+03  0.12499668301E+03 0.  0.
          2    1    1    2  501    0 -0.45847472700E+01  0.79083685350E+02 -0.52170827273E+03  0.52768813804E+03  0.00000000000E+00 0. -1.
          1    1    1    2  502    0 -0.42137965260E+02 -0.69329234240E+02  0.56193494696E+01  0.81324829696E+02  0.00000000000E+00 0. -1.
         22    1    3    3    0    0 -0.91209940118E+01 -0.15393924544E+01  0.59797400996E+02  0.60508606221E+02  0.00000000000E+00 0.  1.
         22    1    3    3    0    0  0.55843706542E+02 -0.82150586551E+01 -0.47613226310E+02  0.73844607580E+02  0.00000000000E+00 0.  1.
</event>
<event>
 7    1  0.5854318E-006  0.2737273E+03  0.7818608E-02  0.1191179E+00
          2   -1    0    0  502    0  0.00000000000E+00  0.00000000000E+00  0.76290827372E+03  0.76290827372E+03  0.00000000000E+00 0. -1.
          1   -1    0    0  501    0 -0.00000000000E+00 -0.00000000000E+00 -0.38318024086E+03  0.38318024086E+03  0.00000000000E+00 0. -1.
         25    2    1    2    0    0  0.17735224388E+03 -0.23464834600E+03  0.22145214082E+03  0.38881935416E+03  0.12500309919E+03 0.  0.
          2    1    1    2  501    0  0.42419405595E+02  0.80500888334E+02 -0.25146601882E+03  0.26742280683E+03  0.00000000000E+00 0. -1.
          1    1    1    2  502    0 -0.21977164948E+03  0.15414745766E+03  0.40974191085E+03  0.48984635359E+03  0.00000000000E+00 0. -1.
         22    1    3    3    0    0  0.52683833116E+02 -0.17199267937E+03  0.13124785178E+03  0.22267255472E+03  0.00000000000E+00 0.  1.
         22    1    3    3    0    0  0.12466841077E+03 -0.62655666628E+02  0.90204289039E+02  0.16614679944E+03  0.00000000000E+00 0.  1.
</event>
<event>
 7    1  0.5854318E-006  0.1117367E+03  0.7818608E-02  0.1360306E+00
          2   -1    0    0  502    0  0.00000000000E+00  0.00000000000E+00  0.39149358464E+03  0.39149358464E+03  0.00000000000E+00 0. -1.
          1   -1    0    0  501    0 -0.00000000000E+00 -0.00000000000E+00 -0.68104618411E+03  0.68104618411E+03  0.00000000000E+00 0. -1.
         25    2    1    2    0    0  0.10515217595E+03  0.82938068570E+02 -0.35741883532E+02  0.18664907284E+03  0.12499876330E+03 0.  0.
          2    1    1    2  501    0 -0.43003323817E+02  0.81807548644E+01 -0.55934636777E+03  0.56105665467E+03  0.00000000000E+00 0. -1.
          1    1    1    2  502    0 -0.62148852137E+02 -0.91118823434E+02  0.30553565183E+03  0.32483404124E+03  0.00000000000E+00 0. -1.
         22    1    3    3    0    0  0.37764738650E+02 -0.25655474005E+02 -0.37116088331E+02  0.58838616951E+02  0.00000000000E+00 0. -1.
         22    1    3    3    0    0  0.67387437304E+02  0.10859354257E+03  0.13742047989E+01  0.12781045589E+03  0.00000000000E+00 0. -1.
</event>
<event>
 7    1  0.5854318E-006  0.8068624E+02  0.7818608E-02  0.1388839E+00
          2   -1    0    0  502    0  0.00000000000E+00  0.00000000000E+00  0.10926456353E+04  0.10926456353E+04  0.00000000000E+00 0. -1.
          1   -1    0    0  501    0 -0.00000000000E+00 -0.00000000000E+00 -0.17689100914E+03  0.17689100914E+03  0.00000000000E+00 0. -1.
         25    2    1    2    0    0  0.68412854602E+02 -0.10643241518E+03  0.10169664904E+03  0.20488614599E+03  0.12501178630E+03 0.  0.
          2    1    1    2  501    0 -0.20570977825E+02  0.43306136921E+02 -0.11896969499E+03  0.12826681156E+03  0.00000000000E+00 0. -1.
          1    1    1    2  502    0 -0.47841876777E+02  0.63126278255E+02  0.93302767210E+03  0.93638368690E+03  0.00000000000E+00 0. -1.
         22    1    3    3    0    0  0.32092708680E+02 -0.11069500411E+03  0.22186489173E+02  0.11736935796E+03  0.00000000000E+00 0. -1.
         22    1    3    3    0    0  0.36320145922E+02  0.42625889322E+01  0.79510159872E+02  0.87516788030E+02  0.00000000000E+00 0. -1.
</event>
<event>
 7    1  0.5854318E-006  0.7038364E+02  0.7818608E-02  0.1418979E+00
          2   -1    0    0  502    0  0.00000000000E+00  0.00000000000E+00  0.17459148071E+04  0.17459148071E+04  0.00000000000E+00 0. -1.
          1   -1    0    0  501    0 -0.00000000000E+00 -0.00000000000E+00 -0.82915331785E+03  0.82915331785E+03  0.00000000000E+00 0. -1.
         25    2    1    2    0    0  0.86156211434E+02  0.43370858500E+02  0.19136105591E+03  0.24808961478E+03  0.12500191641E+03 0.  0.
          2    1    1    2  501    0 -0.44273292411E+02 -0.54555507904E+02 -0.79893918235E+03  0.80202259629E+03  0.00000000000E+00 0. -1.
          1    1    1    2  502    0 -0.41882919023E+02  0.11184649405E+02  0.15243396157E+04  0.15249559139E+04  0.00000000000E+00 0. -1.
         22    1    3    3    0    0  0.47350224236E+02  0.71821156810E+01  0.18900232036E+03  0.19497564880E+03  0.00000000000E+00 0. -1.
         22    1    3    3    0    0  0.38805987198E+02  0.36188742819E+02  0.23587355486E+01  0.53113965985E+02  0.00000000000E+00 0. -1.
</event>
<event>
 7    1  0.5854318E-006  0.1500910E+03  0.7818608E-02  0.1367568E+00
          2   -1    0    0  502    0  0.00000000000E+00  0.00000000000E+00  0.24516548699E+04  0.24516548699E+04  0.00000000000E+00 0. -1.
          1   -1    0    0  501    0 -0.00000000000E+00 -0.00000000000E+00 -0.36669649918E+03  0.36669649918E+03  0.00000000000E+00 0. -1.
         25    2    1    2    0    0  0.16205868337E+03 -0.22793487823E+02  0.21159206351E+03  0.29525895096E+03  0.12499634729E+03 0.  0.
          2    1    1    2  501    0 -0.12737702642E+02  0.27900237900E+02 -0.32159388090E+03  0.32305308631E+03  0.00000000000E+00 0. -1.
          1    1    1    2  502    0 -0.14932098073E+03 -0.51067500768E+01  0.21949601881E+04  0.22000393318E+04  0.00000000000E+00 0. -1.
         22    1    3    3    0    0  0.14244352777E+01 -0.79618907034E+01  0.97112307755E+02  0.97448555848E+02  0.00000000000E+00 0.  1.
         22    1    3    3    0    0  0.16063424810E+03 -0.14831597120E+02  0.11447975575E+03  0.19781039511E+03  0.00000000000E+00 0.  1.
</event>
<event>
 7    1  0.5854318E-006  0.5682462E+02  0.7818608E-02  0.1441243E+00
          2   -1    0    0  502    0  0.00000000000E+00  0.00000000000E+00  0.28671673284E+03  0.28671673284E+03  0.00000000000E+00 0. -1.
          1   -1    0    0  501    0 -0.00000000000E+00 -0.00000000000E+00 -0.21659366090E+03  0.21659366090E+03  0.00000000000E+00 0. -1.
         25    2    1    2    0    0 -0.40250339632E+02 -0.45258824997E+02 -0.36808663950E+02  0.14369181215E+03  0.12499603216E+03 0.  0.
          2    1    1    2  501    0 -0.31971381920E+01  0.58279869105E+02 -0.11720735273E+03  0.13093635236E+03  0.00000000000E+00 0. -1.
          1    1    1    2  502    0  0.43447477824E+02 -0.13021044108E+02  0.22413908862E+03  0.22868222923E+03  0.00000000000E+00 0. -1.
         22    1    3    3    0    0  0.32687481628E+02 -0.24361490166E+02 -0.52241654211E+02  0.66265708274E+02  0.00000000000E+00 0. -1.
         22    1    3    3    0    0 -0.72937821260E+02 -0.20897334831E+02  0.15432990262E+02  0.77426103877E+02  0.00000000000E+00 0. -1.
</event>
<event>
 7    1  0.5854318E-006  0.1532911E+03  0.7818608E-02  0.1219805E+00
          2   -1    0    0  502    0  0.00000000000E+00  0.00000000000E+00  0.12459763209E+04  0.12459763209E+04  0.00000000000E+00 0. -1.
          1   -1    0    0  501    0 -0.00000000000E+00 -0.00000000000E+00 -0.18947183777E+03  0.18947183777E+03  0.00000000000E+00 0. -1.
         25    2    1    2    0    0  0.20705960482E+03 -0.14694183467E+03  0.30480187929E+03  0.41592634714E+03  0.12499983158E+03 0.  0.
          2    1    1    2  501    0 -0.13244281120E+03  0.53716105063E+02 -0.90323760853E+02  0.16907069515E+03  0.00000000000E+00 0. -1.
          1    1    1    2  502    0 -0.74616793618E+02  0.93225729610E+02  0.84202636473E+03  0.85045111644E+03  0.00000000000E+00 0. -1.
         22    1    3    3    0    0  0.16630662727E+03 -0.11654809915E+03  0.30336911424E+03  0.36506735428E+03  0.00000000000E+00 0.  1.
         22    1    3    3    0    0  0.40752977551E+02 -0.30393735525E+02  0.14327650550E+01  0.50858992854E+02  0.00000000000E+00 0.  1.
</event>
<event>
 7    1  0.5854318E-006  0.7490302E+02  0.7818608E-02  0.1387605E+00
          2   -1    0    0  502    0  0.00000000000E+00  0.00000000000E+00  0.17129948114E+03  0.17129948114E+03  0.00000000000E+00 0. -1.
          1   -1    0    0  501    0 -0.00000000000E+00 -0.00000000000E+00 -0.13742522235E+03  0.13742522235E+03  0.00000000000E+00 0. -1.
         25    2    1    2    0    0  0.14617093123E+02  0.27529748822E+02 -0.23916617255E+02  0.13103119557E+03  0.12500249258E+03 0.  0.
          2    1    1    2  501    0 -0.77167091721E+02  0.13676556254E+02 -0.69661555930E+01  0.78678685547E+02  0.00000000000E+00 0. -1.
          1    1    1    2  502    0  0.62549998598E+02 -0.41206305076E+02  0.64757031636E+02  0.99014822370E+02  0.00000000000E+00 0. -1.
         22    1    3    3    0    0 -0.54124719700E+02  0.21903105311E+02 -0.20821605265E+02  0.61990084293E+02  0.00000000000E+00 0.  1.
         22    1    3    3    0    0  0.68741812822E+02  0.56266435107E+01 -0.30950119900E+01  0.69041111278E+02  0.00000000000E+00 0.  1.
</event>
<event>
 7    1  0.5854318E-006  0.1004613E+03  0.7818608E-02  0.1287049E+00
          2   -1    0    0  502    0  0.00000000000E+00  0.00000000000E+00  0.15373494163E+04  0.15373494163E+04  0.00000000000E+00 0. -1.
          1   -1    0    0  501    0 -0.00000000000E+00 -0.00000000000E+00 -0.26584106240E+03  0.26584106240E+03  0.00000000000E+00 0. -1.
         25    2    1    2    0    0  0.15251299648E+02 -0.12730656106E+01  0.13488899858E+00  0.12593306448E+03  0.12499958279E+03 0.  0.
          2    1    1    2  501    0 -0.10455505126E+03 -0.44741183641E+02 -0.18514217771E+03  0.21728128826E+03  0.00000000000E+00 0. -1.
          1    1    1    2  502    0  0.89303751616E+02  0.46014249252E+02  0.14565156426E+04  0.14599761260E+04  0.00000000000E+00 0. -1.
         22    1    3    3    0    0 -0.36384513863E+02  0.34550318006E+02  0.27693620410E+02  0.57310504577E+02  0.00000000000E+00 0.  1.
         22    1    3    3    0    0  0.51635813512E+02 -0.35823383617E+02 -0.27558731412E+02  0.68622559904E+02  0.00000000000E+00 0.  1.
</event>
<event>
 7    1  0.5854318E-006  0.6182056E+02  0.7818608E-02  0.1445787E+00
          2   -1    0    0  502    0  0.00000000000E+00  0.00000000000E+00  0.83486743731E+03  0.83486743731E+03  0.00000000000E+00 0. -1.
          1   -1    0    0  501    0 -0.00000000000E+00 -0.00000000000E+00 -0.11841764574E+03  0.11841764574E+03  0.00000000000E+00 0. -1.
         25    2    1    2    0    0  0.24196928688E+02 -0.16015853609E+02  0.95592474435E+02  0.16001504360E+03  0.12499957634E+03 0.  0.
          2    1    1    2  501    0  0.38973668643E+02  0.10278435704E+02 -0.79983118340E+02  0.89565017207E+02  0.00000000000E+00 0. -1.
          1    1    1    2  502    0 -0.63170597331E+02  0.57374179047E+01  0.70084043548E+03  0.70370502224E+03  0.00000000000E+00 0. -1.
         22    1    3    3    0    0  0.19284923002E+02  0.17476580354E+02 -0.24195899761E+02  0.35535625523E+02  0.00000000000E+00 0.  1.
         22    1    3    3    0    0  0.49120056864E+01 -0.33492433962E+02  0.11978837420E+03  0.12447941808E+03  0.00000000000E+00 0.  1.
</event>
<event>
 7    1  0.5854318E-006  0.8195713E+02  0.7818608E-02  0.1342124E+00
          2   -1    0    0  502    0  0.00000000000E+00  0.00000000000E+00  0.22577685890E+04  0.22577685890E+04  0.00000000000E+00 0. -1.
          1   -1    0    0  501    0 -0.00000000000E+00 -0.00000000000E+00 -0.25584843527E+02  0.25584843527E+02  0.00000000000E+00 0. -1.
         25    2    1    2    0    0 -0.74296352533E+02 -0.49932547458E+02  0.43399152990E+03  0.46042041595E+03  0.12500041643E+03 0.  0.
          2    1    1    2  501    0 -0.68750303192E+01  0.69335028504E+02  0.95597778686E+02  0.11829432577E+03  0.00000000000E+00 0. -1.
          1    1    1    2  502    0  0.81171382852E+02 -0.19402481045E+02  0.17025944369E+04  0.17046386908E+04  0.00000000000E+00 0. -1.
         22    1    3    3    0    0  0.28918766817E+02  0.82512212489E+01  0.14494510039E+03  0.14803195552E+03  0.00000000000E+00 0.  1.
         22    1    3    3    0    0 -0.10321511935E+03 -0.58183768707E+02  0.28904642951E+03  0.31238846044E+03  0.00000000000E+00 0.  1.
</event>
<event>
 7    1  0.5854318E-006  0.1648373E+03  0.7818608E-02  0.1333504E+00
          2   -1    0    0  502    0  0.00000000000E+00  0.00000000000E+00  0.40807716263E+02  0.40807716263E+02  0.00000000000E+00 0. -1.
          1   -1    0    0  501    0 -0.00000000000E+00 -0.00000000000E+00 -0.20526115939E+04  0.20526115939E+04  0.00000000000E+00 0. -1.
         25    2    1    2    0    0 -0.98444339111E+02  0.15260492240E+03 -0.89477102843E+03  0.92153124271E+03  0.12500035088E+03 0.  0.
          2    1    1    2  501    0  0.61669514710E+02 -0.14614551727E+03 -0.11229380302E+04  0.11340861788E+04  0.00000000000E+00 0. -1.
          1    1    1    2  502    0  0.36774824401E+02 -0.64594051303E+01  0.59051809890E+01  0.37801888668E+02  0.00000000000E+00 0. -1.
         22    1    3    3    0    0  0.21616409170E+01  0.88478958305E+01  0.60156785206E+00  0.91279699803E+01  0.00000000000E+00 0. -1.
         22    1    3    3    0    0 -0.10060598003E+03  0.14375702657E+03 -0.89537259628E+03  0.91240327273E+03  0.00000000000E+00 0. -1.
</event>
<event>
 7    1  0.5854318E-006  0.3203961E+02  0.7818608E-02  0.1577211E+00
          2   -1    0    0  502    0  0.00000000000E+00  0.00000000000E+00  0.40660904738E+02  0.40660904738E+02  0.00000000000E+00 0. -1.
          1   -1    0    0  501    0 -0.00000000000E+00 -0.00000000000E+00 -0.77294151607E+03  0.77294151607E+03  0.00000000000E+00 0. -1.
         25    2    1    2    0    0  0.14279233346E+01  0.19923740606E+02 -0.30119041663E+03  0.32670951331E+03  0.12499777845E+03 0.  0.
          2    1    1    2  501    0  0.30036432063E+02 -0.13879656578E+02 -0.44897967311E+03  0.45019726674E+03  0.00000000000E+00 0. -1.
          1    1    1    2  502    0 -0.31464355398E+02 -0.60440840284E+01  0.17889478406E+02  0.36695640749E+02  0.00000000000E+00 0. -1.
         22    1    3    3    0    0  0.29142785390E+02 -0.23880915899E+02 -0.25346167856E+03  0.25624680014E+03  0.00000000000E+00 0. -1.
         22    1    3    3    0    0 -0.27714862056E+02  0.43804656505E+02 -0.47728738070E+02  0.70462713176E+02  0.00000000000E+00 0. -1.
</event>
<event>
 7    1  0.5854318E-006  0.6653880E+02  0.7818608E-02  0.1429275E+00
          2   -1    0    0  502    0  0.00000000000E+00  0.00000000000E+00  0.14868842219E+04  0.14868842219E+04  0.00000000000E+00 0. -1.
          1   -1    0    0  501    0 -0.00000000000E+00 -0.00000000000E+00 -0.28972277551E+03  0.28972277551E+03  0.00000000000E+00 0. -1.
         25    2    1    2    0    0  0.80015677807E+02  0.65291829050E+02 -0.46048829438E+02  0.16855717218E+03  0.12500197584E+03 0.  0.
          2    1    1    2  501    0 -0.19847388186E+02 -0.37450572146E+02 -0.17917520380E+03  0.18412011793E+03  0.00000000000E+00 0. -1.
          1    1    1    2  502    0 -0.60168289621E+02 -0.27841256903E+02  0.14223854796E+04  0.14239297073E+04  0.00000000000E+00 0. -1.
         22    1    3    3    0    0  0.86970910614E+02  0.83143752740E+02 -0.68968237903E+02  0.13868468103E+03  0.00000000000E+00 0.  1.
         22    1    3    3    0    0 -0.69552328066E+01 -0.17851923691E+02  0.22919408465E+02  0.29872491146E+02  0.00000000000E+00 0.  1.
</event>
<event>
 7    1  0.5854318E-006  0.5668326E+02  0.7818608E-02  0.1493761E+00
          2   -1    0    0  502    0  0.00000000000E+00  0.00000000000E+00  0.39569399128E+02  0.39569399128E+02  0.00000000000E+00 0. -1.
          1   -1    0    0  501    0 -0.00000000000E+00 -0.00000000000E+00 -0.14287401602E+04  0.14287401602E+04  0.00000000000E+00 0. -1.
         25    2    1    2    0    0  0.77562598458E+02 -0.34770269062E+02 -0.33494419378E+03  0.36747372983E+03  0.12499760348E+03 0.  0.
          2    1    1    2  501    0 -0.26841525702E+02  0.15845003374E+02 -0.10455424377E+04  0.10460069410E+04  0.00000000000E+00 0. -1.
          1    1    1    2  502    0 -0.50721072756E+02  0.18925265688E+02 -0.86841295662E+01  0.54828888455E+02  0.00000000000E+00 0. -1.
         22    1    3    3    0    0  0.94276777425E+02 -0.26695107887E+02 -0.13575841221E+03  0.16742486683E+03  0.00000000000E+00 0. -1.
         22    1    3    3    0    0 -0.16714178967E+02 -0.80751611751E+01 -0.19918578157E+03  0.20004886300E+03  0.00000000000E+00 0. -1.
</event>
<event>
 7    1  0.5854318E-006  0.8892817E+02  0.7818608E-02  0.1464910E+00
          2   -1    0    0  502    0  0.00000000000E+00  0.00000000000E+00  0.13946351681E+04  0.13946351681E+04  0.00000000000E+00 0. -1.
          1   -1    0    0  501    0 -0.00000000000E+00 -0.00000000000E+00 -0.16167727271E+04  0.16167727271E+04  0.00000000000E+00 0. -1.
         25    2    1    2    0    0 -0.70038663207E+02 -0.95739592810E+01 -0.12585891997E+03  0.19094848880E+03  0.12499513030E+03 0.  0.
          2    1    1    2  501    0  0.89619655026E+02 -0.49233037389E+01 -0.14568788799E+04  0.14596410491E+04  0.00000000000E+00 0. -1.
          1    1    1    2  502    0 -0.19580991819E+02  0.14497263020E+02  0.13606002409E+04  0.13608183572E+04  0.00000000000E+00 0. -1.
         22    1    3    3    0    0 -0.55146000304E+02 -0.42653950942E+02 -0.11103753213E+02  0.70595567962E+02  0.00000000000E+00 0. -1.
         22    1    3    3    0    0 -0.14892662903E+02  0.33079991661E+02 -0.11475516676E+03  0.12035292084E+03  0.00000000000E+00 0. -1.
</event>
<event>
 7    1  0.5854318E-006  0.8792467E+02  0.7818608E-02  0.1325667E+00
          2   -1    0    0  502    0  0.00000000000E+00  0.00000000000E+00  0.63321602626E+03  0.63321602626E+03  0.00000000000E+00 0. -1.
          1   -1    0    0  501    0 -0.00000000000E+00 -0.00000000000E+00 -0.32096635811E+03  0.32096635811E+03  0.00000000000E+00 0. -1.
         25    2    1    2    0    0  0.41297061935E+02 -0.69879766077E+02  0.30186954315E+02  0.15207492546E+03  0.12500760662E+03 0.  0.
          2    1    1    2  501    0  0.48034068483E+02  0.57597486152E+02 -0.25074630153E+03  0.26172208519E+03  0.00000000000E+00 0. -1.
          1    1    1    2  502    0 -0.89331130417E+02  0.12282279925E+02  0.53280901538E+03  0.54038537372E+03  0.00000000000E+00 0. -1.
         22    1    3    3    0    0 -0.31030496980E+02 -0.65652378365E+02 -0.23476339522E+01  0.72654235341E+02  0.00000000000E+00 0. -1.
         22    1    3    3    0    0  0.72327558915E+02 -0.42273877116E+01  0.32534588268E+02  0.79420690120E+02  0.00000000000E+00 0. -1.
</event>
<event>
 7    1  0.5854318E-006  0.5399559E+02  0.7818608E-02  0.1514352E+00
          2   -1    0    0  502    0  0.00000000000E+00  0.00000000000E+00  0.10245609367E+04  0.10245609367E+04  0.00000000000E+00 0. -1.
          1   -1    0    0  501    0 -0.00000000000E+00 -0.00000000000E+00 -0.10434151416E+04  0.10434151416E+04  0.00000000000E+00 0. -1.
         25    2    1    2    0    0  0.56931745695E+02 -0.40450439810E+02 -0.75164847014E+02  0.16171797909E+03  0.12500195512E+03 0.  0.
          2    1    1    2  501    0 -0.28932429535E+02  0.45357641518E+02 -0.92398523378E+03  0.92555016793E+03  0.00000000000E+00 0. -1.
          1    1    1    2  502    0 -0.27999316160E+02 -0.49072017085E+01  0.98029587587E+03  0.98070793133E+03  0.00000000000E+00 0. -1.
         22    1    3    3    0    0  0.12700892479E+02 -0.81354510094E+02 -0.36032177920E+02  0.89878734014E+02  0.00000000000E+00 0. -1.
         22    1    3    3    0    0  0.44230853216E+02  0.40904070285E+02 -0.39132669095E+02  0.71839245072E+02  0.00000000000E+00 0. -1.
</event>
<event>
 7    1  0.5854318E-006  0.1949846E+03  0.7818608E-02  0.1274738E+00
          2   -1    0    0  502    0  0.00000000000E+00  0.00000000000E+00  0.58141817470E+03  0.58141817470E+03  0.00000000000E+00 0. -1.
          1   -1    0    0  501    0 -0.00000000000E+00 -0.00000000000E+00 -0.22350160462E+04  0.22350160462E+04  0.00000000000E+00 0. -1.
         25    2    1    2    0    0 -0.22695052030E+03  0.50461381051E+02 -0.23295538151E+03  0.35206038332E+03  0.12500165633E+03 0.  0.
          2    1    1    2  501    0  0.17781230673E+03 -0.73053570791E+02 -0.19363346237E+04  0.19458534929E+04  0.00000000000E+00 0. -1.
          1    1    1    2  502    0  0.49138213572E+02  0.22592189741E+02  0.51569213375E+03  0.51852034471E+03  0.00000000000E+00 0. -1.
         22    1    3    3    0    0 -0.11723523309E+03 -0.67921503310E+01 -0.42413507071E+02  0.12485647266E+03  0.00000000000E+00 0.  1.
         22    1    3    3    0    0 -0.10971528721E+03  0.57253531382E+02 -0.19054187444E+03  0.22720391066E+03  0.00000000000E+00 0.  1.
</event>
<event>
 7    1  0.5854318E-006  0.3258335E+03  0.7818608E-02  0.1264294E+00
          2   -1    0    0  502    0  0.00000000000E+00  0.00000000000E+00  0.38240869601E+03  0.38240869601E+03  0.00000000000E+00 0. -1.
          1   -1    0    0  501    0 -0.00000000000E+00 -0.00000000000E+00 -0.44252642985E+03  0.44252642985E+03  0.00000000000E+00 0. -1.
         25    2    1    2    0    0  0.31342455374E+03  0.11301713349E+03  0.66747701548E+02  0.36206100270E+03  0.12500036266E+03 0.  0.
          2    1    1    2  501    0 -0.31393522792E+03 -0.77214601116E+02 -0.20090470607E+03  0.38063121637E+03  0.00000000000E+00 0. -1.
          1    1    1    2  502    0  0.51067418055E+00 -0.35802532372E+02  0.74039270692E+02  0.82242906788E+02  0.00000000000E+00 0. -1.
         22    1    3    3    0    0  0.97404784893E+02  0.31950900800E+02 -0.37126456927E+02  0.10902718003E+03  0.00000000000E+00 0.  1.
         22    1    3    3    0    0  0.21601976885E+03  0.81066232689E+02  0.10387415848E+03  0.25303382267E+03  0.00000000000E+00 0.  1.
</event>
<event>
 7    1  0.5854318E-006  0.4490920E+02  0.7818608E-02  0.1479352E+00
          2   -1    0    0  502    0  0.00000000000E+00  0.00000000000E+00  0.91507467076E+02  0.91507467076E+02  0.00000000000E+00 0. -1.
          1   -1    0    0  501    0 -0.00000000000E+00 -0.00000000000E+00 -0.11389222658E+04  0.11389222658E+04  0.00000000000E+00 0. -1.
         25    2    1    2    0    0  0.18301167936E+02  0.12133529403E+02 -0.50855910193E+02  0.13672485950E+03  0.12500083328E+03 0.  0.
          2    1    1    2  501    0 -0.35943164824E+02  0.27646403806E+02 -0.10347880940E+04  0.10357811710E+04  0.00000000000E+00 0. -1.
          1    1    1    2  502    0  0.17641996888E+02 -0.39779933209E+02  0.38229205492E+02  0.57923702341E+02  0.00000000000E+00 0. -1.
         22    1    3    3    0    0 -0.27592455157E+02  0.47865959793E+02 -0.55581195681E+02  0.78369400928E+02  0.00000000000E+00 0.  1.
         22    1    3    3    0    0  0.45893623094E+02 -0.35732430390E+02  0.47252854880E+01  0.58355458572E+02  0.00000000000E+00 0.  1.
</event>
<event>
 7    1  0.5854318E-006  0.6224121E+02  0.7818608E-02  0.1435481E+00
          2   -1    0    0  502    0  0.00000000000E+00  0.00000000000E+00  0.12553852329E+03  0.12553852329E+03  0.00000000000E+00 0. -1.
          1   -1    0    0  501    0 -0.00000000000E+00 -0.00000000000E+00 -0.18187372402E+04  0.18187372402E+04  0.00000000000E+00 0. -1.
         25    2    1    2    0    0  0.58365460910E+02 -0.22036753343E+01 -0.87017219023E+02  0.16311706620E+03  0.12499519058E+03 0.  0.
          2    1    1    2  501    0 -0.87134678590E+01  0.42348782317E+02 -0.16817051868E+04  0.16822608833E+04  0.00000000000E+00 0. -1.
          1    1    1    2  502    0 -0.49651993051E+02 -0.40145106983E+02  0.75523688954E+02  0.98897814039E+02  0.00000000000E+00 0. -1.
         22    1    3    3    0    0  0.19755182609E+02  0.33308539896E+02  0.20256269725E+02  0.43704033373E+02  0.00000000000E+00 0. -1.
         22    1    3    3    0    0  0.38610278300E+02 -0.35512215231E+02 -0.10727348875E+03  0.11941303283E+03  0.00000000000E+00 0. -1.
</event>
<event>
 7    1  0.5854318E-006  0.5620381E+02  0.7818608E-02  0.1437488E+00
          2   -1    0    0  502    0  0.00000000000E+00  0.00000000000E+00  0.12326918643E+04  0.12326918643E+04  0.00000000000E+00 0. -1.
          1   -1    0    0  501    0 -0.00000000000E+00 -0.00000000000E+00 -0.11455326346E+03  0.11455326346E+03  0.00000000000E+00 0. -1.
         25    2    1    2    0    0  0.83199226249E+02 -0.27152806244E+02  0.21228224642E+03  0.26143396171E+03  0.12499831220E+03 0.  0.
          2    1    1    2  501    0 -0.28629415285E+02  0.37480847736E+02 -0.82963574153E+02  0.95432761685E+02  0.00000000000E+00 0. -1.
          1    1    1    2  502    0 -0.54569810965E+02 -0.10328041492E+02  0.98881992859E+03  0.99037840439E+03  0.00000000000E+00 0. -1.
         22    1    3    3    0    0  0.59880044055E+02 -0.13926248970E+02  0.16266950803E+02  0.63593818684E+02  0.00000000000E+00 0.  1.
         22    1    3    3    0    0  0.23319182195E+02 -0.13226557274E+02  0.19601529562E+03  0.19784014302E+03  0.00000000000E+00 0.  1.
</event>
<event>
 7    1  0.5854318E-006  0.5747329E+02  0.7818608E-02  0.1494436E+00
          2   -1    0    0  502    0  0.00000000000E+00  0.00000000000E+00  0.60192700845E+03  0.60192700845E+03  0.00000000000E+00 0. -1.
          1   -1    0    0  501    0 -0.00000000000E+00 -0.00000000000E+00 -0.43011784328E+02  0.43011784328E+02  0.00000000000E+00 0. -1.
         25    2    1    2    0    0 -0.79179701280E+02 -0.35865032356E+01  0.32263102414E+03  0.35496316179E+03  0.12500312153E+03 0.  0.
          2    1    1    2  501    0  0.52580074332E+02  0.18708742309E+02  0.42917610132E+01  0.55974105335E+02  0.00000000000E+00 0. -1.
          1    1    1    2  502    0  0.26599626949E+02 -0.15122239073E+02  0.23199243897E+03  0.23400152565E+03  0.00000000000E+00 0. -1.
         22    1    3    3    0    0 -0.83847477960E+02  0.27738854484E+02  0.30737080674E+03  0.31980721762E+03  0.00000000000E+00 0.  1.
         22    1    3    3    0    0  0.46677766793E+01 -0.31325357720E+02  0.15260217404E+02  0.35155944172E+02  0.00000000000E+00 0.  1.
</event>
<event>
 7    1  0.5854318E-006  0.1189353E+03  0.7818608E-02  0.1325916E+00
          2   -1    0    0  502    0  0.00000000000E+00  0.00000000000E+00  0.35129504760E+03  0.35129504760E+03  0.00000000000E+00 0. -1.
          1   -1    0    0  501    0 -0.00000000000E+00 -0.00000000000E+00 -0.72157538007E+03  0.72157538007E+03  0.00000000000E+00 0. -1.
         25    2    1    2    0    0 -0.34432057080E+02  0.64145975855E+02 -0.29022179505E+01  0.14469041556E+03  0.12500648268E+03 0.  0.
          2    1    1    2  501    0 -0.26319749739E+02  0.48659417763E+02 -0.63187110270E+03  0.63428822990E+03  0.00000000000E+00 0. -1.
          1    1    1    2  502    0  0.60751806819E+02 -0.11280539362E+03  0.26449298817E+03  0.29389178221E+03  0.00000000000E+00 0. -1.
         22    1    3    3    0    0  0.26152396212E+02  0.17673707302E+02 -0.46925073982E+02  0.56553252123E+02  0.00000000000E+00 0.  1.
         22    1    3    3    0    0 -0.60584453292E+02  0.46472268553E+02  0.44022856031E+02  0.88137163435E+02  0.00000000000E+00 0.  1.
</event>
<event>
 7    1  0.5854318E-006  0.3837423E+02  0.7818608E-02  0.1544637E+00
          2   -1    0    0  502    0  0.00000000000E+00  0.00000000000E+00  0.88545353821E+02  0.88545353821E+02  0.00000000000E+00 0. -1.
          1   -1    0    0  501    0 -0.00000000000E+00 -0.00000000000E+00 -0.10820896403E+04  0.10820896403E+04  0.00000000000E+00 0. -1.
         25    2    1    2    0    0 -0.62026551432E+02 -0.64813816224E+01 -0.65039811658E+03  0.66523117892E+03  0.12500203984E+03 0.  0.
          2    1    1    2  501    0  0.34525225456E+02 -0.11300500407E+02 -0.42015398523E+03  0.42172154772E+03  0.00000000000E+00 0. -1.
          1    1    1    2  502    0  0.27501325976E+02  0.17781882030E+02  0.77007815365E+02  0.83682267454E+02  0.00000000000E+00 0. -1.
         22    1    3    3    0    0  0.23977625078E+01 -0.28282813489E+02 -0.49238297829E+03  0.49320042996E+03  0.00000000000E+00 0.  1.
         22    1    3    3    0    0 -0.64424313940E+02  0.21801431867E+02 -0.15801513829E+03  0.17203074896E+03  0.00000000000E+00 0.  1.
</event>
<event>
 7    1  0.5854318E-006  0.4714636E+02  0.7818608E-02  0.1476766E+00
          2   -1    0    0  502    0  0.00000000000E+00  0.00000000000E+00  0.15719549302E+03  0.15719549302E+03  0.00000000000E+00 0. -1.
          1   -1    0    0  501    0 -0.00000000000E+00 -0.00000000000E+00 -0.17583171178E+04  0.17583171178E+04  0.00000000000E+00 0. -1.
         25    2    1    2    0    0  0.86073869546E+02 -0.14902243813E+02 -0.87176571193E+02  0.17565885918E+03  0.12500196940E+03 0.  0.
          2    1    1    2  501    0 -0.43883110841E+02  0.16408502540E+02 -0.16226046444E+04  0.16232808748E+04  0.00000000000E+00 0. -1.
          1    1    1    2  502    0 -0.42190758705E+02 -0.15062587270E+01  0.10865959083E+03  0.11657287684E+03  0.00000000000E+00 0. -1.
         22    1    3    3    0    0  0.53635939642E+02 -0.54917808902E+02 -0.28177033110E+01  0.76816138981E+02  0.00000000000E+00 0.  1.
         22    1    3    3    0    0  0.32437929904E+02  0.40015565089E+02 -0.84358867882E+02  0.98842720198E+02  0.00000000000E+00 0.  1.
</event>
<event>
 7    1  0.5854318E-006  0.7351690E+02  0.7818608E-02  0.1381007E+00
          2   -1    0    0  502    0  0.00000000000E+00  0.00000000000E+00  0.21601570925E+04  0.21601570925E+04  0.00000000000E+00 0. -1.
          1   -1    0    0  501    0 -0.00000000000E+00 -0.00000000000E+00 -0.12887159994E+04  0.12887159994E+04  0.00000000000E+00 0. -1.
         25    2    1    2    0    0  0.20273050806E+02  0.11018278424E+03 -0.20506581607E+02  0.16910431884E+03  0.12499803290E+03 0.  0.
          2    1    1    2  501    0 -0.43156531926E+02 -0.59001989730E+02 -0.11924143214E+04  0.11946529349E+04  0.00000000000E+00 0. -1.
          1    1    1    2  502    0  0.22883481120E+02 -0.51180794507E+02  0.20843619962E+04  0.20851158382E+04  0.00000000000E+00 0. -1.
         22    1    3    3    0    0 -0.26731144143E+01  0.40070437457E+02 -0.69695201525E+02  0.80437594533E+02  0.00000000000E+00 0. -1.
         22    1    3    3    0    0  0.22946165220E+02  0.70112346779E+02  0.49188619919E+02  0.88666724303E+02  0.00000000000E+00 0. -1.
</event>
<event>
 7    1  0.5854318E-006  0.9718866E+02  0.7818608E-02  0.1308679E+00
          2   -1    0    0  502    0  0.00000000000E+00  0.00000000000E+00  0.24226294223E+03  0.24226294223E+03  0.00000000000E+00 0. -1.
          1   -1    0    0  501    0 -0.00000000000E+00 -0.00000000000E+00 -0.12484391540E+04  0.12484391540E+04  0.00000000000E+00 0. -1.
         25    2    1    2    0    0  0.33448506996E+02 -0.16835797791E+03 -0.15426027670E+03  0.26245861969E+03  0.12500033093E+03 0.  0.
          2    1    1    2  501    0 -0.21337001162E+02  0.76087631723E+02 -0.10269616020E+04  0.10299974404E+04  0.00000000000E+00 0. -1.
          1    1    1    2  502    0 -0.12111505833E+02  0.92270346192E+02  0.17504566688E+03  0.19824603616E+03  0.00000000000E+00 0. -1.
         22    1    3    3    0    0 -0.42230848196E+02 -0.10635755495E+03 -0.86550868328E+02  0.14347970882E+03  0.00000000000E+00 0.  1.
         22    1    3    3    0    0  0.75679355192E+02 -0.62000422969E+02 -0.67709408374E+02  0.11897891087E+03  0.00000000000E+00 0.  1.
</event>
<event>
 7    1  0.5854318E-006  0.1262811E+03  0.7818608E-02  0.1389700E+00
          2   -1    0    0  502    0  0.00000000000E+00  0.00000000000E+00  0.54162467807E+03  0.54162467807E+03  0.00000000000E+00 0. -1.
          1   -1    0    0  501    0 -0.00000000000E+00 -0.00000000000E+00 -0.14692262772E+04  0.14692262772E+04  0.00000000000E+00 0. -1.
         25    2    1    2    0    0  0.12058664215E+03  0.43252871233E+02 -0.14755420141E+03  0.23197453351E+03  0.12501197027E+03 0.  0.
          2    1    1    2  501    0 -0.12569941375E+03 -0.13263761452E+02 -0.12758728932E+04  0.12821185240E+04  0.00000000000E+00 0. -1.
          1    1    1    2  502    0  0.51127716035E+01 -0.29989109781E+02  0.49582549542E+03  0.49675789782E+03  0.00000000000E+00 0. -1.
         22    1    3    3    0    0 -0.20425760920E+02 -0.71021454649E+01 -0.46639299520E+02  0.51408914004E+02  0.00000000000E+00 0. -1.
         22    1    3    3    0    0  0.14101240306E+03  0.50355016698E+02 -0.10091490189E+03  0.18056561951E+03  0.00000000000E+00 0. -1.
</event>
<event>
 7    1  0.5854318E-006  0.1540914E+03  0.7818608E-02  0.1318880E+00
          2   -1    0    0  502    0  0.00000000000E+00  0.00000000000E+00  0.18802952493E+04  0.18802952493E+04  0.00000000000E+00 0. -1.
          1   -1    0    0  501    0 -0.00000000000E+00 -0.00000000000E+00 -0.70642658025E+03  0.70642658025E+03  0.00000000000E+00 0. -1.
         25    2    1    2    0    0  0.20071396043E+02 -0.18575685330E+03  0.71626499019E+02  0.23593258627E+03  0.12500144166E+03 0.  0.
          2    1    1    2  501    0 -0.42509040239E+02  0.14622042132E+03 -0.61468243412E+03  0.63326291928E+03  0.00000000000E+00 0. -1.
          1    1    1    2  502    0  0.22437644196E+02  0.39536431981E+02  0.17169246042E+04  0.17175263240E+04  0.00000000000E+00 0. -1.
         22    1    3    3    0    0  0.54964377976E+02 -0.18147068185E+03  0.59014158640E+02  0.19858338837E+03  0.00000000000E+00 0. -1.
         22    1    3    3    0    0 -0.34892981933E+02 -0.42861714485E+01  0.12612340380E+02  0.37349197899E+02  0.00000000000E+00 0. -1.
</event>
<event>
 7    1  0.5854318E-006  0.5428539E+02  0.7818608E-02  0.1451567E+00
          2   -1    0    0  502    0  0.00000000000E+00  0.00000000000E+00  0.96867087624E+03  0.96867087624E+03  0.00000000000E+00 0. -1.
          1   -1    0    0  501    0 -0.00000000000E+00 -0.00000000000E+00 -0.36347103541E+03  0.36347103541E+03  0.00000000000E+00 0. -1.
         25    2    1    2    0    0 -0.93530456367E+02 -0.14824907559E+02  0.16973453930E+02  0.15773822504E+03  0.12500210137E+03 0.  0.
          2    1    1    2  501    0  0.53154215616E+02 -0.26208922433E+01 -0.29011795698E+03  0.29495875759E+03  0.00000000000E+00 0. -1.
          1    1    1    2  502    0  0.40376240751E+02  0.17445799803E+02  0.87834434389E+03  0.87944492903E+03  0.00000000000E+00 0. -1.
         22    1    3    3    0    0 -0.87972971656E+02 -0.31108258882E+01  0.64079035615E+02  0.10888086969E+03  0.00000000000E+00 0. -1.
         22    1    3    3    0    0 -0.55574847119E+01 -0.11714081671E+02 -0.47105581685E+02  0.48857355348E+02  0.00000000000E+00 0. -1.
</event>
<event>
 7    1  0.5854318E-006  0.6703384E+02  0.7818608E-02  0.1506233E+00
          2   -1    0    0  502    0  0.00000000000E+00  0.00000000000E+00  0.16936731078E+03  0.16936731078E+03  0.00000000000E+00 0. -1.
          1   -1    0    0  501    0 -0.00000000000E+00 -0.00000000000E+00 -0.11168955172E+04  0.11168955172E+04  0.00000000000E+00 0. -1.
         25    2    1    2    0    0 -0.46238383034E+02 -0.21627990328E+02 -0.31730206416E+03  0.34483612891E+03  0.12500239138E+03 0.  0.
          2    1    1    2  501    0  0.68072097436E+02  0.11209644557E+02 -0.78336086279E+03  0.78639284580E+03  0.00000000000E+00 0. -1.
          1    1    1    2  502    0 -0.21833714401E+02  0.10418345771E+02  0.15313472056E+03  0.15503385325E+03  0.00000000000E+00 0. -1.
         22    1    3    3    0    0  0.22709048106E+02  0.29263398262E+02 -0.39649868745E+02  0.54260109060E+02  0.00000000000E+00 0. -1.
         22    1    3    3    0    0 -0.68947431140E+02 -0.50891388590E+02 -0.27765219541E+03  0.29057601985E+03  0.00000000000E+00 0. -1.
</event>
<event>
 7    1  0.5854318E-006  0.1189567E+03  0.7818608E-02  0.1343615E+00
          2   -1    0    0  502    0  0.00000000000E+00  0.00000000000E+00  0.16955924426E+03  0.16955924426E+03  0.00000000000E+00 0. -1.
          1   -1    0    0  501    0 -0.00000000000E+00 -0.00000000000E+00 -0.60345440888E+03  0.60345440888E+03  0.00000000000E+00 0. -1.
         25    2    1    2    0    0  0.43353775569E+02 -0.15155667355E+03 -0.20516071854E+03  0.28734240767E+03  0.12500305459E+03 0.  0.
          2    1    1    2  501    0 -0.24602189967E+02  0.10803389209E+03 -0.34380824411E+03  0.36122112108E+03  0.00000000000E+00 0. -1.
          1    1    1    2  502    0 -0.18751585601E+02  0.43522781460E+02  0.11507379803E+03  0.12445012440E+03  0.00000000000E+00 0. -1.
         22    1    3    3    0    0 -0.35495100894E+02 -0.10213150857E+03 -0.10993962641E+03  0.15419944450E+03  0.00000000000E+00 0.  1.
         22    1    3    3    0    0  0.78848876463E+02 -0.49425164978E+02 -0.95221092132E+02  0.13314296316E+03  0.00000000000E+00 0.  1.
</event>
<event>
 7    1  0.5854318E-006  0.6236232E+02  0.7818608E-02  0.1415940E+00
          2   -1    0    0  502    0  0.00000000000E+00  0.00000000000E+00  0.73841454773E+02  0.73841454773E+02  0.00000000000E+00 0. -1.
          1   -1    0    0  501    0 -0.00000000000E+00 -0.00000000000E+00 -0.10149133231E+04  0.10149133231E+04  0.00000000000E+00 0. -1.
         25    2    1    2    0    0 -0.84856676677E+01 -0.10734004210E+03 -0.19960661553E+03  0.25896495399E+03  0.12500462087E+03 0.  0.
          2    1    1    2  501    0 -0.31423370048E+01  0.49989263387E+02 -0.76505746878E+03  0.76669533146E+03  0.00000000000E+00 0. -1.
          1    1    1    2  502    0  0.11628004672E+02  0.57350778712E+02  0.23592216030E+02  0.63094492381E+02  0.00000000000E+00 0. -1.
         22    1    3    3    0    0 -0.52014077830E+02 -0.23762464067E+02 -0.29128956586E+02  0.64176437287E+02  0.00000000000E+00 0. -1.
         22    1    3    3    0    0  0.43528410162E+02 -0.83577578032E+02 -0.17047765894E+03  0.19478851670E+03  0.00000000000E+00 0. -1.
</event>
<event>
 7    1  0.5854318E-006  0.7502942E+02  0.7818608E-02  0.1456225E+00
          2   -1    0    0  502    0  0.00000000000E+00  0.00000000000E+00  0.98688878104E+02  0.98688878104E+02  0.00000000000E+00 0. -1.
          1   -1    0    0  501    0 -0.00000000000E+00 -0.00000000000E+00 -0.16420437209E+04  0.16420437209E+04  0.00000000000E+00 0. -1.
         25    2    1    2    0    0  0.20495986813E+02 -0.10032056997E+03 -0.17084716899E+03  0.23515525168E+03  0.12499974002E+03 0.  0.
          2    1    1    2  501    0 -0.46262391009E+00  0.30752159570E+02 -0.14191333916E+04  0.14194666226E+04  0.00000000000E+00 0. -1.
          1    1    1    2  502    0 -0.20033362903E+02  0.69568410401E+02  0.46625717829E+02  0.86110724756E+02  0.00000000000E+00 0. -1.
         22    1    3    3    0    0  0.22619069712E+02 -0.70963285185E+02 -0.14270103634E+02  0.75835651356E+02  0.00000000000E+00 0.  1.
         22    1    3    3    0    0 -0.21230828984E+01 -0.29357284787E+02 -0.15657706536E+03  0.15931960033E+03  0.00000000000E+00 0.  1.
</event>
<event>
 7    1  0.5854318E-006  0.5078091E+02  0.7818608E-02  0.1448457E+00
          2   -1    0    0  502    0  0.00000000000E+00  0.00000000000E+00  0.41659915733E+03  0.41659915733E+03  0.00000000000E+00 0. -1.
          1   -1    0    0  501    0 -0.00000000000E+00 -0.00000000000E+00 -0.29790661374E+04  0.29790661374E+04  0.00000000000E+00 0. -1.
         25    2    1    2    0    0 -0.90723204976E+02  0.34833869678E+02 -0.63507049787E+03  0.65451481420E+03  0.12502402304E+03 0.  0.
          2    1    1    2  501    0  0.40974381870E+02 -0.25210956127E+02 -0.23324468765E+04  0.23329429748E+04  0.00000000000E+00 0. -1.
          1    1    1    2  502    0  0.49748823106E+02 -0.96229135506E+01  0.40505039424E+03  0.40820750574E+03  0.00000000000E+00 0. -1.
         22    1    3    3    0    0 -0.10912419746E+03  0.44401446213E+02 -0.61304115636E+03  0.62425879112E+03  0.00000000000E+00 0. -1.
         22    1    3    3    0    0  0.18400992481E+02 -0.95675765354E+01 -0.22029341512E+02  0.30256023078E+02  0.00000000000E+00 0. -1.
</event>
<event>
 7    1  0.5854318E-006  0.1275269E+03  0.7818608E-02  0.1391048E+00
          2   -1    0    0  502    0  0.00000000000E+00  0.00000000000E+00  0.13812574904E+04  0.13812574904E+04  0.00000000000E+00 0. -1.
          1   -1    0    0  501    0 -0.00000000000E+00 -0.00000000000E+00 -0.82232545674E+03  0.82232545674E+03  0.00000000000E+00 0. -1.
         25    2    1    2    0    0 -0.13652903553E+03 -0.68866779365E+02  0.20334554579E+02  0.19854814892E+03  0.12500024995E+03 0.  0.
          2    1    1    2  501    0  0.29792354926E+02  0.68504320917E+00 -0.72976054431E+03  0.73036874641E+03  0.00000000000E+00 0. -1.
          1    1    1    2  502    0  0.10673668061E+03  0.68181736156E+02  0.12683580234E+04  0.12746660518E+04  0.00000000000E+00 0. -1.
         22    1    3    3    0    0 -0.13910196874E+03 -0.38853480581E+02 -0.22513958078E+02  0.14617054755E+03  0.00000000000E+00 0. -1.
         22    1    3    3    0    0  0.25729332096E+01 -0.30013298784E+02  0.42848512656E+02  0.52377601378E+02  0.00000000000E+00 0. -1.
</event>
<event>
 7    1  0.5854318E-006  0.9688613E+02  0.7818608E-02  0.1428733E+00
          2   -1    0    0  502    0  0.00000000000E+00  0.00000000000E+00  0.52140660006E+03  0.52140660006E+03  0.00000000000E+00 0. -1.
          1   -1    0    0  501    0 -0.00000000000E+00 -0.00000000000E+00 -0.66827654600E+03  0.66827654600E+03  0.00000000000E+00 0. -1.
         25    2    1    2    0    0 -0.60802331815E+02 -0.66708743938E+02 -0.70874382989E+02  0.16969240900E+03  0.12500142174E+03 0.  0.
          2    1    1    2  501    0 -0.23275400356E+02  0.17679563673E+02 -0.54257815012E+03  0.54336485001E+03  0.00000000000E+00 0. -1.
          1    1    1    2  502    0  0.84077732172E+02  0.49029180265E+02  0.46658258717E+03  0.47662588706E+03  0.00000000000E+00 0. -1.
         22    1    3    3    0    0  0.14785311616E+02 -0.15018449406E+02 -0.75121969182E+02  0.78022237317E+02  0.00000000000E+00 0.  1.
         22    1    3    3    0    0 -0.75587643431E+02 -0.51690294532E+02  0.42475861925E+01  0.91670171685E+02  0.00000000000E+00 0.  1.
</event>
<event>
 7    1  0.5854318E-006  0.9649987E+02  0.7818608E-02  0.1367317E+00
          2   -1    0    0  502    0  0.00000000000E+00  0.00000000000E+00  0.17712547138E+04  0.17712547138E+04  0.00000000000E+00 0. -1.
          1   -1    0    0  501    0 -0.00000000000E+00 -0.00000000000E+00 -0.57441540812E+03  0.57441540812E+03  0.00000000000E+00 0. -1.
         25    2    1    2    0    0 -0.12418099796E+03  0.37630514377E+02  0.35479048907E+02  0.18363176433E+03  0.12499954437E+03 0.  0.
          2    1    1    2  501    0  0.28199809703E+02 -0.38598810539E+02 -0.49780701590E+03  0.50009691313E+03  0.00000000000E+00 0. -1.
          1    1    1    2  502    0  0.95981188256E+02  0.96829616196E+00  0.16591672727E+04  0.16619414445E+04  0.00000000000E+00 0. -1.
         22    1    3    3    0    0 -0.27614670121E+02  0.66608430893E+02 -0.10420212808E+02  0.72854882519E+02  0.00000000000E+00 0. -1.
         22    1    3    3    0    0 -0.96566327838E+02 -0.28977916516E+02  0.45899261715E+02  0.11077688181E+03  0.00000000000E+00 0. -1.
</event>
<event>
 7    1  0.5854318E-006  0.4118237E+02  0.7818608E-02  0.1569555E+00
          2   -1    0    0  502    0  0.00000000000E+00  0.00000000000E+00  0.56709416692E+03  0.56709416692E+03  0.00000000000E+00 0. -1.
          1   -1    0    0  501    0 -0.00000000000E+00 -0.00000000000E+00 -0.39857203451E+02  0.39857203451E+02  0.00000000000E+00 0. -1.
         25    2    1    2    0    0 -0.32969199834E+02  0.42634191631E+02  0.18547130421E+03  0.23006345087E+03  0.12499977724E+03 0.  0.
          2    1    1    2  501    0  0.70923665519E+01 -0.39708643310E+02  0.67936468032E+01  0.40905154366E+02  0.00000000000E+00 0. -1.
          1    1    1    2  502    0  0.25876833283E+02 -0.29255483215E+01  0.33497201246E+03  0.33598276513E+03  0.00000000000E+00 0. -1.
         22    1    3    3    0    0  0.28711242565E+02  0.63903199484E+02  0.10860971251E+03  0.12924404824E+03  0.00000000000E+00 0.  1.
         22    1    3    3    0    0 -0.61680442399E+02 -0.21269007853E+02  0.76861591698E+02  0.10081940264E+03  0.00000000000E+00 0.  1.
</event>
<event>
 7    1  0.5854318E-006  0.1075446E+03  0.7818608E-02  0.1400627E+00
          2   -1    0    0  502    0  0.00000000000E+00  0.00000000000E+00  0.12496743659E+04  0.12496743659E+04  0.00000000000E+00 0. -1.
          1   -1    0    0  501    0 -0.00000000000E+00 -0.00000000000E+00 -0.97516093638E+03  0.97516093638E+03  0.00000000000E+00 0. -1.
         25    2    1    2    0    0 -0.75851467721E+01 -0.13768824875E+03 -0.20120573661E+01  0.18613957734E+03  0.12501322163E+03 0.  0.
          2    1    1    2  501    0 -0.22908093411E+01  0.10647220471E+03 -0.87763404812E+03  0.88407188655E+03  0.00000000000E+00 0. -1.
          1    1    1    2  502    0  0.98759561131E+01  0.31216044038E+02  0.11541595350E+04  0.11546238384E+04  0.00000000000E+00 0. -1.
         22    1    3    3    0    0 -0.64693439056E+02 -0.79484438351E+02  0.12743926799E+02  0.10327354292E+03  0.00000000000E+00 0.  1.
         22    1    3    3    0    0  0.57108292284E+02 -0.58203810399E+02 -0.14755984165E+02  0.82866034424E+02  0.00000000000E+00 0.  1.
</event>
<event>
 7    1  0.5854318E-006  0.7903424E+02  0.7818608E-02  0.1336129E+00
          2   -1    0    0  502    0  0.00000000000E+00  0.00000000000E+00  0.20441291434E+04  0.20441291434E+04  0.00000000000E+00 0. -1.
          1   -1    0    0  501    0 -0.00000000000E+00 -0.00000000000E+00 -0.52023902099E+02  0.52023902099E+02  0.00000000000E+00 0. -1.
         25    2    1    2    0    0 -0.17581930200E+02 -0.58055208636E+02  0.64799793656E+03  0.66272624949E+03  0.12500089784E+03 0.  0.
          2    1    1    2  501    0  0.75743237173E+02 -0.74504555754E+01 -0.97568133759E+01  0.76731627593E+02  0.00000000000E+00 0. -1.
          1    1    1    2  502    0 -0.58161306974E+02  0.65505664211E+02  0.13538641181E+04  0.13566951684E+04  0.00000000000E+00 0. -1.
         22    1    3    3    0    0 -0.40203346772E+02 -0.66441017386E+02  0.62359111549E+03  0.62840798627E+03  0.00000000000E+00 0. -1.
         22    1    3    3    0    0  0.22621416572E+02  0.83858087500E+01  0.24406821066E+02  0.34318263224E+02  0.00000000000E+00 0. -1.
</event>
<event>
 7    1  0.5854318E-006  0.5657950E+02  0.7818608E-02  0.1551216E+00
          2   -1    0    0  502    0  0.00000000000E+00  0.00000000000E+00  0.57141934051E+02  0.57141934051E+02  0.00000000000E+00 0. -1.
          1   -1    0    0  501    0 -0.00000000000E+00 -0.00000000000E+00 -0.24264105329E+04  0.24264105329E+04  0.00000000000E+00 0. -1.
         25    2    1    2    0    0  0.57327898057E+02 -0.29106673205E+02 -0.27116389054E+03  0.30542876601E+03  0.12499275681E+03 0.  0.
          2    1    1    2  501    0 -0.39354768099E+02  0.40518922399E+02 -0.21348816685E+04  0.21356287879E+04  0.00000000000E+00 0. -1.
          1    1    1    2  502    0 -0.17973129958E+02 -0.11412249194E+02  0.36776960242E+02  0.42494913070E+02  0.00000000000E+00 0. -1.
         22    1    3    3    0    0 -0.24133494732E+02  0.11825528538E+02 -0.97750848177E+01  0.28597569414E+02  0.00000000000E+00 0. -1.
         22    1    3    3    0    0  0.81461392789E+02 -0.40932201743E+02 -0.26138880572E+03  0.27683119660E+03  0.00000000000E+00 0. -1.
</event>
<event>
 7    1  0.5854318E-006  0.3681305E+03  0.7818608E-02  0.1308724E+00
          2   -1    0    0  502    0  0.00000000000E+00  0.00000000000E+00  0.50349318761E+03  0.50349318761E+03  0.00000000000E+00 0. -1.
          1   -1    0    0  501    0 -0.00000000000E+00 -0.00000000000E+00 -0.52223005544E+03  0.52223005544E+03  0.00000000000E+00 0. -1.
         25    2    1    2    0    0 -0.33643629258E+03 -0.15534716840E+03 -0.26868088862E+03  0.47448282520E+03  0.12498963883E+03 0.  0.
          2    1    1    2  501    0  0.33744721141E+03  0.13451772921E+03  0.69827857338E+02  0.36992103160E+03  0.00000000000E+00 0. -1.
          1    1    1    2  502    0 -0.10109188325E+01  0.20829439189E+02  0.18011616344E+03  0.18131938624E+03  0.00000000000E+00 0. -1.
         22    1    3    3    0    0 -0.93943048558E+02 -0.24179969210E+02 -0.11907532361E+02  0.97733088615E+02  0.00000000000E+00 0. -1.
         22    1    3    3    0    0 -0.24249324402E+03 -0.13116719918E+03 -0.25677335626E+03  0.37674973659E+03  0.00000000000E+00 0. -1.
</event>
<event>
 7    1  0.6647596E-006  0.9301669E+02  0.7818608E-02  0.1309321E+00
          2   -1    0    0  502    0  0.00000000000E+00  0.00000000000E+00  0.82091104322E+03  0.82091104322E+03  0.00000000000E+00 0. -1.
          1   -1    0    0  501    0 -0.00000000000E+00 -0.00000000000E+00 -0.14345542219E+04  0.14345542219E+04  0.00000000000E+00 0. -1.
         25    2    1    2    0    0  0.40807862406E+02  0.30353390894E+02 -0.87079004257E+02  0.16060674992E+03  0.12500066066E+03 0.  0.
          2    1    1    2  501    0 -0.89229210012E+02  0.35931171690E+02 -0.13067904446E+04  0.13103259774E+04  0.00000000000E+00 0. -1.
          1    1    1    2  502    0  0.48421347606E+02 -0.66284562584E+02  0.78022627018E+03  0.78453253777E+03  0.00000000000E+00 0. -1.
         22    1    3    3    0    0  0.13531181240E+02 -0.16140399418E+02  0.27112261517E+02  0.34331910575E+02  0.00000000000E+00 0. -1.
         22    1    3    3    0    0  0.27276681165E+02  0.46493790312E+02 -0.11419126577E+03  0.12627483935E+03  0.00000000000E+00 0. -1.
</event>
<event>
 7    1  0.5854318E-006  0.3247407E+02  0.7818608E-02  0.1628682E+00
          2   -1    0    0  502    0  0.00000000000E+00  0.00000000000E+00  0.11536349298E+04  0.11536349298E+04  0.00000000000E+00 0. -1.
          1   -1    0    0  501    0 -0.00000000000E+00 -0.00000000000E+00 -0.94947171081E+03  0.94947171081E+03  0.00000000000E+00 0. -1.
         25    2    1    2    0    0  0.25764830915E+02 -0.48112075839E+02 -0.11878368653E+03  0.18086714559E+03  0.12499904725E+03 0.  0.
          2    1    1    2  501    0 -0.61061829294E+01  0.22306489748E+02 -0.79924462557E+03  0.79957916209E+03  0.00000000000E+00 0. -1.
          1    1    1    2  502    0 -0.19658647986E+02  0.25805586091E+02  0.11221915311E+04  0.11226603329E+04  0.00000000000E+00 0. -1.
         22    1    3    3    0    0  0.61168917576E+02 -0.70857572239E+02 -0.73208543298E+02  0.11883569680E+03  0.00000000000E+00 0. -1.
         22    1    3    3    0    0 -0.35404086661E+02  0.22745496401E+02 -0.45575143229E+02  0.62031448792E+02  0.00000000000E+00 0. -1.
</event>
<event>
 7    1  0.5854318E-006  0.1320805E+03  0.7818608E-02  0.1231187E+00
          2   -1    0    0  502    0  0.00000000000E+00  0.00000000000E+00  0.41673095838E+03  0.41673095838E+03  0.00000000000E+00 0. -1.
          1   -1    0    0  501    0 -0.00000000000E+00 -0.00000000000E+00 -0.30713961636E+03  0.30713961636E+03  0.00000000000E+00 0. -1.
         25    2    1    2    0    0 -0.25574486844E+00 -0.38501741618E+02  0.33753729989E+02  0.13509652400E+03  0.12501722680E+03 0.  0.
          2    1    1    2  501    0 -0.99096545163E+02 -0.87321943352E+02 -0.21751238443E+03  0.25447374016E+03  0.00000000000E+00 0. -1.
          1    1    1    2  502    0  0.99352290031E+02  0.12582368497E+03  0.29334999646E+03  0.33430031058E+03  0.00000000000E+00 0. -1.
         22    1    3    3    0    0 -0.26686048591E+02 -0.66090626788E+02  0.56216123011E+02  0.90776476165E+02  0.00000000000E+00 0. -1.
         22    1    3    3    0    0  0.26430303722E+02  0.27588885170E+02 -0.22462393023E+02  0.44320047835E+02  0.00000000000E+00 0. -1.
</event>
<event>
 7    1  0.5854318E-006  0.1221972E+03  0.7818608E-02  0.1264604E+00
          2   -1    0    0  502    0  0.00000000000E+00  0.00000000000E+00  0.17657306024E+03  0.17657306024E+03  0.00000000000E+00 0. -1.
          1   -1    0    0  501    0 -0.00000000000E+00 -0.00000000000E+00 -0.15156677254E+04  0.15156677254E+04  0.00000000000E+00 0. -1.
         25    2    1    2    0    0 -0.36116804406E+02 -0.16070218715E+02 -0.48886831415E+02  0.13992154827E+03  0.12500176756E+03 0.  0.
          2    1    1    2  501    0  0.76849959057E+02  0.10210210154E+03 -0.14006784450E+04  0.14064959515E+04  0.00000000000E+00 0. -1.
          1    1    1    2  502    0 -0.40733154650E+02 -0.86031882824E+02  0.11047061125E+03  0.14582328586E+03  0.00000000000E+00 0. -1.
         22    1    3    3    0    0 -0.50221882840E+01 -0.16198220989E+01  0.42234295286E+02  0.42562681977E+02  0.00000000000E+00 0. -1.
         22    1    3    3    0    0 -0.31094616122E+02 -0.14450396616E+02 -0.91121126701E+02  0.97358866290E+02  0.00000000000E+00 0. -1.
</event>
<event>
 7    1  0.5854318E-006  0.3463735E+02  0.7818608E-02  0.1558279E+00
          2   -1    0    0  502    0  0.00000000000E+00  0.00000000000E+00  0.38881017996E+03  0.38881017996E+03  0.00000000000E+00 0. -1.
          1   -1    0    0  501    0 -0.00000000000E+00 -0.00000000000E+00 -0.27313561973E+03  0.27313561973E+03  0.00000000000E+00 0. -1.
         25    2    1    2    0    0 -0.97816047176E+01 -0.53711216411E+01  0.11764443825E+03  0.17204026392E+03  0.12503243508E+03 0.  0.
          2    1    1    2  501    0 -0.66619042515E+01  0.34263908338E+02 -0.24355511281E+03  0.24604367368E+03  0.00000000000E+00 0. -1.
          1    1    1    2  502    0  0.16443508969E+02 -0.28892786697E+02  0.24158523479E+03  0.24386186208E+03  0.00000000000E+00 0. -1.
         22    1    3    3    0    0  0.52459041899E+02 -0.18174881885E+02  0.82453663565E+02  0.99402636001E+02  0.00000000000E+00 0.  1.
         22    1    3    3    0    0 -0.62240646617E+02  0.12803760244E+02  0.35190774680E+02  0.72637627923E+02  0.00000000000E+00 0.  1.
</event>
<event>
 7    1  0.5854318E-006  0.4739173E+02  0.7818608E-02  0.1513117E+00
          2   -1    0    0  502    0  0.00000000000E+00  0.00000000000E+00  0.60223953047E+03  0.60223953047E+03  0.00000000000E+00 0. -1.
          1   -1    0    0  501    0 -0.00000000000E+00 -0.00000000000E+00 -0.15858139655E+03  0.15858139655E+03  0.00000000000E+00 0. -1.
         25    2    1    2    0    0  0.30075789450E+02 -0.72997197636E+02  0.10969845866E+03  0.18409607104E+03  0.12499787025E+03 0.  0.
          2    1    1    2  501    0 -0.14178224064E+02  0.29419875136E+02 -0.11797706545E+03  0.12241380259E+03  0.00000000000E+00 0. -1.
          1    1    1    2  502    0 -0.15897565386E+02  0.43577322501E+02  0.45193674072E+03  0.45431105339E+03  0.00000000000E+00 0. -1.
         22    1    3    3    0    0  0.49365379306E+02 -0.38640285585E+01 -0.39577414298E+01  0.49674290210E+02  0.00000000000E+00 0.  1.
         22    1    3    3    0    0 -0.19289589855E+02 -0.69133169078E+02  0.11365620009E+03  0.13442178083E+03  0.00000000000E+00 0.  1.
</event>
<event>
 7    1  0.5854318E-006  0.9793284E+02  0.7818608E-02  0.1362717E+00
          2   -1    0    0  502    0  0.00000000000E+00  0.00000000000E+00  0.88623890434E+03  0.88623890434E+03  0.00000000000E+00 0. -1.
          1   -1    0    0  501    0 -0.00000000000E+00 -0.00000000000E+00 -0.22200404917E+03  0.22200404917E+03  0.00000000000E+00 0. -1.
         25    2    1    2    0    0 -0.79295353767E+00 -0.14212574053E+03  0.36665377324E+03  0.41262916148E+03  0.12500992193E+03 0.  0.
          2    1    1    2  501    0 -0.14328142684E+02  0.95574781053E+02 -0.18597517806E+03  0.20958673933E+03  0.00000000000E+00 0. -1.
          1    1    1    2  502    0  0.15121096222E+02  0.46550959473E+02  0.48355625999E+03  0.48602705270E+03  0.00000000000E+00 0. -1.
         22    1    3    3    0    0  0.47888437915E+02 -0.94860877122E+02  0.13831048104E+03  0.17441811162E+03  0.00000000000E+00 0.  1.
         22    1    3    3    0    0 -0.48681391453E+02 -0.47264863403E+02  0.22834329220E+03  0.23821104987E+03  0.00000000000E+00 0.  1.
</event>
<event>
 7    1  0.5854318E-006  0.7328771E+02  0.7818608E-02  0.1360755E+00
          2   -1    0    0  502    0  0.00000000000E+00  0.00000000000E+00  0.17372615460E+04  0.17372615460E+04  0.00000000000E+00 0. -1.
          1   -1    0    0  501    0 -0.00000000000E+00 -0.00000000000E+00 -0.78522156660E+02  0.78522156660E+02  0.00000000000E+00 0. -1.
         25    2    1    2    0    0  0.96761044116E+02  0.93738716196E+00  0.13001648869E+04  0.13097395825E+04  0.12500185026E+03 0.  0.
          2    1    1    2  501    0 -0.47560873831E+02  0.46462432766E+02 -0.55354298713E+02  0.86515274744E+02  0.00000000000E+00 0. -1.
          1    1    1    2  502    0 -0.49200170285E+02 -0.47399819928E+02  0.41392880120E+03  0.41952884543E+03  0.00000000000E+00 0. -1.
         22    1    3    3    0    0 -0.18109752332E+02 -0.30503181418E+02  0.19738101787E+03  0.20054344522E+03  0.00000000000E+00 0. -1.
         22    1    3    3    0    0  0.11487079645E+03  0.31440568580E+02  0.11027838690E+04  0.11091961373E+04  0.00000000000E+00 0. -1.
</event>
<event>
 7    1  0.5854318E-006  0.7864116E+02  0.7818608E-02  0.1411545E+00
          2   -1    0    0  502    0  0.00000000000E+00  0.00000000000E+00  0.47806682609E+02  0.47806682609E+02  0.00000000000E+00 0. -1.
          1   -1    0    0  501    0 -0.00000000000E+00 -0.00000000000E+00 -0.45976241675E+03  0.45976241675E+03  0.00000000000E+00 0. -1.
         25    2    1    2    0    0 -0.58376442148E+02 -0.42855919300E+01 -0.19668512025E+03  0.24028293351E+03  0.12499870525E+03 0.  0.
          2    1    1    2  501    0  0.78957883066E+02  0.39858492686E+02 -0.20735777413E+03  0.22543356722E+03  0.00000000000E+00 0. -1.
          1    1    1    2  502    0 -0.20581440918E+02 -0.35572900756E+02 -0.79128397608E+01  0.41852598623E+02  0.00000000000E+00 0. -1.
         22    1    3    3    0    0 -0.14436933417E+01  0.25387150987E+02 -0.16808820391E+03  0.17000069406E+03  0.00000000000E+00 0.  1.
         22    1    3    3    0    0 -0.56932748807E+02 -0.29672742917E+02 -0.28596916335E+02  0.70282239455E+02  0.00000000000E+00 0.  1.
</event>
<event>
 7    1  0.5854318E-006  0.3639813E+02  0.7818608E-02  0.1542086E+00
          2   -1    0    0  502    0  0.00000000000E+00  0.00000000000E+00  0.16530983939E+04  0.16530983939E+04  0.00000000000E+00 0. -1.
          1   -1    0    0  501    0 -0.00000000000E+00 -0.00000000000E+00 -0.85255938140E+01  0.85255938140E+01  0.00000000000E+00 0. -1.
         25    2    1    2    0    0 -0.42827771375E+01 -0.87669402491E+01  0.10265218126E+04  0.10341502896E+04  0.12499835266E+03 0.  0.
          2    1    1    2  501    0 -0.33107462991E+02 -0.11666607059E+02  0.75603354558E+02  0.83355150089E+02  0.00000000000E+00 0. -1.
          1    1    1    2  502    0  0.37390240129E+02  0.20433547309E+02  0.54244763289E+03  0.54411854806E+03  0.00000000000E+00 0. -1.
         22    1    3    3    0    0 -0.36644660101E+02  0.45233534556E+02  0.62726611855E+03  0.62996165538E+03  0.00000000000E+00 0. -1.
         22    1    3    3    0    0  0.32361882964E+02 -0.54000474806E+02  0.39925569410E+03  0.40418863420E+03  0.00000000000E+00 0. -1.
</event>
<event>
 7    1  0.5854318E-006  0.1206064E+03  0.7818608E-02  0.1298190E+00
          2   -1    0    0  502    0  0.00000000000E+00  0.00000000000E+00  0.76474695487E+03  0.76474695487E+03  0.00000000000E+00 0. -1.
          1   -1    0    0  501    0 -0.00000000000E+00 -0.00000000000E+00 -0.74533807079E+03  0.74533807079E+03  0.00000000000E+00 0. -1.
         25    2    1    2    0    0  0.36681285069E+02 -0.55619523011E+02 -0.12922676997E+03  0.19173754638E+03  0.12499872240E+03 0.  0.
          2    1    1    2  501    0 -0.50578777489E+02  0.12433543209E+03 -0.57543882354E+03  0.59088691984E+03  0.00000000000E+00 0. -1.
          1    1    1    2  502    0  0.13897492420E+02 -0.68715909078E+02  0.72407447759E+03  0.72746055944E+03  0.00000000000E+00 0. -1.
         22    1    3    3    0    0  0.27135266947E+02 -0.78217690876E+02 -0.27719615082E+02  0.87308114964E+02  0.00000000000E+00 0.  1.
         22    1    3    3    0    0  0.95460181224E+01  0.22598167864E+02 -0.10150715489E+03  0.10442943142E+03  0.00000000000E+00 0.  1.
</event>
<event>
 7    1  0.5854318E-006  0.4687727E+02  0.7818608E-02  0.1510480E+00
          2   -1    0    0  502    0  0.00000000000E+00  0.00000000000E+00  0.28453036286E+03  0.28453036286E+03  0.00000000000E+00 0. -1.
          1   -1    0    0  501    0 -0.00000000000E+00 -0.00000000000E+00 -0.14198620785E+04  0.14198620785E+04  0.00000000000E+00 0. -1.
         25    2    1    2    0    0  0.78432250160E+02  0.10543518272E+01 -0.24068032059E+03  0.28231844395E+03  0.12499583014E+03 0.  0.
          2    1    1    2  501    0 -0.32440404068E+02 -0.87910983156E+01 -0.11560545280E+04  0.11565430104E+04  0.00000000000E+00 0. -1.
          1    1    1    2  502    0 -0.45991846092E+02  0.77367464884E+01  0.26140313294E+03  0.26553098701E+03  0.00000000000E+00 0. -1.
         22    1    3    3    0    0 -0.68251282992E+01  0.27929598145E+02 -0.36383388086E+01  0.28980723561E+02  0.00000000000E+00 0.  1.
         22    1    3    3    0    0  0.85257378459E+02 -0.26875246318E+02 -0.23704198178E+03  0.25333772039E+03  0.00000000000E+00 0.  1.
</event>
<event>
 7    1  0.7329891E-006  0.5565644E+02  0.7818608E-02  0.1515219E+00
          2   -1    0    0  502    0  0.00000000000E+00  0.00000000000E+00  0.16856076997E+04  0.16856076997E+04  0.00000000000E+00 0. -1.
          1   -1    0    0  501    0 -0.00000000000E+00 -0.00000000000E+00 -0.67318615412E+03  0.67318615412E+03  0.00000000000E+00 0. -1.
         25    2    1    2    0    0 -0.36998288340E+02  0.72273073326E+02 -0.25696187519E+03  0.29706636076E+03  0.12500698750E+03 0.  0.
          2    1    1    2  501    0  0.46745611357E+01 -0.27015856178E+02 -0.39523272458E+03  0.39618255210E+03  0.00000000000E+00 0. -1.
          1    1    1    2  502    0  0.32323727205E+02 -0.45257217148E+02  0.16646161454E+04  0.16655449410E+04  0.00000000000E+00 0. -1.
         22    1    3    3    0    0 -0.11787060557E+02 -0.17602962796E+02 -0.16387590975E+03  0.16523956212E+03  0.00000000000E+00 0.  1.
         22    1    3    3    0    0 -0.25211227783E+02  0.89876036122E+02 -0.93085965443E+02  0.13182679863E+03  0.00000000000E+00 0.  1.
</event>
<event>
 7    1  0.5854318E-006  0.1189374E+03  0.7818608E-02  0.1412909E+00
          2   -1    0    0  502    0  0.00000000000E+00  0.00000000000E+00  0.90486724940E+03  0.90486724940E+03  0.00000000000E+00 0. -1.
          1   -1    0    0  501    0 -0.00000000000E+00 -0.00000000000E+00 -0.56108596018E+03  0.56108596018E+03  0.00000000000E+00 0. -1.
         25    2    1    2    0    0 -0.56329727351E+02 -0.74069481605E+02  0.70683355316E+03  0.72380813961E+03  0.12500089920E+03 0.  0.
          2    1    1    2  501    0  0.77760306741E+02  0.90306464234E+02 -0.54517512008E+03  0.55804823658E+03  0.00000000000E+00 0. -1.
          1    1    1    2  502    0 -0.21430579390E+02 -0.16236982629E+02  0.18212285614E+03  0.18409683340E+03  0.00000000000E+00 0. -1.
         22    1    3    3    0    0  0.33459676100E+02 -0.65505531774E+01  0.29369846992E+03  0.29567084892E+03  0.00000000000E+00 0. -1.
         22    1    3    3    0    0 -0.89789403451E+02 -0.67518928428E+02  0.41313508325E+03  0.42813729069E+03  0.00000000000E+00 0. -1.
</event>
<event>
 7    1  0.5854318E-006  0.1233056E+03  0.7818608E-02  0.1280945E+00
          2   -1    0    0  502    0  0.00000000000E+00  0.00000000000E+00  0.18077587298E+04  0.18077587298E+04  0.00000000000E+00 0. -1.
          1   -1    0    0  501    0 -0.00000000000E+00 -0.00000000000E+00 -0.27003356085E+03  0.27003356085E+03  0.00000000000E+00 0. -1.
         25    2    1    2    0    0 -0.18019730875E+03 -0.84366145690E+02  0.54717779584E+03  0.59549690208E+03  0.12499721400E+03 0.  0.
          2    1    1    2  501    0  0.10164666781E+03  0.66305388603E+02 -0.22948722810E+03  0.25960130488E+03  0.00000000000E+00 0. -1.
          1    1    1    2  502    0  0.78550640946E+02  0.18060757087E+02  0.12200346012E+04  0.12226940837E+04  0.00000000000E+00 0. -1.
         22    1    3    3    0    0  0.17756440990E+02 -0.80031220750E+01  0.80968695112E+02  0.83278272963E+02  0.00000000000E+00 0.  1.
         22    1    3    3    0    0 -0.19795374974E+03 -0.76363023615E+02  0.46620910073E+03  0.51221862912E+03  0.00000000000E+00 0.  1.
</event>
<event>
 7    1  0.5854318E-006  0.6849225E+02  0.7818608E-02  0.1410241E+00
          2   -1    0    0  502    0  0.00000000000E+00  0.00000000000E+00  0.16993402796E+02  0.16993402796E+02  0.00000000000E+00 0. -1.
          1   -1    0    0  501    0 -0.00000000000E+00 -0.00000000000E+00 -0.33406773118E+04  0.33406773118E+04  0.00000000000E+00 0. -1.
         25    2    1    2    0    0 -0.27956260243E+02 -0.10196040898E+03 -0.10309384849E+04  0.10438565908E+04  0.12499977991E+03 0.  0.
          2    1    1    2  501    0 -0.32986117125E+01  0.65967209384E+02 -0.22462614660E+04  0.22472323260E+04  0.00000000000E+00 0. -1.
          1    1    1    2  502    0  0.31254871956E+02  0.35993199599E+02 -0.46483958202E+02  0.66581797877E+02  0.00000000000E+00 0. -1.
         22    1    3    3    0    0  0.18684675928E+02 -0.73677384079E+02 -0.88155837767E+03  0.88482916276E+03  0.00000000000E+00 0.  1.
         22    1    3    3    0    0 -0.46640936171E+02 -0.28283024904E+02 -0.14938010722E+03  0.15902742801E+03  0.00000000000E+00 0.  1.
</event>
<event>
 7    1  0.5854318E-006  0.3826584E+02  0.7818608E-02  0.1521744E+00
          2   -1    0    0  502    0  0.00000000000E+00  0.00000000000E+00  0.12249080979E+04  0.12249080979E+04  0.00000000000E+00 0. -1.
          1   -1    0    0  501    0 -0.00000000000E+00 -0.00000000000E+00 -0.24989724941E+04  0.24989724941E+04  0.00000000000E+00 0. -1.
         25    2    1    2    0    0  0.32474883822E+02  0.12148118279E+02  0.93707246624E+02  0.16002731432E+03  0.12500199359E+03 0.  0.
          2    1    1    2  501    0 -0.27883680975E+02  0.26068860132E+02 -0.24653273341E+04  0.24656228319E+04  0.00000000000E+00 0. -1.
          1    1    1    2  502    0 -0.45912028465E+01 -0.38216978412E+02  0.10975556912E+04  0.10982304457E+04  0.00000000000E+00 0. -1.
         22    1    3    3    0    0  0.20173045476E+02  0.62347093947E+02  0.85455744716E+02  0.10768842181E+03  0.00000000000E+00 0.  1.
         22    1    3    3    0    0  0.12301838345E+02 -0.50198975668E+02  0.82515019080E+01  0.52338892503E+02  0.00000000000E+00 0.  1.
</event>
<event>
 7    1  0.5854318E-006  0.1430843E+03  0.7818608E-02  0.1271669E+00
          2   -1    0    0  502    0  0.00000000000E+00  0.00000000000E+00  0.23405733821E+04  0.23405733821E+04  0.00000000000E+00 0. -1.
          1   -1    0    0  501    0 -0.00000000000E+00 -0.00000000000E+00 -0.33378961157E+03  0.33378961157E+03  0.00000000000E+00 0. -1.
         25    2    1    2    0    0  0.16109533607E+03 -0.12461793599E+03  0.13792468408E+04  0.13997957251E+04  0.12499954752E+03 0.  0.
          2    1    1    2  501    0 -0.85990881858E+02  0.11360023552E+03 -0.30621332453E+03  0.33773665095E+03  0.00000000000E+00 0. -1.
          1    1    1    2  502    0 -0.75104454212E+02  0.11017700466E+02  0.93375025426E+03  0.93683061762E+03  0.00000000000E+00 0. -1.
         22    1    3    3    0    0  0.11043082728E+03 -0.31304879331E+02  0.44621327224E+03  0.46073989127E+03  0.00000000000E+00 0.  1.
         22    1    3    3    0    0  0.50664508792E+02 -0.93313056656E+02  0.93303356852E+03  0.93905583379E+03  0.00000000000E+00 0.  1.
</event>
<event>
 7    1  0.5860855E-006  0.7926638E+02  0.7818608E-02  0.1334920E+00
          2   -1    0    0  502    0  0.00000000000E+00  0.00000000000E+00  0.28044647767E+04  0.28044647767E+04  0.00000000000E+00 0. -1.
          1   -1    0    0  501    0 -0.00000000000E+00 -0.00000000000E+00 -0.37266553531E+03  0.37266553531E+03  0.00000000000E+00 0. -1.
         25    2    1    2    0    0 -0.40327753912E+02 -0.13946615123E+03  0.40906409850E+02  0.19589507729E+03  0.12499764744E+03 0.  0.
          2    1    1    2  501    0 -0.69543427131E+01  0.76374371273E+02 -0.28960041312E+03  0.29958272105E+03  0.00000000000E+00 0. -1.
          1    1    1    2  502    0  0.47282096625E+02  0.63091779957E+02  0.26804932447E+04  0.26816525137E+04  0.00000000000E+00 0. -1.
         22    1    3    3    0    0  0.81871007680E+01 -0.14227171485E+03  0.36453134912E+02  0.14709554892E+03  0.00000000000E+00 0.  1.
         22    1    3    3    0    0 -0.48514854680E+02  0.28055636241E+01  0.44532749377E+01  0.48799528374E+02  0.00000000000E+00 0.  1.
</event>
<event>
 7    1  0.5854318E-006  0.5906549E+02  0.7818608E-02  0.1426919E+00
          2   -1    0    0  502    0  0.00000000000E+00  0.00000000000E+00  0.92851829248E+02  0.92851829248E+02  0.00000000000E+00 0. -1.
          1   -1    0    0  501    0 -0.00000000000E+00 -0.00000000000E+00 -0.71740627201E+03  0.71740627201E+03  0.00000000000E+00 0. -1.
         25    2    1    2    0    0  0.84799109419E+02  0.55434226540E+02 -0.36121596918E+03  0.39543300494E+03  0.12500577016E+03 0.  0.
          2    1    1    2  501    0 -0.40545054882E+02 -0.35321020372E+02 -0.32886746906E+03  0.33323458428E+03  0.00000000000E+00 0. -1.
          1    1    1    2  502    0 -0.44254054537E+02 -0.20113206167E+02  0.65528995481E+02  0.81590512034E+02  0.00000000000E+00 0. -1.
         22    1    3    3    0    0  0.15653904473E+02 -0.24025196931E+02 -0.20516932767E+03  0.20716348093E+03  0.00000000000E+00 0.  1.
         22    1    3    3    0    0  0.69145204946E+02  0.79459423471E+02 -0.15604664151E+03  0.18826952401E+03  0.00000000000E+00 0.  1.
</event>
<event>
 7    1  0.5854318E-006  0.1263018E+03  0.7818608E-02  0.1329534E+00
          2   -1    0    0  502    0  0.00000000000E+00  0.00000000000E+00  0.50636697758E+03  0.50636697758E+03  0.00000000000E+00 0. -1.
          1   -1    0    0  501    0 -0.00000000000E+00 -0.00000000000E+00 -0.10603413529E+04  0.10603413529E+04  0.00000000000E+00 0. -1.
         25    2    1    2    0    0 -0.22284185038E+02  0.12082374387E+03 -0.59489983108E+03  0.62018211622E+03  0.12500034511E+03 0.  0.
          2    1    1    2  501    0  0.71969840380E+02 -0.11203222076E+03 -0.44166698329E+03  0.46130315471E+03  0.00000000000E+00 0. -1.
          1    1    1    2  502    0 -0.49685655342E+02 -0.87915231038E+01  0.48259243908E+03  0.48522305952E+03  0.00000000000E+00 0. -1.
         22    1    3    3    0    0 -0.56499181170E+02  0.12106315397E+03 -0.53264692883E+03  0.54914587817E+03  0.00000000000E+00 0.  1.
         22    1    3    3    0    0  0.34214996132E+02 -0.23941010712E+00 -0.62252902255E+02  0.71036238053E+02  0.00000000000E+00 0.  1.
</event>
<event>
 7    1  0.5854318E-006  0.4737629E+02  0.7818608E-02  0.1488108E+00
          2   -1    0    0  502    0  0.00000000000E+00  0.00000000000E+00  0.86795603424E+03  0.86795603424E+03  0.00000000000E+00 0. -1.
          1   -1    0    0  501    0 -0.00000000000E+00 -0.00000000000E+00 -0.84217544121E+03  0.84217544121E+03  0.00000000000E+00 0. -1.
         25    2    1    2    0    0  0.34754836421E+02  0.93524578373E+00  0.67310260719E+02  0.14616575349E+03  0.12499993183E+03 0.  0.
          2    1    1    2  501    0 -0.27226468605E+02 -0.38986373454E+02 -0.80154846029E+03  0.80295775238E+03  0.00000000000E+00 0. -1.
          1    1    1    2  502    0 -0.75283678160E+01  0.38051127670E+02  0.76001879260E+03  0.76100796957E+03  0.00000000000E+00 0. -1.
         22    1    3    3    0    0  0.49483992113E+02 -0.37567602237E+02 -0.56286694432E+01  0.62383268053E+02  0.00000000000E+00 0. -1.
         22    1    3    3    0    0 -0.14729155691E+02  0.38502848021E+02  0.72938930162E+02  0.83782485438E+02  0.00000000000E+00 0. -1.
</event>
<event>
 7    1  0.5854318E-006  0.4644865E+02  0.7818608E-02  0.1561771E+00
          2   -1    0    0  502    0  0.00000000000E+00  0.00000000000E+00  0.18499338137E+02  0.18499338137E+02  0.00000000000E+00 0. -1.
          1   -1    0    0  501    0 -0.00000000000E+00 -0.00000000000E+00 -0.12799786761E+04  0.12799786761E+04  0.00000000000E+00 0. -1.
         25    2    1    2    0    0  0.25069423563E+02 -0.75316392749E+01 -0.70021336180E+03  0.71176462180E+03  0.12499969285E+03 0.  0.
          2    1    1    2  501    0 -0.48206497579E+02  0.14787094703E+02 -0.56017608486E+03  0.56244090412E+03  0.00000000000E+00 0. -1.
          1    1    1    2  502    0  0.23137074016E+02 -0.72554554279E+01 -0.10898913314E+01  0.24272488348E+02  0.00000000000E+00 0. -1.
         22    1    3    3    0    0  0.68680597388E+02 -0.28360933739E+02 -0.32123487370E+03  0.32971686506E+03  0.00000000000E+00 0. -1.
         22    1    3    3    0    0 -0.43611173824E+02  0.20829294464E+02 -0.37897848810E+03  0.38204775674E+03  0.00000000000E+00 0. -1.
</event>
<event>
 7    1  0.5854318E-006  0.3070213E+03  0.7818608E-02  0.1227207E+00
          2   -1    0    0  502    0  0.00000000000E+00  0.00000000000E+00  0.23926709963E+04  0.23926709963E+04  0.00000000000E+00 0. -1.
          1   -1    0    0  501    0 -0.00000000000E+00 -0.00000000000E+00 -0.63292572648E+03  0.63292572648E+03  0.00000000000E+00 0. -1.
         25    2    1    2    0    0 -0.21517246523E+03  0.19045164003E+03 -0.12195649783E+03  0.33626329085E+03  0.12501438489E+03 0.  0.
          2    1    1    2  501    0  0.20582419327E+03 -0.24484113759E+03 -0.34007939395E+03  0.46686697825E+03  0.00000000000E+00 0. -1.
          1    1    1    2  502    0  0.93482719524E+01  0.54389497557E+02  0.22217811616E+04  0.22224664537E+04  0.00000000000E+00 0. -1.
         22    1    3    3    0    0 -0.61609181388E+02  0.13555561220E+03 -0.42438369018E+02  0.15482903602E+03  0.00000000000E+00 0. -1.
         22    1    3    3    0    0 -0.15356328384E+03  0.54896027827E+02 -0.79518128816E+02  0.18143425483E+03  0.00000000000E+00 0. -1.
</event>
<event>
 7    1  0.5854318E-006  0.9005709E+02  0.7818608E-02  0.1307140E+00
          2   -1    0    0  502    0  0.00000000000E+00  0.00000000000E+00  0.40608651631E+03  0.40608651631E+03  0.00000000000E+00 0. -1.
          1   -1    0    0  501    0 -0.00000000000E+00 -0.00000000000E+00 -0.96466993768E+03  0.96466993768E+03  0.00000000000E+00 0. -1.
         25    2    1    2    0    0  0.13364406444E+03  0.30838114357E+02 -0.25496533628E+03  0.31534733260E+03  0.12499956886E+03 0.  0.
          2    1    1    2  501    0 -0.55633004969E+02 -0.68171052994E+02 -0.67163124967E+03  0.67737054795E+03  0.00000000000E+00 0. -1.
          1    1    1    2  502    0 -0.78011059473E+02  0.37332938637E+02  0.36801316457E+03  0.37803857344E+03  0.00000000000E+00 0. -1.
         22    1    3    3    0    0  0.25511416471E+01 -0.66213843766E+01  0.12932651085E+02  0.14751424299E+02  0.00000000000E+00 0.  1.
         22    1    3    3    0    0  0.13109292279E+03  0.37459498733E+02 -0.26789798736E+03  0.30059590830E+03  0.00000000000E+00 0.  1.
</event>
<event>
 7    1  0.5854318E-006  0.4592548E+02  0.7818608E-02  0.1492370E+00
          2   -1    0    0  502    0  0.00000000000E+00  0.00000000000E+00  0.67130290455E+02  0.67130290455E+02  0.00000000000E+00 0. -1.
          1   -1    0    0  501    0 -0.00000000000E+00 -0.00000000000E+00 -0.22707380784E+04  0.22707380784E+04  0.00000000000E+00 0. -1.
         25    2    1    2    0    0 -0.84451988727E+01 -0.43712089426E+02 -0.15078020932E+04  0.15136293248E+04  0.12499804932E+03 0.  0.
          2    1    1    2  501    0 -0.32081056912E+02  0.21900923338E+02 -0.75120969508E+03  0.75221330129E+03  0.00000000000E+00 0. -1.
          1    1    1    2  502    0  0.40526255785E+02  0.21811166088E+02  0.55404000339E+02  0.72025742812E+02  0.00000000000E+00 0. -1.
         22    1    3    3    0    0  0.19198392870E+02  0.38358766213E+02 -0.66738270138E+03  0.66875977999E+03  0.00000000000E+00 0. -1.
         22    1    3    3    0    0 -0.27643591743E+02 -0.82070855639E+02 -0.84041939186E+03  0.84486954480E+03  0.00000000000E+00 0. -1.
</event>
<event>
 7    1  0.5854318E-006  0.9865770E+02  0.7818608E-02  0.1395944E+00
          2   -1    0    0  502    0  0.00000000000E+00  0.00000000000E+00  0.63840459983E+03  0.63840459983E+03  0.00000000000E+00 0. -1.
          1   -1    0    0  501    0 -0.00000000000E+00 -0.00000000000E+00 -0.20173848225E+04  0.20173848225E+04  0.00000000000E+00 0. -1.
         25    2    1    2    0    0 -0.10517873756E+03  0.72757761346E+02 -0.45189927740E+02  0.18445464561E+03  0.12500051218E+03 0.  0.
          2    1    1    2  501    0  0.68198934597E+02 -0.70613569028E+02 -0.19006913212E+04  0.19032248604E+04  0.00000000000E+00 0. -1.
          1    1    1    2  502    0  0.36979802964E+02 -0.21441923175E+01  0.56690102628E+03  0.56810991629E+03  0.00000000000E+00 0. -1.
         22    1    3    3    0    0 -0.33275374326E+02 -0.34827294029E+02 -0.22155504301E+02  0.53019405096E+02  0.00000000000E+00 0.  1.
         22    1    3    3    0    0 -0.71903363235E+02  0.10758505537E+03 -0.23034423439E+02  0.13143524051E+03  0.00000000000E+00 0.  1.
</event>
<event>
 7    1  0.5854318E-006  0.1031009E+03  0.7818608E-02  0.1454088E+00
          2   -1    0    0  502    0  0.00000000000E+00  0.00000000000E+00  0.11207547873E+04  0.11207547873E+04  0.00000000000E+00 0. -1.
          1   -1    0    0  501    0 -0.00000000000E+00 -0.00000000000E+00 -0.21031752706E+03  0.21031752706E+03  0.00000000000E+00 0. -1.
         25    2    1    2    0    0 -0.43321834100E+02  0.84442517313E+02 -0.73018360103E+02  0.17309580679E+03  0.12499262928E+03 0.  0.
          2    1    1    2  501    0  0.65883113318E+02 -0.87242325383E+02 -0.52845010688E+02  0.12142653381E+03  0.00000000000E+00 0. -1.
          1    1    1    2  502    0 -0.22561279218E+02  0.27998080701E+01  0.10363006310E+04  0.10365499737E+04  0.00000000000E+00 0. -1.
         22    1    3    3    0    0 -0.14552804814E+01 -0.13223148040E+02  0.25135702590E+02  0.28438935108E+02  0.00000000000E+00 0. -1.
         22    1    3    3    0    0 -0.41866553618E+02  0.97665665353E+02 -0.98154062694E+02  0.14465687168E+03  0.00000000000E+00 0. -1.
</event>
<event>
 7    1  0.5854318E-006  0.5214048E+02  0.7818608E-02  0.1562830E+00
          2   -1    0    0  502    0  0.00000000000E+00  0.00000000000E+00  0.90297726897E+02  0.90297726897E+02  0.00000000000E+00 0. -1.
          1   -1    0    0  501    0 -0.00000000000E+00 -0.00000000000E+00 -0.16675199331E+04  0.16675199331E+04  0.00000000000E+00 0. -1.
         25    2    1    2    0    0  0.14358890350E+02 -0.30808883380E+02 -0.68483868402E+03  0.69698284334E+03  0.12500278302E+03 0.  0.
          2    1    1    2  501    0  0.19353667671E+02 -0.92648771243E+01 -0.96833865175E+03  0.96857635057E+03  0.00000000000E+00 0. -1.
          1    1    1    2  502    0 -0.33712558021E+02  0.40073760504E+02  0.75955129590E+02  0.92258466063E+02  0.00000000000E+00 0. -1.
         22    1    3    3    0    0  0.12581173275E+02 -0.79637308949E+02 -0.41641437849E+03  0.42414775905E+03  0.00000000000E+00 0.  1.
         22    1    3    3    0    0  0.17777170751E+01  0.48828425569E+02 -0.26842430553E+03  0.27283508429E+03  0.00000000000E+00 0.  1.
</event>
<event>
 7    1  0.5854318E-006  0.1748912E+03  0.7818608E-02  0.1305544E+00
          2   -1    0    0  502    0  0.00000000000E+00  0.00000000000E+00  0.28322980549E+03  0.28322980549E+03  0.00000000000E+00 0. -1.
          1   -1    0    0  501    0 -0.00000000000E+00 -0.00000000000E+00 -0.22492555049E+04  0.22492555049E+04  0.00000000000E+00 0. -1.
         25    2    1    2    0    0 -0.77548649153E+02  0.11163764011E+03 -0.12390343466E+04  0.12527221279E+04  0.12501944648E+03 0.  0.
          2    1    1    2  501    0 -0.19735158706E+01  0.45143388487E+02 -0.97484716423E+03  0.97589385381E+03  0.00000000000E+00 0. -1.
          1    1    1    2  502    0  0.79522165023E+02 -0.15678102860E+03  0.24785581142E+03  0.30386932868E+03  0.00000000000E+00 0. -1.
         22    1    3    3    0    0  0.22242713262E+02  0.60004180647E+02 -0.64407207665E+03  0.64724344717E+03  0.00000000000E+00 0.  1.
         22    1    3    3    0    0 -0.99791362415E+02  0.51633459466E+02 -0.59496226997E+03  0.60547868074E+03  0.00000000000E+00 0.  1.
</event>
<event>
 7    1  0.5854318E-006  0.2446381E+03  0.7818608E-02  0.1275526E+00
          2   -1    0    0  502    0  0.00000000000E+00  0.00000000000E+00  0.22075772977E+04  0.22075772977E+04  0.00000000000E+00 0. -1.
          1   -1    0    0  501    0 -0.00000000000E+00 -0.00000000000E+00 -0.25981566643E+03  0.25981566643E+03  0.00000000000E+00 0. -1.
         25    2    1    2    0    0 -0.44948462748E+02 -0.25014637105E+03  0.16979869870E+03  0.33022113589E+03  0.12498331590E+03 0.  0.
          2    1    1    2  501    0  0.42341466054E+02  0.61195198228E+01 -0.16932781483E+03  0.17464866774E+03  0.00000000000E+00 0. -1.
          1    1    1    2  502    0  0.26069966943E+01  0.24402685123E+03  0.19472907474E+04  0.19625231605E+04  0.00000000000E+00 0. -1.
         22    1    3    3    0    0 -0.35605916426E+02 -0.11400064556E+03  0.15091348531E+03  0.19245469212E+03  0.00000000000E+00 0.  1.
         22    1    3    3    0    0 -0.93425463223E+01 -0.13614572550E+03  0.18885213388E+02  0.13776644376E+03  0.00000000000E+00 0.  1.
</event>
<event>
 7    1  0.5854318E-006  0.1211823E+03  0.7818608E-02  0.1373660E+00
          2   -1    0    0  502    0  0.00000000000E+00  0.00000000000E+00  0.29588772025E+03  0.29588772025E+03  0.00000000000E+00 0. -1.
          1   -1    0    0  501    0 -0.00000000000E+00 -0.00000000000E+00 -0.10463802153E+04  0.10463802153E+04  0.00000000000E+00 0. -1.
         25    2    1    2    0    0  0.84984966094E+02  0.85145898062E+02 -0.40022366051E+03  0.43620782959E+03  0.12500409491E+03 0.  0.
          2    1    1    2  501    0 -0.28447754705E+02  0.22258069988E+02 -0.61435542190E+03  0.61541634756E+03  0.00000000000E+00 0. -1.
          1    1    1    2  502    0 -0.56537211389E+02 -0.10740396805E+03  0.26408658740E+03  0.29064375835E+03  0.00000000000E+00 0. -1.
         22    1    3    3    0    0  0.57458364785E+01  0.64743258678E+02 -0.68045363855E+02  0.94100349219E+02  0.00000000000E+00 0. -1.
         22    1    3    3    0    0  0.79239129616E+02  0.20402639384E+02 -0.33217829666E+03  0.34210748037E+03  0.00000000000E+00 0. -1.
</event>
<event>
 7    1  0.5854318E-006  0.4081885E+03  0.7818608E-02  0.1106893E+00
          2   -1    0    0  502    0  0.00000000000E+00  0.00000000000E+00  0.66325584663E+03  0.66325584663E+03  0.00000000000E+00 0. -1.
          1   -1    0    0  501    0 -0.00000000000E+00 -0.00000000000E+00 -0.98662870606E+03  0.98662870606E+03  0.00000000000E+00 0. -1.
         25    2    1    2    0    0  0.48476378599E+03  0.24165055804E+02 -0.20261096495E+03  0.54059345874E+03  0.12494081155E+03 0.  0.
          2    1    1    2  501    0 -0.37280938325E+03  0.98590710459E+02 -0.53700186085E+03  0.66111872080E+03  0.00000000000E+00 0. -1.
          1    1    1    2  502    0 -0.11195440274E+03 -0.12275576626E+03  0.41623996637E+03  0.44817237314E+03  0.00000000000E+00 0. -1.
         22    1    3    3    0    0  0.23843505817E+03 -0.30007006193E+02 -0.48932444320E+02  0.24524698060E+03  0.00000000000E+00 0. -1.
         22    1    3    3    0    0  0.24632872781E+03  0.54172061997E+02 -0.15367852063E+03  0.29534647814E+03  0.00000000000E+00 0. -1.
</event>
<event>
 7    1  0.5854318E-006  0.5996836E+02  0.7818608E-02  0.1440322E+00
          2   -1    0    0  502    0  0.00000000000E+00  0.00000000000E+00  0.18063399972E+03  0.18063399972E+03  0.00000000000E+00 0. -1.
          1   -1    0    0  501    0 -0.00000000000E+00 -0.00000000000E+00 -0.22151750970E+04  0.22151750970E+04  0.00000000000E+00 0. -1.
         25    2    1    2    0    0  0.84368258517E+02  0.28576734369E+02 -0.50128881783E+03  0.52426144175E+03  0.12499979052E+03 0.  0.
          2    1    1    2  501    0 -0.41319111250E+02  0.12864319585E+02 -0.16968381458E+04  0.16973898941E+04  0.00000000000E+00 0. -1.
          1    1    1    2  502    0 -0.43049147267E+02 -0.41441053954E+02  0.16358586629E+03  0.17415776090E+03  0.00000000000E+00 0. -1.
         22    1    3    3    0    0  0.10334042448E+02  0.65222958502E+02 -0.15946612128E+03  0.17259858222E+03  0.00000000000E+00 0.  1.
         22    1    3    3    0    0  0.74034216069E+02 -0.36646224134E+02 -0.34182269655E+03  0.35166285953E+03  0.00000000000E+00 0.  1.
</event>
<event>
 7    1  0.7842406E-006  0.8583050E+02  0.7818608E-02  0.1384248E+00
          2   -1    0    0  502    0  0.00000000000E+00  0.00000000000E+00  0.78610522875E+03  0.78610522875E+03  0.00000000000E+00 0. -1.
          1   -1    0    0  501    0 -0.00000000000E+00 -0.00000000000E+00 -0.14659605008E+04  0.14659605008E+04  0.00000000000E+00 0. -1.
         25    2    1    2    0    0 -0.40433834033E+02 -0.98422729241E+02 -0.51746762073E+03  0.54288089475E+03  0.12499999528E+03 0.  0.
          2    1    1    2  501    0  0.44998428237E+02  0.12760257043E+02 -0.93281974618E+03  0.93399162821E+03  0.00000000000E+00 0. -1.
          1    1    1    2  502    0 -0.45645942040E+01  0.85662472198E+02  0.77043209489E+03  0.77519320656E+03  0.00000000000E+00 0. -1.
         22    1    3    3    0    0 -0.68683614779E+02 -0.30967601466E+02 -0.37765270454E+03  0.38509478901E+03  0.00000000000E+00 0.  1.
         22    1    3    3    0    0  0.28249780745E+02 -0.67455127775E+02 -0.13981491619E+03  0.15778610574E+03  0.00000000000E+00 0.  1.
</event>
<event>
 7    1  0.5854318E-006  0.1910311E+03  0.7818608E-02  0.1295046E+00
          2   -1    0    0  502    0  0.00000000000E+00  0.00000000000E+00  0.13471586900E+04  0.13471586900E+04  0.00000000000E+00 0. -1.
          1   -1    0    0  501    0 -0.00000000000E+00 -0.00000000000E+00 -0.28390346539E+03  0.28390346539E+03  0.00000000000E+00 0. -1.
         25    2    1    2    0    0  0.96782382611E+02  0.16025741017E+03  0.53208946621E+03  0.57774918232E+03  0.12500260207E+03 0.  0.
          2    1    1    2  501    0 -0.13520312905E+03 -0.13575231241E+03 -0.22514364411E+03  0.29563192810E+03  0.00000000000E+00 0. -1.
          1    1    1    2  502    0  0.38420746435E+02 -0.24505097761E+02  0.75630940256E+03  0.75768104501E+03  0.00000000000E+00 0. -1.
         22    1    3    3    0    0  0.51689413092E+02  0.13332580911E+03  0.49001118621E+03  0.51044934069E+03  0.00000000000E+00 0.  1.
         22    1    3    3    0    0  0.45092969519E+02  0.26931601061E+02  0.42078279998E+02  0.67299841629E+02  0.00000000000E+00 0.  1.
</event>
<event>
 7    1  0.5854318E-006  0.6587034E+02  0.7818608E-02  0.1411191E+00
          2   -1    0    0  502    0  0.00000000000E+00  0.00000000000E+00  0.23107889572E+03  0.23107889572E+03  0.00000000000E+00 0. -1.
          1   -1    0    0  501    0 -0.00000000000E+00 -0.00000000000E+00 -0.53243483899E+03  0.53243483899E+03  0.00000000000E+00 0. -1.
         25    2    1    2    0    0  0.26720387887E+01 -0.26644056281E+00 -0.28418270671E+03  0.31046991609E+03  0.12499818886E+03 0.  0.
          2    1    1    2  501    0 -0.35793644323E+02 -0.56670901069E+02 -0.22513408018E+03  0.23490025556E+03  0.00000000000E+00 0. -1.
          1    1    1    2  502    0  0.33121605534E+02  0.56937341632E+02  0.20796084363E+03  0.21814356307E+03  0.00000000000E+00 0. -1.
         22    1    3    3    0    0  0.20577191186E+02 -0.56241375189E+02 -0.94379544319E+02  0.11177661413E+03  0.00000000000E+00 0. -1.
         22    1    3    3    0    0 -0.17905152397E+02  0.55974934626E+02 -0.18980316240E+03  0.19869330196E+03  0.00000000000E+00 0. -1.
</event>
<event>
 7    1  0.5854318E-006  0.2812826E+03  0.7818608E-02  0.1300571E+00
          2   -1    0    0  502    0  0.00000000000E+00  0.00000000000E+00  0.33756825551E+03  0.33756825551E+03  0.00000000000E+00 0. -1.
          1   -1    0    0  501    0 -0.00000000000E+00 -0.00000000000E+00 -0.32691924659E+03  0.32691924659E+03  0.00000000000E+00 0. -1.
         25    2    1    2    0    0  0.10447724378E+03 -0.24919810515E+03  0.78958241854E+02  0.30801696618E+03  0.12499942968E+03 0.  0.
          2    1    1    2  501    0  0.22590488744E+02 -0.18826335378E+02 -0.51586726214E+02  0.59379722186E+02  0.00000000000E+00 0. -1.
          1    1    1    2  502    0 -0.12706773252E+03  0.26802444053E+03 -0.16722506714E+02  0.29709081373E+03  0.00000000000E+00 0. -1.
         22    1    3    3    0    0  0.42337085699E+02 -0.45098937929E+01  0.26558430670E+02  0.50180854986E+02  0.00000000000E+00 0.  1.
         22    1    3    3    0    0  0.62140158079E+02 -0.24468821136E+03  0.52399811184E+02  0.25783611120E+03  0.00000000000E+00 0.  1.
</event>
<event>
 7    1  0.5854318E-006  0.1099478E+03  0.7818608E-02  0.1321237E+00
          2   -1    0    0  502    0  0.00000000000E+00  0.00000000000E+00  0.13213964537E+04  0.13213964537E+04  0.00000000000E+00 0. -1.
          1   -1    0    0  501    0 -0.00000000000E+00 -0.00000000000E+00 -0.17488437939E+04  0.17488437939E+04  0.00000000000E+00 0. -1.
         25    2    1    2    0    0  0.69047784619E+02 -0.16292136283E+01 -0.13184528800E+02  0.14342142850E+03  0.12500249380E+03 0.  0.
          2    1    1    2  501    0 -0.97463611422E+02 -0.53907411980E+02 -0.16679078813E+04  0.16716225248E+04  0.00000000000E+00 0. -1.
          1    1    1    2  502    0  0.28415826803E+02  0.55536625608E+02  0.12536450699E+04  0.12551962943E+04  0.00000000000E+00 0. -1.
         22    1    3    3    0    0 -0.25070226798E+02 -0.34759176133E+02 -0.72549738631E+01  0.43466668183E+02  0.00000000000E+00 0. -1.
         22    1    3    3    0    0  0.94118011416E+02  0.33129962505E+02 -0.59295549370E+01  0.99954760318E+02  0.00000000000E+00 0. -1.
</event>
<event>
 7    1  0.5854318E-006  0.1290541E+03  0.7818608E-02  0.1349595E+00
          2   -1    0    0  502    0  0.00000000000E+00  0.00000000000E+00  0.61549833899E+03  0.61549833899E+03  0.00000000000E+00 0. -1.
          1   -1    0    0  501    0 -0.00000000000E+00 -0.00000000000E+00 -0.15527727242E+04  0.15527727242E+04  0.00000000000E+00 0. -1.
         25    2    1    2    0    0  0.23903973857E+02 -0.13780521721E+03  0.13347290260E+03  0.23022338870E+03  0.12500446041E+03 0.  0.
          2    1    1    2  501    0 -0.58533087280E+02  0.11493661021E+03 -0.15006317952E+04  0.15061647756E+04  0.00000000000E+00 0. -1.
          1    1    1    2  502    0  0.34629113423E+02  0.22868606998E+02  0.42988450735E+03  0.43188289888E+03  0.00000000000E+00 0. -1.
         22    1    3    3    0    0  0.12177561445E+02  0.20179682971E+02  0.39589936416E+02  0.46074674963E+02  0.00000000000E+00 0. -1.
         22    1    3    3    0    0  0.11726412412E+02 -0.15798490018E+03  0.93882966183E+02  0.18414871374E+03  0.00000000000E+00 0. -1.
</event>
<event>
 7    1  0.5854318E-006  0.1181527E+03  0.7818608E-02  0.1390099E+00
          2   -1    0    0  502    0  0.00000000000E+00  0.00000000000E+00  0.77012486127E+03  0.77012486127E+03  0.00000000000E+00 0. -1.
          1   -1    0    0  501    0 -0.00000000000E+00 -0.00000000000E+00 -0.23090301977E+03  0.23090301977E+03  0.00000000000E+00 0. -1.
         25    2    1    2    0    0  0.82958736939E+02  0.49721586687E+02  0.30076651685E+03  0.33976352106E+03  0.12499745743E+03 0.  0.
          2    1    1    2  501    0 -0.11318297978E+03 -0.38019376096E+02 -0.19389093972E+03  0.22770497662E+03  0.00000000000E+00 0. -1.
          1    1    1    2  502    0  0.30224242842E+02 -0.11702210591E+02  0.43234626437E+03  0.43355938337E+03  0.00000000000E+00 0. -1.
         22    1    3    3    0    0  0.10397319834E+03  0.12388130618E+01  0.21864011582E+03  0.24210630078E+03  0.00000000000E+00 0. -1.
         22    1    3    3    0    0 -0.21014461396E+02  0.48482773625E+02  0.82126401034E+02  0.97657220281E+02  0.00000000000E+00 0. -1.
</event>
<event>
 7    1  0.5854318E-006  0.3864758E+02  0.7818608E-02  0.1556887E+00
          2   -1    0    0  502    0  0.00000000000E+00  0.00000000000E+00  0.82444355901E+03  0.82444355901E+03  0.00000000000E+00 0. -1.
          1   -1    0    0  501    0 -0.00000000000E+00 -0.00000000000E+00 -0.16053652842E+02  0.16053652842E+02  0.00000000000E+00 0. -1.
         25    2    1    2    0    0 -0.19569444426E+01  0.54553237546E+01  0.31679320996E+03  0.34061206973E+03  0.12500021592E+03 0.  0.
          2    1    1    2  501    0 -0.25951131075E+02 -0.32190592523E+02  0.13473791742E+03  0.14093970995E+03  0.00000000000E+00 0. -1.
          1    1    1    2  502    0  0.27908075518E+02  0.26735268769E+02  0.35685877879E+03  0.35894543217E+03  0.00000000000E+00 0. -1.
         22    1    3    3    0    0  0.24024231485E+02 -0.51044933874E+02  0.97229078961E+02  0.11241104380E+03  0.00000000000E+00 0. -1.
         22    1    3    3    0    0 -0.25981175927E+02  0.56500257628E+02  0.21956413100E+03  0.22820102593E+03  0.00000000000E+00 0. -1.
</event>
<event>
 7    1  0.5854318E-006  0.6185387E+02  0.7818608E-02  0.1400520E+00
          2   -1    0    0  502    0  0.00000000000E+00  0.00000000000E+00  0.74490545628E+02  0.74490545628E+02  0.00000000000E+00 0. -1.
          1   -1    0    0  501    0 -0.00000000000E+00 -0.00000000000E+00 -0.69506016575E+03  0.69506016575E+03  0.00000000000E+00 0. -1.
         25    2    1    2    0    0 -0.25113619276E+02 -0.89099349126E+01 -0.11877510133E+03  0.17447773073E+03  0.12499949205E+03 0.  0.
          2    1    1    2  501    0  0.26977377870E+02 -0.55660776682E+02 -0.52333575124E+03  0.52697837670E+03  0.00000000000E+00 0. -1.
          1    1    1    2  502    0 -0.18637585942E+01  0.64570711594E+02  0.21541232449E+02  0.68094603952E+02  0.00000000000E+00 0. -1.
         22    1    3    3    0    0 -0.11568541125E+02 -0.19816731564E+02 -0.14290424544E+03  0.14473478282E+03  0.00000000000E+00 0.  1.
         22    1    3    3    0    0 -0.13545078151E+02  0.10906796652E+02  0.24129144106E+02  0.29742947914E+02  0.00000000000E+00 0.  1.
</event>
<event>
 7    1  0.5854318E-006  0.6452171E+02  0.7818608E-02  0.1430723E+00
          2   -1    0    0  502    0  0.00000000000E+00  0.00000000000E+00  0.12395690271E+04  0.12395690271E+04  0.00000000000E+00 0. -1.
          1   -1    0    0  501    0 -0.00000000000E+00 -0.00000000000E+00 -0.99330170351E+03  0.99330170351E+03  0.00000000000E+00 0. -1.
         25    2    1    2    0    0  0.65155845709E+02 -0.61933267488E+02  0.27243613967E+02  0.15638348565E+03  0.12503026126E+03 0.  0.
          2    1    1    2  501    0 -0.36864823978E+01  0.43075264348E+02 -0.92732728359E+03  0.92833450837E+03  0.00000000000E+00 0. -1.
          1    1    1    2  502    0 -0.61469363311E+02  0.18858003140E+02  0.11463509932E+04  0.11481527366E+04  0.00000000000E+00 0. -1.
         22    1    3    3    0    0 -0.88259576032E+00  0.18220993801E+02 -0.31988848383E+02  0.36824855889E+02  0.00000000000E+00 0.  1.
         22    1    3    3    0    0  0.66038441469E+02 -0.80154261289E+02  0.59232462351E+02  0.11955862976E+03  0.00000000000E+00 0.  1.
</event>
<event>
 7    1  0.5854318E-006  0.6876402E+02  0.7818608E-02  0.1486471E+00
          2   -1    0    0  502    0  0.00000000000E+00  0.00000000000E+00  0.78560506759E+03  0.78560506759E+03  0.00000000000E+00 0. -1.
          1   -1    0    0  501    0 -0.00000000000E+00 -0.00000000000E+00 -0.58285608549E+03  0.58285608549E+03  0.00000000000E+00 0. -1.
         25    2    1    2    0    0  0.30072527371E+02 -0.35091488950E+02 -0.20107130935E+03  0.24123025736E+03  0.12500638432E+03 0.  0.
          2    1    1    2  501    0 -0.51351079008E+02  0.51763267440E+02 -0.35778856074E+03  0.36514246996E+03  0.00000000000E+00 0. -1.
          1    1    1    2  502    0  0.21278551637E+02 -0.16671778490E+02  0.76160885219E+03  0.76208842577E+03  0.00000000000E+00 0. -1.
         22    1    3    3    0    0  0.58111680004E+02  0.25313210573E+02 -0.71528550527E+02  0.95572273819E+02  0.00000000000E+00 0. -1.
         22    1    3    3    0    0 -0.28039152633E+02 -0.60404699523E+02 -0.12954275882E+03  0.14565798354E+03  0.00000000000E+00 0. -1.
</event>
<event>
 7    1  0.5854318E-006  0.6324313E+02  0.7818608E-02  0.1450679E+00
          2   -1    0    0  502    0  0.00000000000E+00  0.00000000000E+00  0.81776820440E+03  0.81776820440E+03  0.00000000000E+00 0. -1.
          1   -1    0    0  501    0 -0.00000000000E+00 -0.00000000000E+00 -0.59004750987E+02  0.59004750987E+02  0.00000000000E+00 0. -1.
         25    2    1    2    0    0  0.25149706280E+02  0.31613041593E+02  0.13476118346E+03  0.18819594012E+03  0.12500097274E+03 0.  0.
          2    1    1    2  501    0 -0.18682122309E+02  0.33092110026E+02 -0.18867005620E+02  0.42427271194E+02  0.00000000000E+00 0. -1.
          1    1    1    2  502    0 -0.64675839709E+01 -0.64705151618E+02  0.64286927558E+03  0.64614974407E+03  0.00000000000E+00 0. -1.
         22    1    3    3    0    0 -0.44753319507E+02  0.39712267896E+02  0.49568559299E+02  0.77697914383E+02  0.00000000000E+00 0.  1.
         22    1    3    3    0    0  0.69903025787E+02 -0.80992263033E+01  0.85192624160E+02  0.11049802574E+03  0.00000000000E+00 0.  1.
</event>
<event>
 7    1  0.5854318E-006  0.6511154E+02  0.7818608E-02  0.1387411E+00
          2   -1    0    0  502    0  0.00000000000E+00  0.00000000000E+00  0.15292750943E+04  0.15292750943E+04  0.00000000000E+00 0. -1.
          1   -1    0    0  501    0 -0.00000000000E+00 -0.00000000000E+00 -0.19967052736E+03  0.19967052736E+03  0.00000000000E+00 0. -1.
         25    2    1    2    0    0 -0.20451630624E+02 -0.27271339958E+02  0.47176505846E+03  0.48923282822E+03  0.12499797858E+03 0.  0.
          2    1    1    2  501    0  0.59816332140E+02 -0.25720003143E+02 -0.18431086721E+03  0.19547380368E+03  0.00000000000E+00 0. -1.
          1    1    1    2  502    0 -0.39364701516E+02  0.52991343100E+02  0.10421503757E+04  0.10442389898E+04  0.00000000000E+00 0. -1.
         22    1    3    3    0    0  0.15502246953E+02  0.44139038137E+02  0.22596524636E+03  0.23075716004E+03  0.00000000000E+00 0.  1.
         22    1    3    3    0    0 -0.35953877577E+02 -0.71410378095E+02  0.24579981210E+03  0.25847566818E+03  0.00000000000E+00 0.  1.
</event>
<event>
 7    1  0.5854318E-006  0.1030323E+03  0.7818608E-02  0.1394212E+00
          2   -1    0    0  502    0  0.00000000000E+00  0.00000000000E+00  0.39527444535E+02  0.39527444535E+02  0.00000000000E+00 0. -1.
          1   -1    0    0  501    0 -0.00000000000E+00 -0.00000000000E+00 -0.15192709068E+04  0.15192709068E+04  0.00000000000E+00 0. -1.
         25    2    1    2    0    0  0.50690030781E+02  0.10945688428E+03 -0.72227533317E+03  0.74287103782E+03  0.12500173272E+03 0.  0.
          2    1    1    2  501    0 -0.16908892079E+02 -0.97122874909E+02 -0.77116801877E+03  0.77744380931E+03  0.00000000000E+00 0. -1.
          1    1    1    2  502    0 -0.33781138702E+02 -0.12334009369E+02  0.13699889673E+02  0.38483504209E+02  0.00000000000E+00 0. -1.
         22    1    3    3    0    0  0.77359364777E+02  0.73134733100E+02 -0.30253587186E+03  0.32071968176E+03  0.00000000000E+00 0. -1.
         22    1    3    3    0    0 -0.26669333995E+02  0.36322151179E+02 -0.41973946131E+03  0.42215135606E+03  0.00000000000E+00 0. -1.
</event>
<event>
 7    1  0.5854318E-006  0.6525969E+02  0.7818608E-02  0.1472340E+00
          2   -1    0    0  502    0  0.00000000000E+00  0.00000000000E+00  0.24610364628E+03  0.24610364628E+03  0.00000000000E+00 0. -1.
          1   -1    0    0  501    0 -0.00000000000E+00 -0.00000000000E+00 -0.80731362197E+03  0.80731362197E+03  0.00000000000E+00 0. -1.
         25    2    1    2    0    0 -0.55473347249E+02  0.22489005643E+02 -0.14764146848E+03  0.20249733933E+03  0.12499648632E+03 0.  0.
          2    1    1    2  501    0  0.65625576464E+02  0.73045619494E+01 -0.62937539481E+03  0.63282972473E+03  0.00000000000E+00 0. -1.
          1    1    1    2  502    0 -0.10152229215E+02 -0.29793567593E+02  0.21580688760E+03  0.21809020419E+03  0.00000000000E+00 0. -1.
         22    1    3    3    0    0 -0.76003631291E+02  0.58201664625E+01 -0.15693415106E+03  0.17446705728E+03  0.00000000000E+00 0.  1.
         22    1    3    3    0    0  0.20530284043E+02  0.16668839181E+02  0.92926825803E+01  0.28030282054E+02  0.00000000000E+00 0.  1.
</event>
<event>
 7    1  0.5854318E-006  0.1176814E+03  0.7818608E-02  0.1340492E+00
          2   -1    0    0  502    0  0.00000000000E+00  0.00000000000E+00  0.77679505467E+03  0.77679505467E+03  0.00000000000E+00 0. -1.
          1   -1    0    0  501    0 -0.00000000000E+00 -0.00000000000E+00 -0.14588956004E+03  0.14588956004E+03  0.00000000000E+00 0. -1.
         25    2    1    2    0    0 -0.89492339937E+02  0.19304192019E+02  0.34695393941E+03  0.37997880470E+03  0.12500130085E+03 0.  0.
          2    1    1    2  501    0  0.11844344892E+03  0.20492760896E+02 -0.99541243748E+02  0.15606813592E+03  0.00000000000E+00 0. -1.
          1    1    1    2  502    0 -0.28951108982E+02 -0.39796952916E+02  0.38349279896E+03  0.38663767409E+03  0.00000000000E+00 0. -1.
         22    1    3    3    0    0 -0.80924657783E+02  0.11133205922E+01  0.85414858281E+02  0.11766791294E+03  0.00000000000E+00 0. -1.
         22    1    3    3    0    0 -0.85676821541E+01  0.18190871427E+02  0.26153908113E+03  0.26231089176E+03  0.00000000000E+00 0. -1.
</event>
<event>
 7    1  0.5854318E-006  0.1298890E+03  0.7818608E-02  0.1265361E+00
          2   -1    0    0  502    0  0.00000000000E+00  0.00000000000E+00  0.31362887162E+03  0.31362887162E+03  0.00000000000E+00 0. -1.
          1   -1    0    0  501    0 -0.00000000000E+00 -0.00000000000E+00 -0.69874276563E+03  0.69874276563E+03  0.00000000000E+00 0. -1.
         25    2    1    2    0    0  0.94536058930E+02  0.56463902250E+02 -0.24931037903E+02  0.16844007159E+03  0.12500104948E+03 0.  0.
          2    1    1    2  501    0 -0.13253481481E+03  0.23896727057E+02 -0.58598564260E+03  0.60126176000E+03  0.00000000000E+00 0. -1.
          1    1    1    2  502    0  0.37998755885E+02 -0.80360629307E+02  0.22580278649E+03  0.24266980566E+03  0.00000000000E+00 0. -1.
         22    1    3    3    0    0  0.68027825066E+02  0.76049325471E+02  0.28249925178E+02  0.10587418552E+03  0.00000000000E+00 0.  1.
         22    1    3    3    0    0  0.26508233865E+02 -0.19585423221E+02 -0.53180963081E+02  0.62565886069E+02  0.00000000000E+00 0.  1.
</event>
<event>
 7    1  0.5854318E-006  0.1366158E+03  0.7818608E-02  0.1337022E+00
          2   -1    0    0  502    0  0.00000000000E+00  0.00000000000E+00  0.88260084272E+03  0.88260084272E+03  0.00000000000E+00 0. -1.
          1   -1    0    0  501    0 -0.00000000000E+00 -0.00000000000E+00 -0.16403683398E+03  0.16403683398E+03  0.00000000000E+00 0. -1.
         25    2    1    2    0    0  0.17045413739E+03  0.27733195218E+01  0.20451883346E+03  0.29413534484E+03  0.12500137434E+03 0.  0.
          2    1    1    2  501    0 -0.39746343601E+02 -0.18136780736E+02 -0.10809724801E+03  0.11659215099E+03  0.00000000000E+00 0. -1.
          1    1    1    2  502    0 -0.13070779379E+03  0.15363461214E+02  0.62214242328E+03  0.63591018088E+03  0.00000000000E+00 0. -1.
         22    1    3    3    0    0  0.12254318856E+03 -0.32877619114E+02  0.19646873707E+03  0.23387547017E+03  0.00000000000E+00 0. -1.
         22    1    3    3    0    0  0.47910948830E+02  0.35650938636E+02  0.80500963960E+01  0.60259874671E+02  0.00000000000E+00 0. -1.
</event>
<event>
 7    1  0.5854318E-006  0.1317174E+03  0.7818608E-02  0.1284762E+00
          2   -1    0    0  502    0  0.00000000000E+00  0.00000000000E+00  0.34860666168E+03  0.34860666168E+03  0.00000000000E+00 0. -1.
          1   -1    0    0  501    0 -0.00000000000E+00 -0.00000000000E+00 -0.10305634239E+04  0.10305634239E+04  0.00000000000E+00 0. -1.
         25    2    1    2    0    0 -0.41233835667E+02  0.97024896131E+02  0.17703169463E+03  0.24099412070E+03  0.12499554247E+03 0.  0.
          2    1    1    2  501    0 -0.23349830964E+02 -0.13056531932E+03 -0.98433734922E+03  0.99323337352E+03  0.00000000000E+00 0. -1.
          1    1    1    2  502    0  0.64583666630E+02  0.33540423184E+02  0.12534889235E+03  0.14494259138E+03  0.00000000000E+00 0. -1.
         22    1    3    3    0    0 -0.13305697486E+02  0.58551721985E+02  0.18344545585E+03  0.19302222930E+03  0.00000000000E+00 0.  1.
         22    1    3    3    0    0 -0.27928138181E+02  0.38473174146E+02 -0.64137612230E+01  0.47971891396E+02  0.00000000000E+00 0.  1.
</event>
<event>
 7    1  0.5854318E-006  0.1300411E+03  0.7818608E-02  0.1376115E+00
          2   -1    0    0  502    0  0.00000000000E+00  0.00000000000E+00  0.13372836125E+03  0.13372836125E+03  0.00000000000E+00 0. -1.
          1   -1    0    0  501    0 -0.00000000000E+00 -0.00000000000E+00 -0.18432756350E+04  0.18432756350E+04  0.00000000000E+00 0. -1.
         25    2    1    2    0    0 -0.81521862210E+02  0.88802103014E+02  0.20496003278E+02  0.17486273082E+03  0.12500104385E+03 0.  0.
          2    1    1    2  501    0 -0.68208225619E+01  0.32274610020E+02 -0.16094014170E+04  0.16097394495E+04  0.00000000000E+00 0. -1.
          1    1    1    2  502    0  0.88342684771E+02 -0.12107671303E+03 -0.12064185998E+03  0.19240181592E+03  0.00000000000E+00 0. -1.
         22    1    3    3    0    0 -0.25901666828E+01 -0.28034779633E+02 -0.11274074444E+02  0.30327587888E+02  0.00000000000E+00 0. -1.
         22    1    3    3    0    0 -0.78931695527E+02  0.11683688265E+03  0.31770077722E+02  0.14453514294E+03  0.00000000000E+00 0. -1.
</event>
<event>
 7    1  0.6493053E-006  0.9537815E+02  0.7818608E-02  0.1353736E+00
          2   -1    0    0  502    0  0.00000000000E+00  0.00000000000E+00  0.23126847113E+04  0.23126847113E+04  0.00000000000E+00 0. -1.
          1   -1    0    0  501    0 -0.00000000000E+00 -0.00000000000E+00 -0.11563685771E+04  0.11563685771E+04  0.00000000000E+00 0. -1.
         25    2    1    2    0    0 -0.57775244634E+02 -0.23090468575E+02 -0.43904569863E+02  0.14636798407E+03  0.12499930750E+03 0.  0.
          2    1    1    2  501    0  0.95968705041E+02 -0.15375962564E+02 -0.10586811214E+04  0.10631331664E+04  0.00000000000E+00 0. -1.
          1    1    1    2  502    0 -0.38193460406E+02  0.38466431138E+02  0.22589018255E+04  0.22595521379E+04  0.00000000000E+00 0. -1.
         22    1    3    3    0    0 -0.91107473696E+01 -0.32527251746E+02 -0.78807709700E+02  0.85741955494E+02  0.00000000000E+00 0.  1.
         22    1    3    3    0    0 -0.48664497265E+02  0.94367831712E+01  0.34903139837E+02  0.60626028578E+02  0.00000000000E+00 0.  1.
</event>
<event>
 7    1  0.5854318E-006  0.4463219E+02  0.7818608E-02  0.1574702E+00
          2   -1    0    0  502    0  0.00000000000E+00  0.00000000000E+00  0.85062986561E+03  0.85062986561E+03  0.00000000000E+00 0. -1.
          1   -1    0    0  501    0 -0.00000000000E+00 -0.00000000000E+00 -0.16235552796E+04  0.16235552796E+04  0.00000000000E+00 0. -1.
         25    2    1    2    0    0 -0.18361113684E+02 -0.17758568457E+02 -0.63071282690E+03  0.64348700481E+03  0.12499743234E+03 0.  0.
          2    1    1    2  501    0 -0.23221731859E+02  0.14907289107E+01 -0.98572755549E+03  0.98600217279E+03  0.00000000000E+00 0. -1.
          1    1    1    2  502    0  0.41582845543E+02  0.16267839546E+02  0.84351496844E+03  0.84469596757E+03  0.00000000000E+00 0. -1.
         22    1    3    3    0    0  0.22428567092E+00 -0.69898510509E+02 -0.41144609985E+03  0.41734128139E+03  0.00000000000E+00 0.  1.
         22    1    3    3    0    0 -0.18585399355E+02  0.52139942052E+02 -0.21926672705E+03  0.22614572341E+03  0.00000000000E+00 0.  1.
</event>
<event>
 7    1  0.5854318E-006  0.9900528E+02  0.7818608E-02  0.1313290E+00
          2   -1    0    0  502    0  0.00000000000E+00  0.00000000000E+00  0.27622582936E+04  0.27622582936E+04  0.00000000000E+00 0. -1.
          1   -1    0    0  501    0 -0.00000000000E+00 -0.00000000000E+00 -0.45718351772E+03  0.45718351772E+03  0.00000000000E+00 0. -1.
         25    2    1    2    0    0 -0.72309300347E+02 -0.15546679300E+03 -0.75876534736E+01  0.21232601855E+03  0.12500482800E+03 0.  0.
          2    1    1    2  501    0  0.40734980061E+02  0.62256564442E+02 -0.34231922471E+03  0.35031081916E+03  0.00000000000E+00 0. -1.
          1    1    1    2  502    0  0.31574320286E+02  0.93210228558E+02  0.26549816541E+04  0.26568049736E+04  0.00000000000E+00 0. -1.
         22    1    3    3    0    0  0.25777146111E+02 -0.91536722782E+02 -0.22664278557E+01  0.95123969506E+02  0.00000000000E+00 0. -1.
         22    1    3    3    0    0 -0.98086446458E+02 -0.63930070218E+02 -0.53212256179E+01  0.11720204904E+03  0.00000000000E+00 0. -1.
</event>
<event>
 7    1  0.5854318E-006  0.1623512E+03  0.7818608E-02  0.1311966E+00
          2   -1    0    0  502    0  0.00000000000E+00  0.00000000000E+00  0.51873443860E+03  0.51873443860E+03  0.00000000000E+00 0. -1.
          1   -1    0    0  501    0 -0.00000000000E+00 -0.00000000000E+00 -0.37215981434E+03  0.37215981434E+03  0.00000000000E+00 0. -1.
         25    2    1    2    0    0  0.13237164259E+03  0.13592990990E+03  0.19441969467E+03  0.29903586035E+03  0.12499694369E+03 0.  0.
          2    1    1    2  501    0 -0.13275543949E+03 -0.90015500033E+02 -0.29751738038E+03  0.33799909554E+03  0.00000000000E+00 0. -1.
          1    1    1    2  502    0  0.38379690345E+00 -0.45914409871E+02  0.24967230997E+03  0.25385929705E+03  0.00000000000E+00 0. -1.
         22    1    3    3    0    0  0.14793060382E+03  0.12099642473E+03  0.13008632942E+03  0.23118402074E+03  0.00000000000E+00 0.  1.
         22    1    3    3    0    0 -0.15558961233E+02  0.14933485176E+02  0.64333365246E+02  0.67851839607E+02  0.00000000000E+00 0.  1.
</event>
<event>
 7    1  0.5854318E-006  0.1004966E+03  0.7818608E-02  0.1286703E+00
          2   -1    0    0  502    0  0.00000000000E+00  0.00000000000E+00  0.14420982317E+04  0.14420982317E+04  0.00000000000E+00 0. -1.
          1   -1    0    0  501    0 -0.00000000000E+00 -0.00000000000E+00 -0.23978633500E+03  0.23978633500E+03  0.00000000000E+00 0. -1.
         25    2    1    2    0    0  0.19999315605E+02  0.39424368438E+02  0.72118442270E+02  0.15093584156E+03  0.12500522029E+03 0.  0.
          2    1    1    2  501    0  0.84729854715E+02 -0.39895690649E+02 -0.18724198326E+03  0.20935705077E+03  0.00000000000E+00 0. -1.
          1    1    1    2  502    0 -0.10472917032E+03  0.47132221029E+00  0.13174354377E+04  0.13215916744E+04  0.00000000000E+00 0. -1.
         22    1    3    3    0    0 -0.34443914494E+02  0.20983880644E+02  0.83140699753E+02  0.92407155827E+02  0.00000000000E+00 0.  1.
         22    1    3    3    0    0  0.54443230098E+02  0.18440487794E+02 -0.11022257483E+02  0.58528685733E+02  0.00000000000E+00 0.  1.
</event>
<event>
 7    1  0.5854318E-006  0.8341428E+02  0.7818608E-02  0.1441403E+00
          2   -1    0    0  502    0  0.00000000000E+00  0.00000000000E+00  0.21937652837E+04  0.21937652837E+04  0.00000000000E+00 0. -1.
          1   -1    0    0  501    0 -0.00000000000E+00 -0.00000000000E+00 -0.27350584194E+03  0.27350584194E+03  0.00000000000E+00 0. -1.
         25    2    1    2    0    0  0.54880328835E+02  0.63355675000E+01  0.17297934401E+04  0.17351849311E+04  0.12501763830E+03 0.  0.
          2    1    1    2  501    0 -0.79861792071E+02 -0.24456458930E+02 -0.26383414159E+03  0.27673900789E+03  0.00000000000E+00 0. -1.
          1    1    1    2  502    0  0.24981463236E+02  0.18120891430E+02  0.45430014329E+03  0.45534718666E+03  0.00000000000E+00 0. -1.
         22    1    3    3    0    0  0.58083313655E+02 -0.13855183202E+01  0.31180172229E+03  0.31716857506E+03  0.00000000000E+00 0. -1.
         22    1    3    3    0    0 -0.32029848197E+01  0.77210858203E+01  0.14179917178E+04  0.14180163561E+04  0.00000000000E+00 0. -1.
</event>
<event>
 7    1  0.5854318E-006  0.6687635E+02  0.7818608E-02  0.1453982E+00
          2   -1    0    0  502    0  0.00000000000E+00  0.00000000000E+00  0.84991985874E+03  0.84991985874E+03  0.00000000000E+00 0. -1.
          1   -1    0    0  501    0 -0.00000000000E+00 -0.00000000000E+00 -0.45735013132E+03  0.45735013132E+03  0.00000000000E+00 0. -1.
         25    2    1    2    0    0 -0.12120009182E+02 -0.30980665869E+02  0.32422215688E+02  0.13335264873E+03  0.12500013029E+03 0.  0.
          2    1    1    2  501    0  0.18511941947E+02  0.65469163251E+02 -0.40363549600E+03  0.40932935023E+03  0.00000000000E+00 0. -1.
          1    1    1    2  502    0 -0.63919327642E+01 -0.34488497382E+02  0.76378300772E+03  0.76458799111E+03  0.00000000000E+00 0. -1.
         22    1    3    3    0    0  0.27015547109E+02  0.24153719965E+02 -0.25509091620E+02  0.44316540129E+02  0.00000000000E+00 0.  1.
         22    1    3    3    0    0 -0.39135556291E+02 -0.55134385834E+02  0.57931307308E+02  0.89036108596E+02  0.00000000000E+00 0.  1.
</event>
<event>
 7    1  0.5854318E-006  0.1151506E+03  0.7818608E-02  0.1334986E+00
          2   -1    0    0  502    0  0.00000000000E+00  0.00000000000E+00  0.10387624087E+04  0.10387624087E+04  0.00000000000E+00 0. -1.
          1   -1    0    0  501    0 -0.00000000000E+00 -0.00000000000E+00 -0.46226998290E+03  0.46226998290E+03  0.00000000000E+00 0. -1.
         25    2    1    2    0    0 -0.17949947884E+02 -0.15528242735E+03  0.68138939879E+03  0.71017666260E+03  0.12499818578E+03 0.  0.
          2    1    1    2  501    0 -0.14676860429E+02  0.11381942262E+03 -0.43841693861E+03  0.45318835296E+03  0.00000000000E+00 0. -1.
          1    1    1    2  502    0  0.32626808313E+02  0.41463004733E+02  0.33351996558E+03  0.33766737601E+03  0.00000000000E+00 0. -1.
         22    1    3    3    0    0  0.12084325366E+02 -0.21218522145E+02  0.12707703089E+02  0.27527119707E+02  0.00000000000E+00 0.  1.
         22    1    3    3    0    0 -0.30034273250E+02 -0.13406390521E+03  0.66868169570E+03  0.68264954289E+03  0.00000000000E+00 0.  1.
</event>
<event>
 7    1  0.5854318E-006  0.1423679E+03  0.7818608E-02  0.1241221E+00
          2   -1    0    0  502    0  0.00000000000E+00  0.00000000000E+00  0.13042409141E+04  0.13042409141E+04  0.00000000000E+00 0. -1.
          1   -1    0    0  501    0 -0.00000000000E+00 -0.00000000000E+00 -0.13960334568E+03  0.13960334568E+03  0.00000000000E+00 0. -1.
         25    2    1    2    0    0 -0.16567010544E+02  0.98447370472E+02 -0.53541500569E+02  0.16872268630E+03  0.12503720245E+03 0.  0.
          2    1    1    2  501    0 -0.12200894544E+03 -0.13108657594E+03  0.32866741129E+03  0.37428884622E+03  0.00000000000E+00 0. -1.
          1    1    1    2  502    0  0.13857595599E+03  0.32639205470E+02  0.88951165771E+03  0.90083272727E+03  0.00000000000E+00 0. -1.
         22    1    3    3    0    0 -0.27481085297E+02 -0.15538884015E+02  0.15334037716E+02  0.35097003835E+02  0.00000000000E+00 0.  1.
         22    1    3    3    0    0  0.10914074753E+02  0.11398625449E+03 -0.68875538286E+02  0.13362568246E+03  0.00000000000E+00 0.  1.
</event>
<event>
 7    1  0.5854318E-006  0.7343114E+02  0.7818608E-02  0.1380571E+00
          2   -1    0    0  502    0  0.00000000000E+00  0.00000000000E+00  0.67863608578E+02  0.67863608578E+02  0.00000000000E+00 0. -1.
          1   -1    0    0  501    0 -0.00000000000E+00 -0.00000000000E+00 -0.18878192219E+04  0.18878192219E+04  0.00000000000E+00 0. -1.
         25    2    1    2    0    0  0.13489156042E+02 -0.12482223757E+02 -0.66645644798E+02  0.14284489062E+03  0.12500103026E+03 0.  0.
          2    1    1    2  501    0 -0.49226273438E+02  0.56023048545E+02 -0.17549025958E+04  0.17564865296E+04  0.00000000000E+00 0. -1.
          1    1    1    2  502    0  0.35737117397E+02 -0.43540824788E+02  0.15926272028E+01  0.56351410315E+02  0.00000000000E+00 0. -1.
         22    1    3    3    0    0 -0.18106818660E+02 -0.52057532913E+02  0.47410872395E+01  0.55320172841E+02  0.00000000000E+00 0.  1.
         22    1    3    3    0    0  0.31595974702E+02  0.39575309156E+02 -0.71386732038E+02  0.87524717784E+02  0.00000000000E+00 0.  1.
</event>
<event>
 7    1  0.5854318E-006  0.6136046E+02  0.7818608E-02  0.1438894E+00
          2   -1    0    0  502    0  0.00000000000E+00  0.00000000000E+00  0.60448890357E+03  0.60448890357E+03  0.00000000000E+00 0. -1.
          1   -1    0    0  501    0 -0.00000000000E+00 -0.00000000000E+00 -0.30990541393E+03  0.30990541393E+03  0.00000000000E+00 0. -1.
         25    2    1    2    0    0 -0.35419605010E+02  0.50292526126E+02  0.86953389535E+02  0.16422402686E+03  0.12499900976E+03 0.  0.
          2    1    1    2  501    0 -0.24723032357E+02 -0.34873010141E+02 -0.26755386484E+03  0.27094727487E+03  0.00000000000E+00 0. -1.
          1    1    1    2  502    0  0.60142637367E+02 -0.15419515985E+02  0.47518396495E+03  0.47922301577E+03  0.00000000000E+00 0. -1.
         22    1    3    3    0    0 -0.33612073692E+02  0.91702234835E+02  0.56996489554E+02  0.11308258572E+03  0.00000000000E+00 0.  1.
         22    1    3    3    0    0 -0.18075313175E+01 -0.41409708710E+02  0.29956899981E+02  0.51141441135E+02  0.00000000000E+00 0.  1.
</event>
<event>
 7    1  0.5854318E-006  0.9671261E+02  0.7818608E-02  0.1417494E+00
          2   -1    0    0  502    0  0.00000000000E+00  0.00000000000E+00  0.25979835321E+03  0.25979835321E+03  0.00000000000E+00 0. -1.
          1   -1    0    0  501    0 -0.00000000000E+00 -0.00000000000E+00 -0.46419921546E+03  0.46419921546E+03  0.00000000000E+00 0. -1.
         25    2    1    2    0    0 -0.10063099088E+03 -0.31860200750E+02 -0.55539174168E+02  0.17277418254E+03  0.12499859826E+03 0.  0.
          2    1    1    2  501    0  0.96199793852E+02  0.25719607011E+00 -0.34209953844E+03  0.35536820438E+03  0.00000000000E+00 0. -1.
          1    1    1    2  502    0  0.44311970285E+01  0.31603004680E+02  0.19323785035E+03  0.19585518175E+03  0.00000000000E+00 0. -1.
         22    1    3    3    0    0 -0.51218203072E+02  0.47377198203E+02 -0.17424168859E+02  0.71913176093E+02  0.00000000000E+00 0.  1.
         22    1    3    3    0    0 -0.49412787809E+02 -0.79237398952E+02 -0.38115005309E+02  0.10086100645E+03  0.00000000000E+00 0.  1.
</event>
<event>
 7    1  0.5854318E-006  0.1973922E+03  0.7818608E-02  0.1189281E+00
          2   -1    0    0  502    0  0.00000000000E+00  0.00000000000E+00  0.32807426554E+04  0.32807426554E+04  0.00000000000E+00 0. -1.
          1   -1    0    0  501    0 -0.00000000000E+00 -0.00000000000E+00 -0.94731278962E+03  0.94731278962E+03  0.00000000000E+00 0. -1.
         25    2    1    2    0    0 -0.56278858449E+02 -0.52635369866E+02  0.28089230080E+03  0.31696032706E+03  0.12500228883E+03 0.  0.
          2    1    1    2  501    0  0.17760969952E+03  0.96022844827E+02 -0.91689804318E+03  0.93886506681E+03  0.00000000000E+00 0. -1.
          1    1    1    2  502    0 -0.12133084107E+03 -0.43387474960E+02  0.29694356082E+04  0.29722300511E+04  0.00000000000E+00 0. -1.
         22    1    3    3    0    0 -0.56394098007E+02 -0.91749666445E+02  0.20907582342E+03  0.23518289802E+03  0.00000000000E+00 0. -1.
         22    1    3    3    0    0  0.11523955849E+00  0.39114296578E+02  0.71816477380E+02  0.81777429039E+02  0.00000000000E+00 0. -1.
</event>
<event>
 7    1  0.5854318E-006  0.1529005E+03  0.7818608E-02  0.1356101E+00
          2   -1    0    0  502    0  0.00000000000E+00  0.00000000000E+00  0.38201385378E+03  0.38201385378E+03  0.00000000000E+00 0. -1.
          1   -1    0    0  501    0 -0.00000000000E+00 -0.00000000000E+00 -0.43701726353E+03  0.43701726353E+03  0.00000000000E+00 0. -1.
         25    2    1    2    0    0 -0.13005864230E+03  0.55285179748E+02 -0.26972312388E+03  0.32916321637E+03  0.12500463160E+03 0.  0.
          2    1    1    2  501    0  0.41404634197E+01  0.32883946345E+02 -0.11842167691E+03  0.12297231772E+03  0.00000000000E+00 0. -1.
          1    1    1    2  502    0  0.12591817888E+03 -0.88169126093E+02  0.33314139103E+03  0.36689558322E+03  0.00000000000E+00 0. -1.
         22    1    3    3    0    0 -0.70073694300E+02  0.85613839186E+02 -0.21758240227E+03  0.24409455928E+03  0.00000000000E+00 0.  1.
         22    1    3    3    0    0 -0.59984947996E+02 -0.30328659438E+02 -0.52140721608E+02  0.85068657091E+02  0.00000000000E+00 0.  1.
</event>
<event>
 7    1  0.5854318E-006  0.1632528E+03  0.7818608E-02  0.1319684E+00
          2   -1    0    0  502    0  0.00000000000E+00  0.00000000000E+00  0.12202659286E+04  0.12202659286E+04  0.00000000000E+00 0. -1.
          1   -1    0    0  501    0 -0.00000000000E+00 -0.00000000000E+00 -0.78414435091E+03  0.78414435091E+03  0.00000000000E+00 0. -1.
         25    2    1    2    0    0  0.14696004669E+03 -0.52506054091E+01 -0.54366924547E+02  0.20047581747E+03  0.12493985243E+03 0.  0.
          2    1    1    2  501    0 -0.16254233861E+03 -0.34398443001E+02 -0.64580948243E+03  0.66683817551E+03  0.00000000000E+00 0. -1.
          1    1    1    2  502    0  0.15582291918E+02  0.39649048410E+02  0.11362979847E+04  0.11370962865E+04  0.00000000000E+00 0. -1.
         22    1    3    3    0    0  0.66970012440E+02  0.30615057894E+02 -0.80404288130E+02  0.10902804174E+03  0.00000000000E+00 0.  1.
         22    1    3    3    0    0  0.79990034254E+02 -0.35865663303E+02  0.26037363583E+02  0.91447775732E+02  0.00000000000E+00 0.  1.
</event>
<event>
 7    1  0.5854318E-006  0.1456056E+03  0.7818608E-02  0.1376415E+00
          2   -1    0    0  502    0  0.00000000000E+00  0.00000000000E+00  0.16883222604E+04  0.16883222604E+04  0.00000000000E+00 0. -1.
          1   -1    0    0  501    0 -0.00000000000E+00 -0.00000000000E+00 -0.57519542554E+02  0.57519542554E+02  0.00000000000E+00 0. -1.
         25    2    1    2    0    0 -0.11710143627E+03  0.36262059762E+02  0.70222633010E+03  0.72372104936E+03  0.12499062061E+03 0.  0.
          2    1    1    2  501    0  0.14614316050E+03 -0.31756930933E+02  0.73678520002E+02  0.16671787647E+03  0.00000000000E+00 0. -1.
          1    1    1    2  502    0 -0.29041724230E+02 -0.45051288281E+01  0.85489786771E+03  0.85540287710E+03  0.00000000000E+00 0. -1.
         22    1    3    3    0    0  0.10810747096E+02  0.37764351162E+02  0.88825019444E+02  0.97123130874E+02  0.00000000000E+00 0. -1.
         22    1    3    3    0    0 -0.12791218337E+03 -0.15022914005E+01  0.61340131066E+03  0.62659791848E+03  0.00000000000E+00 0. -1.
</event>
<event>
 7    1  0.5854318E-006  0.1264114E+03  0.7818608E-02  0.1292959E+00
          2   -1    0    0  502    0  0.00000000000E+00  0.00000000000E+00  0.38804413267E+04  0.38804413267E+04  0.00000000000E+00 0. -1.
          1   -1    0    0  501    0 -0.00000000000E+00 -0.00000000000E+00 -0.19566010454E+03  0.19566010454E+03  0.00000000000E+00 0. -1.
         25    2    1    2    0    0 -0.31257138645E+02  0.63152624552E+02  0.66901980531E+03  0.68423990119E+03  0.12502591643E+03 0.  0.
          2    1    1    2  501    0 -0.26644317510E+01  0.70164741400E+02 -0.17996396829E+03  0.19317665495E+03  0.00000000000E+00 0. -1.
          1    1    1    2  502    0  0.33921570396E+02 -0.13331736595E+03  0.31957253851E+04  0.31986848751E+04  0.00000000000E+00 0. -1.
         22    1    3    3    0    0  0.22876929822E+02  0.70266443535E+02  0.52576769582E+03  0.53093539811E+03  0.00000000000E+00 0. -1.
         22    1    3    3    0    0 -0.54134068467E+02 -0.71138189828E+01  0.14325210949E+03  0.15330450307E+03  0.00000000000E+00 0. -1.
</event>
<event>
 7    1  0.5854318E-006  0.1277758E+03  0.7818608E-02  0.1245058E+00
          2   -1    0    0  502    0  0.00000000000E+00  0.00000000000E+00  0.37843137745E+03  0.37843137745E+03  0.00000000000E+00 0. -1.
          1   -1    0    0  501    0 -0.00000000000E+00 -0.00000000000E+00 -0.65497922785E+03  0.65497922785E+03  0.00000000000E+00 0. -1.
         25    2    1    2    0    0 -0.65512862024E+02  0.54106398479E+02  0.13400100421E+03  0.20199126103E+03  0.12499905182E+03 0.  0.
          2    1    1    2  501    0 -0.23825123478E+02  0.10789144816E+03 -0.57401200193E+03  0.58454938154E+03  0.00000000000E+00 0. -1.
          1    1    1    2  502    0  0.89337985502E+02 -0.16199784664E+03  0.16346314731E+03  0.24686996273E+03  0.00000000000E+00 0. -1.
         22    1    3    3    0    0 -0.73265979749E+02  0.44271796793E+02  0.15527310085E+03  0.17730660345E+03  0.00000000000E+00 0.  1.
         22    1    3    3    0    0  0.77531177244E+01  0.98346016867E+01 -0.21272096636E+02  0.24684657585E+02  0.00000000000E+00 0.  1.
</event>
<event>
 7    1  0.5854318E-006  0.7048002E+02  0.7818608E-02  0.1443786E+00
          2   -1    0    0  502    0  0.00000000000E+00  0.00000000000E+00  0.61347913983E+03  0.61347913983E+03  0.00000000000E+00 0. -1.
          1   -1    0    0  501    0 -0.00000000000E+00 -0.00000000000E+00 -0.61279920258E+03  0.61279920258E+03  0.00000000000E+00 0. -1.
         25    2    1    2    0    0  0.12604073992E+02 -0.89371687335E+02 -0.87830056473E+02  0.17743921836E+03  0.12499758483E+03 0.  0.
          2    1    1    2  501    0 -0.34204681664E+02  0.60718403721E+02 -0.47706432793E+03  0.48212763640E+03  0.00000000000E+00 0. -1.
          1    1    1    2  502    0  0.21600607672E+02  0.28653283615E+02  0.56557432165E+03  0.56671148764E+03  0.00000000000E+00 0. -1.
         22    1    3    3    0    0 -0.48113102270E+02 -0.96358390990E+01 -0.50711442495E+02  0.70564654077E+02  0.00000000000E+00 0. -1.
         22    1    3    3    0    0  0.60717176262E+02 -0.79735848236E+02 -0.37118613979E+02  0.10687456428E+03  0.00000000000E+00 0. -1.
</event>
<event>
 7    1  0.5854318E-006  0.1204744E+03  0.7818608E-02  0.1441226E+00
          2   -1    0    0  502    0  0.00000000000E+00  0.00000000000E+00  0.48516975948E+03  0.48516975948E+03  0.00000000000E+00 0. -1.
          1   -1    0    0  501    0 -0.00000000000E+00 -0.00000000000E+00 -0.12111277006E+04  0.12111277006E+04  0.00000000000E+00 0. -1.
         25    2    1    2    0    0 -0.12868350277E+03  0.33896470031E+02  0.10908564284E+03  0.21268110684E+03  0.12500064467E+03 0.  0.
          2    1    1    2  501    0  0.11108191902E+03 -0.46061582370E+02 -0.11558542824E+04  0.11620929327E+04  0.00000000000E+00 0. -1.
          1    1    1    2  502    0  0.17601583745E+02  0.12165112339E+02  0.32081069845E+03  0.32152342053E+03  0.00000000000E+00 0. -1.
         22    1    3    3    0    0  0.15661760370E+02 -0.22545793639E+02  0.19396222671E+02  0.33612750596E+02  0.00000000000E+00 0.  1.
         22    1    3    3    0    0 -0.14434526314E+03  0.56442263670E+02  0.89689420168E+02  0.17906835624E+03  0.00000000000E+00 0.  1.
</event>
<event>
 7    1  0.5854318E-006  0.2353190E+03  0.7818608E-02  0.1217870E+00
          2   -1    0    0  502    0  0.00000000000E+00  0.00000000000E+00  0.15632844486E+04  0.15632844486E+04  0.00000000000E+00 0. -1.
          1   -1    0    0  501    0 -0.00000000000E+00 -0.00000000000E+00 -0.48667556918E+03  0.48667556918E+03  0.00000000000E+00 0. -1.
         25    2    1    2    0    0  0.49900804431E+02 -0.17096287897E+03 -0.61229816742E+02  0.22603591285E+03  0.12499898868E+03 0.  0.
          2    1    1    2  501    0  0.70781289375E+02 -0.35944357982E+02 -0.32859917620E+03  0.33805237226E+03  0.00000000000E+00 0. -1.
          1    1    1    2  502    0 -0.12068209381E+03  0.20690723695E+03  0.14664378724E+04  0.14858717327E+04  0.00000000000E+00 0. -1.
         22    1    3    3    0    0 -0.35364265680E+02 -0.12378349372E+02 -0.84968455935E+01  0.38419411829E+02  0.00000000000E+00 0. -1.
         22    1    3    3    0    0  0.85265070111E+02 -0.15858452959E+03 -0.52732971148E+02  0.18761650102E+03  0.00000000000E+00 0. -1.
</event>
<event>
 7    1  0.5854318E-006  0.1329804E+03  0.7818608E-02  0.1280093E+00
          2   -1    0    0  502    0  0.00000000000E+00  0.00000000000E+00  0.60023888699E+03  0.60023888699E+03  0.00000000000E+00 0. -1.
          1   -1    0    0  501    0 -0.00000000000E+00 -0.00000000000E+00 -0.18022039163E+04  0.18022039163E+04  0.00000000000E+00 0. -1.
         25    2    1    2    0    0  0.13090820693E+02  0.12495773822E+03  0.19251102402E+03  0.26167065734E+03  0.12500093048E+03 0.  0.
          2    1    1    2  501    0  0.61934568533E+02 -0.11803048334E+03 -0.17612766402E+04  0.17663132478E+04  0.00000000000E+00 0. -1.
          1    1    1    2  502    0 -0.75025389226E+02 -0.69272548775E+01  0.36680058690E+03  0.37445889819E+03  0.00000000000E+00 0. -1.
         22    1    3    3    0    0  0.29918453797E+02  0.12299222690E+03  0.20478696559E+03  0.24074863038E+03  0.00000000000E+00 0.  1.
         22    1    3    3    0    0 -0.16827633104E+02  0.19655113195E+01 -0.12275941575E+02  0.20922026961E+02  0.00000000000E+00 0.  1.
</event>
<event>
 7    1  0.5854318E-006  0.1009774E+03  0.7818608E-02  0.1430263E+00
          2   -1    0    0  502    0  0.00000000000E+00  0.00000000000E+00  0.16664672271E+04  0.16664672271E+04  0.00000000000E+00 0. -1.
          1   -1    0    0  501    0 -0.00000000000E+00 -0.00000000000E+00 -0.37675002948E+04  0.37675002948E+04  0.00000000000E+00 0. -1.
         25    2    1    2    0    0  0.12297045336E+03 -0.27922900765E+02 -0.75844116581E+03  0.77894737397E+03  0.12499835454E+03 0.  0.
          2    1    1    2  501    0 -0.97534095132E+02  0.16902966116E+02 -0.29978730656E+04  0.29995068807E+04  0.00000000000E+00 0. -1.
          1    1    1    2  502    0 -0.25436358225E+02  0.11019934649E+02  0.16552811636E+04  0.16555132672E+04  0.00000000000E+00 0. -1.
         22    1    3    3    0    0  0.12388952443E+03 -0.65274601182E+02 -0.58485650435E+03  0.60138716190E+03  0.00000000000E+00 0. -1.
         22    1    3    3    0    0 -0.91907107378E+00  0.37351700417E+02 -0.17358466146E+03  0.17756021207E+03  0.00000000000E+00 0. -1.
</event>
<event>
 7    1  0.5854318E-006  0.2013923E+03  0.7818608E-02  0.1226474E+00
          2   -1    0    0  502    0  0.00000000000E+00  0.00000000000E+00  0.86099985104E+03  0.86099985104E+03  0.00000000000E+00 0. -1.
          1   -1    0    0  501    0 -0.00000000000E+00 -0.00000000000E+00 -0.79040195338E+03  0.79040195338E+03  0.00000000000E+00 0. -1.
         25    2    1    2    0    0  0.24087351891E+03  0.14897076317E+03 -0.27765115243E+03  0.41584494271E+03  0.12499805417E+03 0.  0.
          2    1    1    2  501    0 -0.72257286072E+02 -0.44336906650E+02 -0.42698894997E+03  0.43532337414E+03  0.00000000000E+00 0. -1.
          1    1    1    2  502    0 -0.16861623284E+03 -0.10463385652E+03  0.77523800005E+03  0.80023348757E+03  0.00000000000E+00 0. -1.
         22    1    3    3    0    0  0.60410241118E+02  0.81963007801E+02 -0.38530509687E+02  0.10886657915E+03  0.00000000000E+00 0.  1.
         22    1    3    3    0    0  0.18046327779E+03  0.67007755364E+02 -0.23912064274E+03  0.30697836356E+03  0.00000000000E+00 0.  1.
</event>
<event>
 7    1  0.5854318E-006  0.6742295E+02  0.7818608E-02  0.1415983E+00
          2   -1    0    0  502    0  0.00000000000E+00  0.00000000000E+00  0.11763593162E+04  0.11763593162E+04  0.00000000000E+00 0. -1.
          1   -1    0    0  501    0 -0.00000000000E+00 -0.00000000000E+00 -0.10385893491E+04  0.10385893491E+04  0.00000000000E+00 0. -1.
         25    2    1    2    0    0  0.82302938898E+02  0.62313089373E+02  0.28743795582E+00  0.16211802676E+03  0.12500190847E+03 0.  0.
          2    1    1    2  501    0 -0.45923437531E+02 -0.59950333834E+01 -0.95608685058E+03  0.95720790238E+03  0.00000000000E+00 0. -1.
          1    1    1    2  502    0 -0.36379501367E+02 -0.56318055990E+02  0.10935693797E+04  0.10956227361E+04  0.00000000000E+00 0. -1.
         22    1    3    3    0    0  0.46990001683E+01  0.81689351025E+02  0.51317023946E+01  0.81985151357E+02  0.00000000000E+00 0. -1.
         22    1    3    3    0    0  0.77603938730E+02 -0.19376261652E+02 -0.48442644388E+01  0.80132875401E+02  0.00000000000E+00 0. -1.
</event>
<event>
 7    1  0.5854318E-006  0.9397911E+02  0.7818608E-02  0.1403435E+00
          2   -1    0    0  502    0  0.00000000000E+00  0.00000000000E+00  0.50532992808E+02  0.50532992808E+02  0.00000000000E+00 0. -1.
          1   -1    0    0  501    0 -0.00000000000E+00 -0.00000000000E+00 -0.90077269531E+03  0.90077269531E+03  0.00000000000E+00 0. -1.
         25    2    1    2    0    0 -0.76203093483E+02 -0.95308390005E+02 -0.48464472401E+03  0.51516553917E+03  0.12499769428E+03 0.  0.
          2    1    1    2  501    0  0.52893955707E+02  0.67031448395E+02 -0.38522033088E+03  0.39457025857E+03  0.00000000000E+00 0. -1.
          1    1    1    2  502    0  0.23309137776E+02  0.28276941609E+02  0.19625352382E+02  0.41569890386E+02  0.00000000000E+00 0. -1.
         22    1    3    3    0    0 -0.77146762704E+02 -0.14163835902E+02 -0.34362860423E+03  0.35246681389E+03  0.00000000000E+00 0.  1.
         22    1    3    3    0    0  0.94366922182E+00 -0.81144554103E+02 -0.14101611977E+03  0.16269872528E+03  0.00000000000E+00 0.  1.
</event>
<event>
 7    1  0.5854318E-006  0.6719951E+02  0.7818608E-02  0.1460617E+00
          2   -1    0    0  502    0  0.00000000000E+00  0.00000000000E+00  0.27974247432E+04  0.27974247432E+04  0.00000000000E+00 0. -1.
          1   -1    0    0  501    0 -0.00000000000E+00 -0.00000000000E+00 -0.62277268271E+02  0.62277268271E+02  0.00000000000E+00 0. -1.
         25    2    1    2    0    0  0.33348292639E+02 -0.79661803183E+02  0.15157493241E+03  0.21461334557E+03  0.12500326577E+03 0.  0.
          2    1    1    2  501    0 -0.30737580184E+02  0.12701734167E+02 -0.21208811307E+02  0.39445488506E+02  0.00000000000E+00 0. -1.
          1    1    1    2  502    0 -0.26107124545E+01  0.66960069017E+02  0.26047813538E+04  0.26056431774E+04  0.00000000000E+00 0. -1.
         22    1    3    3    0    0 -0.24988341211E+02 -0.27818095530E+02 -0.68430880037E+01  0.38014358982E+02  0.00000000000E+00 0.  1.
         22    1    3    3    0    0  0.58336633850E+02 -0.51843707654E+02  0.15841802042E+03  0.17659898659E+03  0.00000000000E+00 0.  1.
</event>
<event>
 7    1  0.5854318E-006  0.9173856E+02  0.7818608E-02  0.1335889E+00
          2   -1    0    0  502    0  0.00000000000E+00  0.00000000000E+00  0.14322138939E+03  0.14322138939E+03  0.00000000000E+00 0. -1.
          1   -1    0    0  501    0 -0.00000000000E+00 -0.00000000000E+00 -0.18137153068E+04  0.18137153068E+04  0.00000000000E+00 0. -1.
         25    2    1    2    0    0 -0.69592532970E+02 -0.41783138425E+02 -0.11730895655E+03  0.18967402333E+03  0.12500357010E+03 0.  0.
          2    1    1    2  501    0  0.24540925455E+02  0.89612342539E+02 -0.16487076749E+04  0.16513235983E+04  0.00000000000E+00 0. -1.
          1    1    1    2  502    0  0.45051607515E+02 -0.47829204114E+02  0.95522714072E+02  0.11593907456E+03  0.00000000000E+00 0. -1.
         22    1    3    3    0    0 -0.34379919393E+01  0.41169091043E+02 -0.20830149145E+02  0.46266715458E+02  0.00000000000E+00 0.  1.
         22    1    3    3    0    0 -0.66154541031E+02 -0.82952229468E+02 -0.96478807405E+02  0.14340730787E+03  0.00000000000E+00 0.  1.
</event>
<event>
 7    1  0.5854318E-006  0.2351168E+03  0.7818608E-02  0.1177303E+00
          2   -1    0    0  502    0  0.00000000000E+00  0.00000000000E+00  0.72062269089E+03  0.72062269089E+03  0.00000000000E+00 0. -1.
          1   -1    0    0  501    0 -0.00000000000E+00 -0.00000000000E+00 -0.14759500499E+04  0.14759500499E+04  0.00000000000E+00 0. -1.
         25    2    1    2    0    0 -0.38139525058E+01  0.19932965597E+03  0.16822906126E+03  0.28926515075E+03  0.12500580948E+03 0.  0.
          2    1    1    2  501    0  0.12747990767E+03 -0.20088692935E+03 -0.13974411033E+04  0.14175501129E+04  0.00000000000E+00 0. -1.
          1    1    1    2  502    0 -0.12366595517E+03  0.15572733755E+01  0.47388468307E+03  0.48975747715E+03  0.00000000000E+00 0. -1.
         22    1    3    3    0    0  0.54390215817E+02  0.96527311351E+02  0.11500503049E+03  0.15969337635E+03  0.00000000000E+00 0. -1.
         22    1    3    3    0    0 -0.58204168323E+02  0.10280234462E+03  0.53224030771E+02  0.12957177440E+03  0.00000000000E+00 0. -1.
</event>
<event>
 7    1  0.5854318E-006  0.1281714E+03  0.7818608E-02  0.1342702E+00
          2   -1    0    0  502    0  0.00000000000E+00  0.00000000000E+00  0.91610241446E+03  0.91610241446E+03  0.00000000000E+00 0. -1.
          1   -1    0    0  501    0 -0.00000000000E+00 -0.00000000000E+00 -0.47402498971E+03  0.47402498971E+03  0.00000000000E+00 0. -1.
         25    2    1    2    0    0  0.60057901407E+02 -0.10616654795E+03 -0.60215172211E+02  0.18473653301E+03  0.12499372881E+03 0.  0.
          2    1    1    2  501    0 -0.21898901411E+02  0.12873010045E+03 -0.33881964408E+03  0.36311121142E+03  0.00000000000E+00 0. -1.
          1    1    1    2  502    0 -0.38158999995E+02 -0.22563552503E+02  0.84111224103E+03  0.84227965973E+03  0.00000000000E+00 0. -1.
         22    1    3    3    0    0  0.51846452543E+01 -0.54831498415E+02  0.33616913820E+02  0.64524961524E+02  0.00000000000E+00 0.  1.
         22    1    3    3    0    0  0.54873256152E+02 -0.51335049534E+02 -0.93832086031E+02  0.12021157149E+03  0.00000000000E+00 0.  1.
</event>
<event>
 7    1  0.5854318E-006  0.5750176E+02  0.7818608E-02  0.1481923E+00
          2   -1    0    0  502    0  0.00000000000E+00  0.00000000000E+00  0.15644614477E+04  0.15644614477E+04  0.00000000000E+00 0. -1.
          1   -1    0    0  501    0 -0.00000000000E+00 -0.00000000000E+00 -0.45793164808E+02  0.45793164808E+02  0.00000000000E+00 0. -1.
         25    2    1    2    0    0 -0.74478330223E+01  0.73679168655E+02  0.10534480882E+04  0.10634202301E+04  0.12500248412E+03 0.  0.
          2    1    1    2  501    0 -0.19689522517E+02 -0.26948962126E+02 -0.32265829747E+02  0.46422059690E+02  0.00000000000E+00 0. -1.
          1    1    1    2  502    0  0.27137355540E+02 -0.46730206529E+02  0.49748602444E+03  0.50041232277E+03  0.00000000000E+00 0. -1.
         22    1    3    3    0    0 -0.51317027917E+02 -0.71751761460E+01  0.30966244793E+03  0.31396775657E+03  0.00000000000E+00 0. -1.
         22    1    3    3    0    0  0.43869194894E+02  0.80854344801E+02  0.74378564032E+03  0.74945247353E+03  0.00000000000E+00 0. -1.
</event>
<event>
 7    1  0.5854318E-006  0.4030770E+02  0.7818608E-02  0.1520689E+00
          2   -1    0    0  502    0  0.00000000000E+00  0.00000000000E+00  0.13111993195E+04  0.13111993195E+04  0.00000000000E+00 0. -1.
          1   -1    0    0  501    0 -0.00000000000E+00 -0.00000000000E+00 -0.64989151598E+02  0.64989151598E+02  0.00000000000E+00 0. -1.
         25    2    1    2    0    0 -0.17258722581E+02 -0.43762522239E+02  0.18281886166E+03  0.22640932424E+03  0.12500169625E+03 0.  0.
          2    1    1    2  501    0 -0.20787245049E+02  0.29995215087E+02 -0.35046026444E+02  0.50596901628E+02  0.00000000000E+00 0. -1.
          1    1    1    2  502    0  0.38045967630E+02  0.13767307152E+02  0.10984373326E+04  0.10991822452E+04  0.00000000000E+00 0. -1.
         22    1    3    3    0    0 -0.48759588749E+02 -0.71433573203E+02  0.91400487205E+02  0.12583442270E+03  0.00000000000E+00 0. -1.
         22    1    3    3    0    0  0.31500866168E+02  0.27671050963E+02  0.91418374458E+02  0.10057490154E+03  0.00000000000E+00 0. -1.
</event>
<event>
 7    1  0.5854318E-006  0.5330400E+02  0.7818608E-02  0.1437235E+00
          2   -1    0    0  502    0  0.00000000000E+00  0.00000000000E+00  0.26142213207E+03  0.26142213207E+03  0.00000000000E+00 0. -1.
          1   -1    0    0  501    0 -0.00000000000E+00 -0.00000000000E+00 -0.64321677459E+02  0.64321677459E+02  0.00000000000E+00 0. -1.
         25    2    1    2    0    0 -0.11964569507E+02  0.63638299820E+01  0.46600270556E+02  0.13408912124E+03  0.12499863185E+03 0.  0.
          2    1    1    2  501    0 -0.65458536719E+01  0.52900549025E+02  0.92121512393E+02  0.10643161811E+03  0.00000000000E+00 0. -1.
          1    1    1    2  502    0  0.18510423179E+02 -0.59264379007E+02  0.58378671661E+02  0.85223070176E+02  0.00000000000E+00 0. -1.
         22    1    3    3    0    0  0.45322218271E+02 -0.24216882749E+01 -0.16610004165E+02  0.48330738474E+02  0.00000000000E+00 0. -1.
         22    1    3    3    0    0 -0.57286787778E+02  0.87855182570E+01  0.63210274721E+02  0.85758382770E+02  0.00000000000E+00 0. -1.
</event>
<event>
 7    1  0.5854318E-006  0.5853310E+02  0.7818608E-02  0.1522330E+00
          2   -1    0    0  502    0  0.00000000000E+00  0.00000000000E+00  0.13003627755E+04  0.13003627755E+04  0.00000000000E+00 0. -1.
          1   -1    0    0  501    0 -0.00000000000E+00 -0.00000000000E+00 -0.18104573015E+02  0.18104573015E+02  0.00000000000E+00 0. -1.
         25    2    1    2    0    0  0.39753259908E+02 -0.66520081199E+02  0.61551195946E+03  0.63283884407E+03  0.12499914983E+03 0.  0.
          2    1    1    2  501    0 -0.20688615305E+02  0.13779356186E+02  0.10489590781E+02  0.26980010654E+02  0.00000000000E+00 0. -1.
          1    1    1    2  502    0 -0.19064644604E+02  0.52740725013E+02  0.65625665228E+03  0.65864849382E+03  0.00000000000E+00 0. -1.
         22    1    3    3    0    0  0.59337773284E+02 -0.87685779094E+02  0.56357098853E+03  0.57343005354E+03  0.00000000000E+00 0. -1.
         22    1    3    3    0    0 -0.19584513376E+02  0.21165697895E+02  0.51940970929E+02  0.59408790533E+02  0.00000000000E+00 0. -1.
</event>
<event>
 7    1  0.5854318E-006  0.2649743E+03  0.7818608E-02  0.1212296E+00
          2   -1    0    0  502    0  0.00000000000E+00  0.00000000000E+00  0.97271308715E+03  0.97271308715E+03  0.00000000000E+00 0. -1.
          1   -1    0    0  501    0 -0.00000000000E+00 -0.00000000000E+00 -0.23045391614E+03  0.23045391614E+03  0.00000000000E+00 0. -1.
         25    2    1    2    0    0  0.20693307283E+03 -0.23989678763E+03  0.35672543904E+03  0.49320336929E+03  0.12499903706E+03 0.  0.
          2    1    1    2  501    0 -0.59381402821E+02  0.45462259285E+02 -0.12410140541E+03  0.14489350173E+03  0.00000000000E+00 0. -1.
          1    1    1    2  502    0 -0.14755167001E+03  0.19443452835E+03  0.50963513737E+03  0.56507013227E+03  0.00000000000E+00 0. -1.
         22    1    3    3    0    0  0.89055750110E+02 -0.17353840511E+03  0.26785581344E+03  0.33135063221E+03  0.00000000000E+00 0.  1.
         22    1    3    3    0    0  0.11787732272E+03 -0.66358382527E+02  0.88869625606E+02  0.16185273708E+03  0.00000000000E+00 0.  1.
</event>
<event>
 7    1  0.5854318E-006  0.6932879E+02  0.7818608E-02  0.1382485E+00
          2   -1    0    0  502    0  0.00000000000E+00  0.00000000000E+00  0.46831607200E+03  0.46831607200E+03  0.00000000000E+00 0. -1.
          1   -1    0    0  501    0 -0.00000000000E+00 -0.00000000000E+00 -0.59665520974E+02  0.59665520974E+02  0.00000000000E+00 0. -1.
         25    2    1    2    0    0  0.80653135610E+02 -0.87911851146E+02  0.20914973518E+03  0.27129564690E+03  0.12499717775E+03 0.  0.
          2    1    1    2  501    0 -0.46028002986E+02  0.40462431733E+02  0.15046427501E+02  0.63104519816E+02  0.00000000000E+00 0. -1.
          1    1    1    2  502    0 -0.34625132623E+02  0.47449419413E+02  0.18445438835E+03  0.19358142626E+03  0.00000000000E+00 0. -1.
         22    1    3    3    0    0  0.71028904188E+02 -0.10980228687E+03  0.11496391764E+03  0.17412165227E+03  0.00000000000E+00 0. -1.
         22    1    3    3    0    0  0.96242314216E+01  0.21890435720E+02  0.94185817539E+02  0.97173994628E+02  0.00000000000E+00 0. -1.
</event>
<event>
 7    1  0.5854318E-006  0.1012362E+03  0.7818608E-02  0.1335313E+00
          2   -1    0    0  502    0  0.00000000000E+00  0.00000000000E+00  0.48507747091E+03  0.48507747091E+03  0.00000000000E+00 0. -1.
          1   -1    0    0  501    0 -0.00000000000E+00 -0.00000000000E+00 -0.18353736877E+04  0.18353736877E+04  0.00000000000E+00 0. -1.
         25    2    1    2    0    0 -0.95636475553E+02  0.11127726931E+03  0.18746933982E+03  0.26888457169E+03  0.12500077358E+03 0.  0.
          2    1    1    2  501    0  0.86500208283E+02 -0.52137320828E+02 -0.17897380958E+04  0.17925855734E+04  0.00000000000E+00 0. -1.
          1    1    1    2  502    0  0.91362672694E+01 -0.59139948478E+02  0.25197253918E+03  0.25898101356E+03  0.00000000000E+00 0. -1.
         22    1    3    3    0    0 -0.22361176341E+02  0.11177480274E+03  0.81836636677E+02  0.14032413847E+03  0.00000000000E+00 0.  1.
         22    1    3    3    0    0 -0.73275299211E+02 -0.49753343597E+00  0.10563270315E+03  0.12856043321E+03  0.00000000000E+00 0.  1.
</event>
<event>
 7    1  0.5854318E-006  0.7206143E+02  0.7818608E-02  0.1374863E+00
          2   -1    0    0  502    0  0.00000000000E+00  0.00000000000E+00  0.34361653284E+04  0.34361653284E+04  0.00000000000E+00 0. -1.
          1   -1    0    0  501    0 -0.00000000000E+00 -0.00000000000E+00 -0.22354377042E+02  0.22354377042E+02  0.00000000000E+00 0. -1.
         25    2    1    2    0    0  0.15102236460E+01  0.17844759808E+02  0.53961988251E+03  0.55419743277E+03  0.12499784262E+03 0.  0.
          2    1    1    2  501    0 -0.27184565720E+02  0.53649695822E+02  0.47574768218E+02  0.76685390043E+02  0.00000000000E+00 0. -1.
          1    1    1    2  502    0  0.25674342074E+02 -0.71494455630E+02  0.28266163007E+04  0.28276368827E+04  0.00000000000E+00 0. -1.
         22    1    3    3    0    0 -0.31375743623E-02 -0.38558196174E+02  0.42185577283E+03  0.42361424383E+03  0.00000000000E+00 0. -1.
         22    1    3    3    0    0  0.15133612203E+01  0.56402955982E+02  0.11776410968E+03  0.13058318894E+03  0.00000000000E+00 0. -1.
</event>
<event>
 7    1  0.5854318E-006  0.8200100E+02  0.7818608E-02  0.1345494E+00
          2   -1    0    0  502    0  0.00000000000E+00  0.00000000000E+00  0.67634726128E+03  0.67634726128E+03  0.00000000000E+00 0. -1.
          1   -1    0    0  501    0 -0.00000000000E+00 -0.00000000000E+00 -0.92586540397E+03  0.92586540397E+03  0.00000000000E+00 0. -1.
         25    2    1    2    0    0  0.36022736640E+02 -0.22266962995E+02  0.22477487484E+02  0.13387915942E+03  0.12499974675E+03 0.  0.
          2    1    1    2  501    0 -0.66299682723E+01  0.83193430501E+02 -0.86624013339E+03  0.87025115458E+03  0.00000000000E+00 0. -1.
          1    1    1    2  502    0 -0.29392768368E+02 -0.60926467506E+02  0.59424450322E+03  0.59808235125E+03  0.00000000000E+00 0. -1.
         22    1    3    3    0    0  0.33175196627E+02 -0.40290084924E+02 -0.41923131460E+02  0.66943510260E+02  0.00000000000E+00 0.  1.
         22    1    3    3    0    0  0.28475400131E+01  0.18023121929E+02  0.64400618944E+02  0.66935649161E+02  0.00000000000E+00 0.  1.
</event>
<event>
 7    1  0.5854318E-006  0.6304225E+02  0.7818608E-02  0.1446119E+00
          2   -1    0    0  502    0  0.00000000000E+00  0.00000000000E+00  0.30100935322E+04  0.30100935322E+04  0.00000000000E+00 0. -1.
          1   -1    0    0  501    0 -0.00000000000E+00 -0.00000000000E+00 -0.14143571871E+04  0.14143571871E+04  0.00000000000E+00 0. -1.
         25    2    1    2    0    0  0.75825488800E+02 -0.54724838411E+02  0.17689355244E+04  0.17758091264E+04  0.12498340385E+03 0.  0.
          2    1    1    2  501    0 -0.36541154049E+02  0.51359435487E+02 -0.14099020676E+04  0.14113103443E+04  0.00000000000E+00 0. -1.
          1    1    1    2  502    0 -0.39284334751E+02  0.33654029240E+01  0.12367028883E+04  0.12373312486E+04  0.00000000000E+00 0. -1.
         22    1    3    3    0    0  0.78925397100E+02 -0.49915271673E+01  0.15131450873E+04  0.15152102788E+04  0.00000000000E+00 0. -1.
         22    1    3    3    0    0 -0.30999083006E+01 -0.49733311244E+02  0.25579043711E+03  0.26059884765E+03  0.00000000000E+00 0. -1.
</event>
<event>
 7    1  0.5854318E-006  0.5390938E+02  0.7818608E-02  0.1425869E+00
          2   -1    0    0  502    0  0.00000000000E+00  0.00000000000E+00  0.18060839453E+04  0.18060839453E+04  0.00000000000E+00 0. -1.
          1   -1    0    0  501    0 -0.00000000000E+00 -0.00000000000E+00 -0.49704519856E+03  0.49704519856E+03  0.00000000000E+00 0. -1.
         25    2    1    2    0    0  0.68527433574E+02  0.27042951788E+02  0.88824531485E+02  0.17011639773E+03  0.12498984355E+03 0.  0.
          2    1    1    2  501    0 -0.19689106863E+02 -0.49946501964E+02 -0.45438464491E+03  0.45754531963E+03  0.00000000000E+00 0. -1.
          1    1    1    2  502    0 -0.48838326711E+02  0.22903550176E+02  0.16745988602E+04  0.16754674265E+04  0.00000000000E+00 0. -1.
         22    1    3    3    0    0  0.14036949307E+02 -0.35144615268E+02 -0.12021559101E+02  0.39707654318E+02  0.00000000000E+00 0.  1.
         22    1    3    3    0    0  0.54490484267E+02  0.62187567056E+02  0.10084609059E+03  0.13040874341E+03  0.00000000000E+00 0.  1.
</event>
<event>
 7    1  0.5854318E-006  0.1542037E+03  0.7818608E-02  0.1265815E+00
          2   -1    0    0  502    0  0.00000000000E+00  0.00000000000E+00  0.28645868072E+04  0.28645868072E+04  0.00000000000E+00 0. -1.
          1   -1    0    0  501    0 -0.00000000000E+00 -0.00000000000E+00 -0.22481702523E+03  0.22481702523E+03  0.00000000000E+00 0. -1.
         25    2    1    2    0    0  0.84069315314E+02 -0.40889059831E+02  0.19960265187E+03  0.25338761696E+03  0.12499800319E+03 0.  0.
          2    1    1    2  501    0 -0.15860857723E+03  0.39936728965E+02 -0.16350957910E+03  0.23127257847E+03  0.00000000000E+00 0. -1.
          1    1    1    2  502    0  0.74539261917E+02  0.95233086655E+00  0.26036767092E+04  0.26047436370E+04  0.00000000000E+00 0. -1.
         22    1    3    3    0    0  0.64463083258E+02 -0.78435408859E+02  0.89225107456E+02  0.13516183732E+03  0.00000000000E+00 0.  1.
         22    1    3    3    0    0  0.19606232057E+02  0.37546349028E+02  0.11037754442E+03  0.11822577964E+03  0.00000000000E+00 0.  1.
</event>
<event>
 7    1  0.5854318E-006  0.1605192E+03  0.7818608E-02  0.1322021E+00
          2   -1    0    0  502    0  0.00000000000E+00  0.00000000000E+00  0.14159400911E+04  0.14159400911E+04  0.00000000000E+00 0. -1.
          1   -1    0    0  501    0 -0.00000000000E+00 -0.00000000000E+00 -0.13411999254E+04  0.13411999254E+04  0.00000000000E+00 0. -1.
         25    2    1    2    0    0 -0.69670504479E+02 -0.12942580523E+03  0.23773463487E+03  0.30618064252E+03  0.12499524383E+03 0.  0.
          2    1    1    2  501    0  0.11027493748E+03  0.11710586605E+03 -0.13016309687E+04  0.13115325098E+04  0.00000000000E+00 0. -1.
          1    1    1    2  502    0 -0.40604433000E+02  0.12319939178E+02  0.11386364995E+04  0.11394268642E+04  0.00000000000E+00 0. -1.
         22    1    3    3    0    0 -0.62840856174E+01 -0.30265390750E+02  0.16491108659E+03  0.16778304470E+03  0.00000000000E+00 0.  1.
         22    1    3    3    0    0 -0.63386418861E+02 -0.99160414481E+02  0.72823548279E+02  0.13839759781E+03  0.00000000000E+00 0.  1.
</event>
<event>
 7    1  0.5854318E-006  0.6713128E+02  0.7818608E-02  0.1398857E+00
          2   -1    0    0  502    0  0.00000000000E+00  0.00000000000E+00  0.61141858479E+02  0.61141858479E+02  0.00000000000E+00 0. -1.
          1   -1    0    0  501    0 -0.00000000000E+00 -0.00000000000E+00 -0.59413665834E+03  0.59413665834E+03  0.00000000000E+00 0. -1.
         25    2    1    2    0    0 -0.60755771062E+02  0.60514943937E+02 -0.20920684491E+03  0.25832432701E+03  0.12494251403E+03 0.  0.
          2    1    1    2  501    0  0.66344067484E+02 -0.76178408779E+01 -0.33583948484E+03  0.34241455338E+03  0.00000000000E+00 0. -1.
          1    1    1    2  502    0 -0.55882964226E+01 -0.52897103059E+02  0.12051529889E+02  0.54539636427E+02  0.00000000000E+00 0. -1.
         22    1    3    3    0    0 -0.97220494593E+02  0.59025197514E+02 -0.14289256407E+03  0.18263100333E+03  0.00000000000E+00 0. -1.
         22    1    3    3    0    0  0.36464723531E+02  0.14897464230E+01 -0.66314280840E+02  0.75693323682E+02  0.00000000000E+00 0. -1.
</event>
<event>
 7    1  0.5854318E-006  0.1086415E+03  0.7818608E-02  0.1352540E+00
          2   -1    0    0  502    0  0.00000000000E+00  0.00000000000E+00  0.17494271201E+03  0.17494271201E+03  0.00000000000E+00 0. -1.
          1   -1    0    0  501    0 -0.00000000000E+00 -0.00000000000E+00 -0.67691568645E+03  0.67691568645E+03  0.00000000000E+00 0. -1.
         25    2    1    2    0    0 -0.54022790028E+01 -0.95869260583E+02  0.47175227846E+02  0.16452933068E+03  0.12499719512E+03 0.  0.
          2    1    1    2  501    0 -0.44642211190E+02 -0.17839776746E+02 -0.56051759871E+03  0.56257547327E+03  0.00000000000E+00 0. -1.
          1    1    1    2  502    0  0.50044490193E+02  0.11370903733E+03  0.11369396425E+02  0.12475359451E+03  0.00000000000E+00 0. -1.
         22    1    3    3    0    0 -0.61063054362E+01 -0.20361329402E+02  0.79571558938E+02  0.82362028222E+02  0.00000000000E+00 0.  1.
         22    1    3    3    0    0  0.70402643337E+00 -0.75507931180E+02 -0.32396331092E+02  0.82167302454E+02  0.00000000000E+00 0.  1.
</event>
<event>
 7    1  0.5854318E-006  0.1110883E+03  0.7818608E-02  0.1310589E+00
          2   -1    0    0  502    0  0.00000000000E+00  0.00000000000E+00  0.35754055684E+04  0.35754055684E+04  0.00000000000E+00 0. -1.
          1   -1    0    0  501    0 -0.00000000000E+00 -0.00000000000E+00 -0.11599765977E+03  0.11599765977E+03  0.00000000000E+00 0. -1.
         25    2    1    2    0    0  0.30512756880E+01  0.91531287613E+02  0.20553657180E+03  0.25740520182E+03  0.12499947473E+03 0.  0.
          2    1    1    2  501    0 -0.70986923761E+02 -0.92746447338E+02 -0.51701719603E+02  0.12772671862E+03  0.00000000000E+00 0. -1.
          1    1    1    2  502    0  0.67935648073E+02  0.12151597257E+01  0.33055730564E+04  0.33062713077E+04  0.00000000000E+00 0. -1.
         22    1    3    3    0    0 -0.26337529036E+02  0.11459775872E+03  0.15741165047E+03  0.19648088824E+03  0.00000000000E+00 0. -1.
         22    1    3    3    0    0  0.29388804724E+02 -0.23066471109E+02  0.48124921324E+02  0.60924313578E+02  0.00000000000E+00 0. -1.
</event>
<event>
 7    1  0.5854318E-006  0.3951023E+02  0.7818608E-02  0.1602673E+00
          2   -1    0    0  502    0  0.00000000000E+00  0.00000000000E+00  0.29008709277E+04  0.29008709277E+04  0.00000000000E+00 0. -1.
          1   -1    0    0  501    0 -0.00000000000E+00 -0.00000000000E+00 -0.19434834747E+03  0.19434834747E+03  0.00000000000E+00 0. -1.
         25    2    1    2    0    0 -0.33826252612E+02 -0.51026381413E+01  0.71240710454E+03  0.72409778349E+03  0.12499386054E+03 0.  0.
          2    1    1    2  501    0  0.43600792225E+01 -0.21726287510E+02 -0.18766918873E+03  0.18897292467E+03  0.00000000000E+00 0. -1.
          1    1    1    2  502    0  0.29466173389E+02  0.26828925651E+02  0.21817846644E+04  0.21821485670E+04  0.00000000000E+00 0. -1.
         22    1    3    3    0    0 -0.77245581593E+02 -0.28025307519E+00  0.56796297730E+03  0.57319185444E+03  0.00000000000E+00 0. -1.
         22    1    3    3    0    0  0.43419328981E+02 -0.48223850661E+01  0.14444412724E+03  0.15090592905E+03  0.00000000000E+00 0. -1.
</event>
<event>
 7    1  0.5854318E-006  0.4597221E+02  0.7818608E-02  0.1487980E+00
          2   -1    0    0  502    0  0.00000000000E+00  0.00000000000E+00  0.78541405027E+03  0.78541405027E+03  0.00000000000E+00 0. -1.
          1   -1    0    0  501    0 -0.00000000000E+00 -0.00000000000E+00 -0.12285087584E+04  0.12285087584E+04  0.00000000000E+00 0. -1.
         25    2    1    2    0    0 -0.28532730607E+00 -0.41813082481E+02  0.13459419857E+03  0.18838567693E+03  0.12500059882E+03 0.  0.
          2    1    1    2  501    0  0.37390064596E+02  0.26847419049E+02 -0.12005301084E+04  0.12014122282E+04  0.00000000000E+00 0. -1.
          1    1    1    2  502    0 -0.37104737290E+02  0.14965663432E+02  0.62284120174E+03  0.62412490352E+03  0.00000000000E+00 0. -1.
         22    1    3    3    0    0  0.23678167932E+02 -0.63173698523E+02  0.14039527782E+03  0.15576394273E+03  0.00000000000E+00 0. -1.
         22    1    3    3    0    0 -0.23963495238E+02  0.21360616043E+02 -0.58010792443E+01  0.32621734199E+02  0.00000000000E+00 0. -1.
</event>
<event>
 7    1  0.5854318E-006  0.4321556E+02  0.7818608E-02  0.1488995E+00
          2   -1    0    0  502    0  0.00000000000E+00  0.00000000000E+00  0.47130296671E+02  0.47130296671E+02  0.00000000000E+00 0. -1.
          1   -1    0    0  501    0 -0.00000000000E+00 -0.00000000000E+00 -0.44513012465E+03  0.44513012465E+03  0.00000000000E+00 0. -1.
         25    2    1    2    0    0 -0.14369549795E+02  0.32165204203E+02 -0.27537851796E+03  0.30446332156E+03  0.12499400665E+03 0.  0.
          2    1    1    2  501    0  0.49107212471E+02 -0.80972837484E+01 -0.13490030222E+03  0.14378864997E+03  0.00000000000E+00 0. -1.
          1    1    1    2  502    0 -0.34737662677E+02 -0.24067920454E+02  0.12278992205E+02  0.44008449789E+02  0.00000000000E+00 0. -1.
         22    1    3    3    0    0  0.44918878956E+01 -0.20112213226E+02 -0.23466993749E+03  0.23557304120E+03  0.00000000000E+00 0. -1.
         22    1    3    3    0    0 -0.18861437690E+02  0.52277417429E+02 -0.40708580474E+02  0.68890280367E+02  0.00000000000E+00 0. -1.
</event>
<event>
 7    1  0.5854318E-006  0.8146727E+02  0.7818608E-02  0.1392618E+00
          2   -1    0    0  502    0  0.00000000000E+00  0.00000000000E+00  0.71302180836E+02  0.71302180836E+02  0.00000000000E+00 0. -1.
          1   -1    0    0  501    0 -0.00000000000E+00 -0.00000000000E+00 -0.97450504938E+03  0.97450504938E+03  0.00000000000E+00 0. -1.
         25    2    1    2    0    0  0.39135118574E+02 -0.88554491809E+02 -0.19399058126E+03  0.25026033791E+03  0.12499774233E+03 0.  0.
          2    1    1    2  501    0  0.62811961509E+01  0.80849351551E+02 -0.73719939786E+03  0.74164615773E+03  0.00000000000E+00 0. -1.
          1    1    1    2  502    0 -0.45416314725E+02  0.77051402582E+01  0.27987110577E+02  0.53900734578E+02  0.00000000000E+00 0. -1.
         22    1    3    3    0    0  0.38947996071E+02 -0.12003710988E+03 -0.14759073422E+03  0.19418774157E+03  0.00000000000E+00 0.  1.
         22    1    3    3    0    0  0.18712250315E+00  0.31482618070E+02 -0.46399847042E+02  0.56072596345E+02  0.00000000000E+00 0.  1.
</event>
<event>
 7    1  0.5854318E-006  0.2385852E+03  0.7818608E-02  0.1235563E+00
          2   -1    0    0  502    0  0.00000000000E+00  0.00000000000E+00  0.12342266258E+04  0.12342266258E+04  0.00000000000E+00 0. -1.
          1   -1    0    0  501    0 -0.00000000000E+00 -0.00000000000E+00 -0.30587384733E+03  0.30587384733E+03  0.00000000000E+00 0. -1.
         25    2    1    2    0    0  0.20161186034E+03  0.77930641309E+02  0.33031374620E+03  0.41407682096E+03  0.12502765951E+03 0.  0.
          2    1    1    2  501    0 -0.24149973962E+03 -0.26405448513E+02 -0.20650366531E+03  0.31884657084E+03  0.00000000000E+00 0. -1.
          1    1    1    2  502    0  0.39887879283E+02 -0.51525192795E+02  0.80454269755E+03  0.80717708131E+03  0.00000000000E+00 0. -1.
         22    1    3    3    0    0  0.32197737748E+02  0.26895131764E+02  0.17072201811E+03  0.17580116580E+03  0.00000000000E+00 0.  1.
         22    1    3    3    0    0  0.16941412259E+03  0.51035509544E+02  0.15959172809E+03  0.23827565516E+03  0.00000000000E+00 0.  1.
</event>
<event>
 7    1  0.5854318E-006  0.3164504E+03  0.7818608E-02  0.1163377E+00
          2   -1    0    0  502    0  0.00000000000E+00  0.00000000000E+00  0.27423240797E+03  0.27423240797E+03  0.00000000000E+00 0. -1.
          1   -1    0    0  501    0 -0.00000000000E+00 -0.00000000000E+00 -0.23708493805E+04  0.23708493805E+04  0.00000000000E+00 0. -1.
         25    2    1    2    0    0 -0.22874455587E+03  0.63899514123E+02  0.11176315950E+03  0.29072602889E+03  0.12499360107E+03 0.  0.
          2    1    1    2  501    0  0.32125950458E+03 -0.86749627072E+01 -0.22225669323E+04  0.22456817879E+04  0.00000000000E+00 0. -1.
          1    1    1    2  502    0 -0.92514948711E+02 -0.55224551416E+02  0.14186800220E+02  0.10867397165E+03  0.00000000000E+00 0. -1.
         22    1    3    3    0    0 -0.10713970962E+03  0.61422227696E+01  0.11335013707E+03  0.15609259385E+03  0.00000000000E+00 0. -1.
         22    1    3    3    0    0 -0.12160484624E+03  0.57757291354E+02 -0.15869775735E+01  0.13463343505E+03  0.00000000000E+00 0. -1.
</event>
<event>
 7    1  0.5854318E-006  0.6004181E+02  0.7818608E-02  0.1488379E+00
          2   -1    0    0  502    0  0.00000000000E+00  0.00000000000E+00  0.34512060559E+03  0.34512060559E+03  0.00000000000E+00 0. -1.
          1   -1    0    0  501    0 -0.00000000000E+00 -0.00000000000E+00 -0.87033079577E+02  0.87033079577E+02  0.00000000000E+00 0. -1.
         25    2    1    2    0    0  0.25757177254E+02 -0.20024378799E+02  0.57044499431E+02  0.14122304056E+03  0.12500185736E+03 0.  0.
          2    1    1    2  501    0  0.27854127269E+02 -0.12544126595E+02 -0.35138448337E+02  0.46560907095E+02  0.00000000000E+00 0. -1.
          1    1    1    2  502    0 -0.53611304523E+02  0.32568505394E+02  0.23618147492E+03  0.24436973751E+03  0.00000000000E+00 0. -1.
         22    1    3    3    0    0  0.73110340068E+02  0.73273772429E+01  0.23843505933E+02  0.77248463139E+02  0.00000000000E+00 0. -1.
         22    1    3    3    0    0 -0.47353162814E+02 -0.27351756042E+02  0.33200993497E+02  0.63974577421E+02  0.00000000000E+00 0. -1.
</event>
<event>
 7    1  0.5854318E-006  0.7077583E+02  0.7818608E-02  0.1394878E+00
          2   -1    0    0  502    0  0.00000000000E+00  0.00000000000E+00  0.10730150260E+04  0.10730150260E+04  0.00000000000E+00 0. -1.
          1   -1    0    0  501    0 -0.00000000000E+00 -0.00000000000E+00 -0.14138846854E+04  0.14138846854E+04  0.00000000000E+00 0. -1.
         25    2    1    2    0    0  0.69495830858E+02  0.29949819994E+01  0.21214535513E+02  0.14462136376E+03  0.12500656748E+03 0.  0.
          2    1    1    2  501    0 -0.49373348331E+02 -0.51025172825E+02 -0.13505633515E+04  0.13524284314E+04  0.00000000000E+00 0. -1.
          1    1    1    2  502    0 -0.20122482527E+02  0.48030190826E+02  0.98847915657E+03  0.98984991615E+03  0.00000000000E+00 0. -1.
         22    1    3    3    0    0  0.53956938019E+02 -0.58221482025E+02  0.56875553559E+01  0.79582915350E+02  0.00000000000E+00 0. -1.
         22    1    3    3    0    0  0.15538892838E+02  0.61216464025E+02  0.15526980157E+02  0.65038448406E+02  0.00000000000E+00 0. -1.
</event>
<event>
 7    1  0.5854318E-006  0.1817103E+03  0.7818608E-02  0.1196765E+00
          2   -1    0    0  502    0  0.00000000000E+00  0.00000000000E+00  0.34838216216E+03  0.34838216216E+03  0.00000000000E+00 0. -1.
          1   -1    0    0  501    0 -0.00000000000E+00 -0.00000000000E+00 -0.12807821234E+04  0.12807821234E+04  0.00000000000E+00 0. -1.
         25    2    1    2    0    0  0.19686066609E+03 -0.24946792012E+02 -0.15222548282E+03  0.27959609080E+03  0.12499964835E+03 0.  0.
          2    1    1    2  501    0 -0.69208430306E+02 -0.10877312014E+03 -0.10304138219E+04  0.10384479009E+04  0.00000000000E+00 0. -1.
          1    1    1    2  502    0 -0.12765223578E+03  0.13371991215E+03  0.25023934351E+03  0.31112029385E+03  0.00000000000E+00 0. -1.
         22    1    3    3    0    0  0.12390753153E+03  0.37438187060E+02 -0.48389781248E+02  0.13818923674E+03  0.00000000000E+00 0.  1.
         22    1    3    3    0    0  0.72953134558E+02 -0.62384979072E+02 -0.10383570157E+03  0.14140685406E+03  0.00000000000E+00 0.  1.
</event>
<event>
 7    1  0.5854318E-006  0.3119535E+03  0.7818608E-02  0.1192319E+00
          2   -1    0    0  502    0  0.00000000000E+00  0.00000000000E+00  0.39393239554E+03  0.39393239554E+03  0.00000000000E+00 0. -1.
          1   -1    0    0  501    0 -0.00000000000E+00 -0.00000000000E+00 -0.12636529541E+04  0.12636529541E+04  0.00000000000E+00 0. -1.
         25    2    1    2    0    0 -0.74051990529E+02  0.26538863811E+03 -0.63909318077E+02  0.30923140854E+03  0.12499934620E+03 0.  0.
          2    1    1    2  501    0 -0.70434898952E+02  0.35436793969E+02 -0.97223989700E+03  0.97543183189E+03  0.00000000000E+00 0. -1.
          1    1    1    2  502    0  0.14448688948E+03 -0.30082543208E+03  0.16642865652E+03  0.37292210920E+03  0.00000000000E+00 0. -1.
         22    1    3    3    0    0 -0.60641677395E+02  0.22534698625E+03 -0.99803428357E+02  0.25380977437E+03  0.00000000000E+00 0.  1.
         22    1    3    3    0    0 -0.13410313134E+02  0.40041651859E+02  0.35894110280E+02  0.55421634176E+02  0.00000000000E+00 0.  1.
</event>
<event>
 7    1  0.5854318E-006  0.1353718E+03  0.7818608E-02  0.1359644E+00
          2   -1    0    0  502    0  0.00000000000E+00  0.00000000000E+00  0.81201478106E+02  0.81201478106E+02  0.00000000000E+00 0. -1.
          1   -1    0    0  501    0 -0.00000000000E+00 -0.00000000000E+00 -0.63868965800E+03  0.63868965800E+03  0.00000000000E+00 0. -1.
         25    2    1    2    0    0  0.85453968548E+02 -0.83200425434E+02 -0.81353722726E+02  0.19096496194E+03  0.12499798780E+03 0.  0.
          2    1    1    2  501    0 -0.11953921477E+03  0.70618060219E+02 -0.47242457246E+03  0.49240380884E+03  0.00000000000E+00 0. -1.
          1    1    1    2  502    0  0.34085246225E+02  0.12582365215E+02 -0.37098847084E+01  0.36522365328E+02  0.00000000000E+00 0. -1.
         22    1    3    3    0    0  0.41672856648E+02  0.32882633755E+01  0.23672505494E+02  0.48039849850E+02  0.00000000000E+00 0.  1.
         22    1    3    3    0    0  0.43781111899E+02 -0.86488688810E+02 -0.10502622822E+03  0.14292511209E+03  0.00000000000E+00 0.  1.
</event>
<event>
 7    1  0.5854318E-006  0.1159804E+03  0.7818608E-02  0.1263616E+00
          2   -1    0    0  502    0  0.00000000000E+00  0.00000000000E+00  0.70068991784E+03  0.70068991784E+03  0.00000000000E+00 0. -1.
          1   -1    0    0  501    0 -0.00000000000E+00 -0.00000000000E+00 -0.99643227357E+03  0.99643227357E+03  0.00000000000E+00 0. -1.
         25    2    1    2    0    0  0.14490649186E+03 -0.85625320896E+02 -0.63629960624E+02  0.21909573140E+03  0.12499832266E+03 0.  0.
          2    1    1    2  501    0 -0.99246443026E+02 -0.20098461618E+02 -0.84670437232E+03  0.85273800122E+03  0.00000000000E+00 0. -1.
          1    1    1    2  502    0 -0.45660048836E+02  0.10572378251E+03  0.61459197721E+03  0.62528845880E+03  0.00000000000E+00 0. -1.
         22    1    3    3    0    0  0.11464476248E+03 -0.66343296874E+02 -0.10153838230E+03  0.16689786603E+03  0.00000000000E+00 0.  1.
         22    1    3    3    0    0  0.30261729381E+02 -0.19282024022E+02  0.37908421676E+02  0.52197865373E+02  0.00000000000E+00 0.  1.
</event>
<event>
 7    1  0.5854318E-006  0.5020995E+02  0.7818608E-02  0.1472139E+00
          2   -1    0    0  502    0  0.00000000000E+00  0.00000000000E+00  0.26184234029E+03  0.26184234029E+03  0.00000000000E+00 0. -1.
          1   -1    0    0  501    0 -0.00000000000E+00 -0.00000000000E+00 -0.11700362377E+04  0.11700362377E+04  0.00000000000E+00 0. -1.
         25    2    1    2    0    0 -0.58305151911E+02  0.30318054238E+02 -0.38821245017E+03  0.41310125652E+03  0.12500026607E+03 0.  0.
          2    1    1    2  501    0  0.20350182329E+02 -0.45741847633E+02 -0.76687510600E+03  0.76850756324E+03  0.00000000000E+00 0. -1.
          1    1    1    2  502    0  0.37954969582E+02  0.15423793395E+02  0.24689365880E+03  0.25026975821E+03  0.00000000000E+00 0. -1.
         22    1    3    3    0    0 -0.60569551048E+02 -0.92528539063E+01 -0.72558286646E+02  0.94968367263E+02  0.00000000000E+00 0.  1.
         22    1    3    3    0    0  0.22643991375E+01  0.39570908144E+02 -0.31565416352E+03  0.31813288925E+03  0.00000000000E+00 0.  1.
</event>
<event>
 7    1  0.5854318E-006  0.1558475E+03  0.7818608E-02  0.1301883E+00
          2   -1    0    0  502    0  0.00000000000E+00  0.00000000000E+00  0.19572587525E+04  0.19572587525E+04  0.00000000000E+00 0. -1.
          1   -1    0    0  501    0 -0.00000000000E+00 -0.00000000000E+00 -0.13231000343E+04  0.13231000343E+04  0.00000000000E+00 0. -1.
         25    2    1    2    0    0 -0.16195655757E+03 -0.17833562544E+02  0.26617740808E+03  0.33618969282E+03  0.12500053798E+03 0.  0.
          2    1    1    2  501    0  0.20696175322E+02 -0.48181391197E+02 -0.12838872945E+04  0.12849577281E+04  0.00000000000E+00 0. -1.
          1    1    1    2  502    0  0.14126038225E+03  0.66014953741E+02  0.16518686046E+04  0.16592113658E+04  0.00000000000E+00 0. -1.
         22    1    3    3    0    0  0.44962311136E+01 -0.29261447781E+02  0.11570355174E+02  0.31785555514E+02  0.00000000000E+00 0. -1.
         22    1    3    3    0    0 -0.16645278868E+03  0.11427885238E+02  0.25460705290E+03  0.30440413731E+03  0.00000000000E+00 0. -1.
</event>
<event>
 7    1  0.5854318E-006  0.4613354E+02  0.7818608E-02  0.1567084E+00
          2   -1    0    0  502    0  0.00000000000E+00  0.00000000000E+00  0.19668858507E+02  0.19668858507E+02  0.00000000000E+00 0. -1.
          1   -1    0    0  501    0 -0.00000000000E+00 -0.00000000000E+00 -0.93963637331E+03  0.93963637331E+03  0.00000000000E+00 0. -1.
         25    2    1    2    0    0 -0.12375633008E+02 -0.59580563900E+02 -0.51115144094E+03  0.52972075471E+03  0.12500113004E+03 0.  0.
          2    1    1    2  501    0  0.18256609238E+02  0.14970673310E+02 -0.36823762038E+03  0.36899372611E+03  0.00000000000E+00 0. -1.
          1    1    1    2  502    0 -0.58809762306E+01  0.44609890590E+02 -0.40578453485E+02  0.60590751003E+02  0.00000000000E+00 0. -1.
         22    1    3    3    0    0  0.32169061168E+02 -0.80363780184E+02 -0.26738935117E+03  0.28105204283E+03  0.00000000000E+00 0. -1.
         22    1    3    3    0    0 -0.44544694176E+02  0.20783216284E+02 -0.24376208977E+03  0.24866871188E+03  0.00000000000E+00 0. -1.
</event>
<event>
 7    1  0.5854318E-006  0.1634180E+03  0.7818608E-02  0.1337083E+00
          2   -1    0    0  502    0  0.00000000000E+00  0.00000000000E+00  0.23176333457E+03  0.23176333457E+03  0.00000000000E+00 0. -1.
          1   -1    0    0  501    0 -0.00000000000E+00 -0.00000000000E+00 -0.21190937807E+04  0.21190937807E+04  0.00000000000E+00 0. -1.
         25    2    1    2    0    0 -0.79135618320E+02 -0.12531825157E+03 -0.89455001436E+03  0.91532047118E+03  0.12499890605E+03 0.  0.
          2    1    1    2  501    0  0.22598812274E+02 -0.28667782752E+02 -0.11834513810E+04  0.11840142394E+04  0.00000000000E+00 0. -1.
          1    1    1    2  502    0  0.56536806046E+02  0.15398603432E+03  0.19067094917E+03  0.25152240469E+03  0.00000000000E+00 0. -1.
         22    1    3    3    0    0 -0.10841461601E+03 -0.11147697705E+03 -0.80976650029E+03  0.82456208400E+03  0.00000000000E+00 0.  1.
         22    1    3    3    0    0  0.29278997695E+02 -0.13841274520E+02 -0.84783514070E+02  0.90758387185E+02  0.00000000000E+00 0.  1.
</event>
<event>
 7    1  0.5854318E-006  0.6218575E+02  0.7818608E-02  0.1470262E+00
          2   -1    0    0  502    0  0.00000000000E+00  0.00000000000E+00  0.14655869616E+03  0.14655869616E+03  0.00000000000E+00 0. -1.
          1   -1    0    0  501    0 -0.00000000000E+00 -0.00000000000E+00 -0.30936158501E+03  0.30936158501E+03  0.00000000000E+00 0. -1.
         25    2    1    2    0    0 -0.56235808320E+02  0.17113544264E+02 -0.73578439807E+02  0.15650789074E+03  0.12500237407E+03 0.  0.
          2    1    1    2  501    0  0.61571127410E+02  0.15985452031E+02 -0.18622048408E+03  0.19678568825E+03  0.00000000000E+00 0. -1.
          1    1    1    2  502    0 -0.53353190904E+01 -0.33098996295E+02  0.96996035045E+02  0.10262670218E+03  0.00000000000E+00 0. -1.
         22    1    3    3    0    0  0.38081413893E+01 -0.27870448416E+02  0.21491594629E+02  0.35399893721E+02  0.00000000000E+00 0.  1.
         22    1    3    3    0    0 -0.60043949709E+02  0.44983992680E+02 -0.95070034436E+02  0.12110799702E+03  0.00000000000E+00 0.  1.
</event>
<event>
 7    1  0.5854318E-006  0.8041255E+02  0.7818608E-02  0.1376409E+00
          2   -1    0    0  502    0  0.00000000000E+00  0.00000000000E+00  0.35437279181E+04  0.35437279181E+04  0.00000000000E+00 0. -1.
          1   -1    0    0  501    0 -0.00000000000E+00 -0.00000000000E+00 -0.47268483147E+02  0.47268483147E+02  0.00000000000E+00 0. -1.
         25    2    1    2    0    0 -0.40293496343E+02  0.28772850313E+01  0.23967604313E+03  0.27331648153E+03  0.12500179523E+03 0.  0.
          2    1    1    2  501    0 -0.24335024148E+02  0.47328462966E+02 -0.62826694778E+01  0.53587766727E+02  0.00000000000E+00 0. -1.
          1    1    1    2  502    0  0.64628520491E+02 -0.50205747997E+02  0.32630660613E+04  0.32640921529E+04  0.00000000000E+00 0. -1.
         22    1    3    3    0    0 -0.66296671012E+02  0.65410049727E+01  0.53897436679E+02  0.85691113972E+02  0.00000000000E+00 0. -1.
         22    1    3    3    0    0  0.26003174669E+02 -0.36637199414E+01  0.18577860645E+03  0.18762536756E+03  0.00000000000E+00 0. -1.
</event>
<event>
 7    1  0.5854318E-006  0.2892196E+02  0.7818608E-02  0.1643792E+00
          2   -1    0    0  502    0  0.00000000000E+00  0.00000000000E+00  0.14466927331E+04  0.14466927331E+04  0.00000000000E+00 0. -1.
          1   -1    0    0  501    0 -0.00000000000E+00 -0.00000000000E+00 -0.14072793810E+03  0.14072793810E+03  0.00000000000E+00 0. -1.
         25    2    1    2    0    0 -0.49192434872E+02  0.13042671355E+02  0.47517619886E+03  0.49396954435E+03  0.12499393529E+03 0.  0.
          2    1    1    2  501    0  0.20773906536E+02 -0.11631360597E+02 -0.13003989138E+03  0.13220142621E+03  0.00000000000E+00 0. -1.
          1    1    1    2  502    0  0.28418528336E+02 -0.14113107583E+01  0.96082848754E+03  0.96124970066E+03  0.00000000000E+00 0. -1.
         22    1    3    3    0    0 -0.84543062652E+02 -0.16014097681E+02  0.35749645306E+03  0.36770598951E+03  0.00000000000E+00 0.  1.
         22    1    3    3    0    0  0.35350627780E+02  0.29056769036E+02  0.11767974579E+03  0.12626355484E+03  0.00000000000E+00 0.  1.
</event>
<event>
 7    1  0.5854318E-006  0.5745256E+02  0.7818608E-02  0.1490284E+00
          2   -1    0    0  502    0  0.00000000000E+00  0.00000000000E+00  0.77637428099E+03  0.77637428099E+03  0.00000000000E+00 0. -1.
          1   -1    0    0  501    0 -0.00000000000E+00 -0.00000000000E+00 -0.30590439359E+04  0.30590439359E+04  0.00000000000E+00 0. -1.
         25    2    1    2    0    0 -0.72425455404E+02  0.23164444064E+02  0.26527047486E+03  0.30294367286E+03  0.12499762412E+03 0.  0.
          2    1    1    2  501    0  0.44053946416E+02 -0.36859505789E+02 -0.30394316584E+04  0.30399743715E+04  0.00000000000E+00 0. -1.
          1    1    1    2  502    0  0.28371508989E+02  0.13695061725E+02  0.49149152862E+03  0.49250017253E+03  0.00000000000E+00 0. -1.
         22    1    3    3    0    0 -0.80588808385E+02  0.14433717824E+02  0.27537776921E+03  0.28729045237E+03  0.00000000000E+00 0.  1.
         22    1    3    3    0    0  0.81633529810E+01  0.87307262406E+01 -0.10107294354E+02  0.15653220491E+02  0.00000000000E+00 0.  1.
</event>
<event>
 7    1  0.5854318E-006  0.5335293E+02  0.7818608E-02  0.1514682E+00
          2   -1    0    0  502    0  0.00000000000E+00  0.00000000000E+00  0.12979794206E+04  0.12979794206E+04  0.00000000000E+00 0. -1.
          1   -1    0    0  501    0 -0.00000000000E+00 -0.00000000000E+00 -0.12064865190E+04  0.12064865190E+04  0.00000000000E+00 0. -1.
         25    2    1    2    0    0 -0.63837745395E+02 -0.48134521687E+02  0.11316073152E+04  0.11412930794E+04  0.12499034925E+03 0.  0.
          2    1    1    2  501    0  0.36737939916E+02  0.38670918531E+02 -0.11997711407E+04  0.12009562466E+04  0.00000000000E+00 0. -1.
          1    1    1    2  502    0  0.27099805479E+02  0.94636031563E+01  0.15965672708E+03  0.16221661365E+03  0.00000000000E+00 0. -1.
         22    1    3    3    0    0  0.35103775258E+00  0.21369208845E+02  0.65701262126E+03  0.65736013783E+03  0.00000000000E+00 0.  1.
         22    1    3    3    0    0 -0.64188783148E+02 -0.69503730532E+02  0.47459469391E+03  0.48393294156E+03  0.00000000000E+00 0.  1.
</event>
<event>
 7    1  0.5854318E-006  0.4437900E+02  0.7818608E-02  0.1496196E+00
          2   -1    0    0  502    0  0.00000000000E+00  0.00000000000E+00  0.69786309246E+02  0.69786309246E+02  0.00000000000E+00 0. -1.
          1   -1    0    0  501    0 -0.00000000000E+00 -0.00000000000E+00 -0.72947201316E+03  0.72947201316E+03  0.00000000000E+00 0. -1.
         25    2    1    2    0    0 -0.18030653020E+02  0.18714439070E+02 -0.14967816640E+03  0.19673293740E+03  0.12499984193E+03 0.  0.
          2    1    1    2  501    0 -0.11795242451E+02 -0.44068974803E+02 -0.54686123142E+03  0.54876079371E+03  0.00000000000E+00 0. -1.
          1    1    1    2  502    0  0.29825895470E+02  0.25354535733E+02  0.36853693905E+02  0.53764591297E+02  0.00000000000E+00 0. -1.
         22    1    3    3    0    0 -0.40323082554E+02  0.24626814403E+02 -0.20277154716E+01  0.47292098751E+02  0.00000000000E+00 0.  1.
         22    1    3    3    0    0  0.22292429534E+02 -0.59123753326E+01 -0.14765045092E+03  0.14944083864E+03  0.00000000000E+00 0.  1.
</event>
<event>
 7    1  0.5854318E-006  0.7306666E+02  0.7818608E-02  0.1485911E+00
          2   -1    0    0  502    0  0.00000000000E+00  0.00000000000E+00  0.26878211729E+04  0.26878211729E+04  0.00000000000E+00 0. -1.
          1   -1    0    0  501    0 -0.00000000000E+00 -0.00000000000E+00 -0.38938413368E+02  0.38938413368E+02  0.00000000000E+00 0. -1.
         25    2    1    2    0    0  0.17388687820E+01  0.84629499281E+02  0.42622222890E+03  0.45216831815E+03  0.12500249486E+03 0.  0.
          2    1    1    2  501    0  0.20385202126E+02 -0.15386073441E+02 -0.18950025197E+02  0.31802376902E+02  0.00000000000E+00 0. -1.
          1    1    1    2  502    0 -0.22124070908E+02 -0.69243425839E+02  0.22416105559E+04  0.22427888912E+04  0.00000000000E+00 0. -1.
         22    1    3    3    0    0 -0.29035178761E+02  0.10424164619E+03  0.36686388246E+03  0.38248983079E+03  0.00000000000E+00 0. -1.
         22    1    3    3    0    0  0.30774047543E+02 -0.19612146912E+02  0.59358346435E+02  0.69678487355E+02  0.00000000000E+00 0. -1.
</event>
<event>
 7    1  0.1613289E-005  0.8171855E+02  0.7818608E-02  0.1362950E+00
          2   -1    0    0  502    0  0.00000000000E+00  0.00000000000E+00  0.21458946897E+04  0.21458946897E+04  0.00000000000E+00 0. -1.
          1   -1    0    0  501    0 -0.00000000000E+00 -0.00000000000E+00 -0.15111376998E+04  0.15111376998E+04  0.00000000000E+00 0. -1.
         25    2    1    2    0    0  0.79824099498E+02 -0.86538182292E+02 -0.24310865524E+03  0.29763675072E+03  0.12500029307E+03 0.  0.
          2    1    1    2  501    0 -0.31531087633E+01  0.58457569375E+02 -0.12392870478E+04  0.12406690197E+04  0.00000000000E+00 0. -1.
          1    1    1    2  502    0 -0.76670990734E+02  0.28080612917E+02  0.21171526929E+04  0.21187266191E+04  0.00000000000E+00 0. -1.
         22    1    3    3    0    0  0.94928155540E+02 -0.42146536693E+02 -0.22417616759E+03  0.24706808654E+03  0.00000000000E+00 0. -1.
         22    1    3    3    0    0 -0.15104056042E+02 -0.44391645599E+02 -0.18932487652E+02  0.50568664177E+02  0.00000000000E+00 0. -1.
</event>
<event>
 7    1  0.5854318E-006  0.5371754E+02  0.7818608E-02  0.1455021E+00
          2   -1    0    0  502    0  0.00000000000E+00  0.00000000000E+00  0.23343200477E+04  0.23343200477E+04  0.00000000000E+00 0. -1.
          1   -1    0    0  501    0 -0.00000000000E+00 -0.00000000000E+00 -0.47470616889E+03  0.47470616889E+03  0.00000000000E+00 0. -1.
         25    2    1    2    0    0 -0.72011037545E+02  0.32248347641E+02  0.13984658961E+03  0.20351216340E+03  0.12503834041E+03 0.  0.
          2    1    1    2  501    0  0.41669957841E+02  0.11905327002E+02 -0.44148044737E+03  0.44360242065E+03  0.00000000000E+00 0. -1.
          1    1    1    2  502    0  0.30341079704E+02 -0.44153674643E+02  0.21612477366E+04  0.21619116326E+04  0.00000000000E+00 0. -1.
         22    1    3    3    0    0 -0.83977639144E+01 -0.43310923861E+02  0.20653182797E+02  0.48712549965E+02  0.00000000000E+00 0. -1.
         22    1    3    3    0    0 -0.63613273631E+02  0.75559271502E+02  0.11919340681E+03  0.15479961343E+03  0.00000000000E+00 0. -1.
</event>
<event>
 7    1  0.5854318E-006  0.1096071E+03  0.7818608E-02  0.1361398E+00
          2   -1    0    0  502    0  0.00000000000E+00  0.00000000000E+00  0.11607781730E+03  0.11607781730E+03  0.00000000000E+00 0. -1.
          1   -1    0    0  501    0 -0.00000000000E+00 -0.00000000000E+00 -0.28179194407E+04  0.28179194407E+04  0.00000000000E+00 0. -1.
         25    2    1    2    0    0  0.81324143613E+02  0.81497631318E+02 -0.55264538460E+03  0.57818097890E+03  0.12498337088E+03 0.  0.
          2    1    1    2  501    0 -0.39458806061E+02  0.19956316865E+02 -0.22230750515E+04  0.22235147709E+04  0.00000000000E+00 0. -1.
          1    1    1    2  502    0 -0.41865337552E+02 -0.10145394818E+03  0.73878812721E+02  0.13230150815E+03  0.00000000000E+00 0. -1.
         22    1    3    3    0    0  0.42085656052E+02  0.11169251838E+03 -0.41858798969E+03  0.43527270328E+03  0.00000000000E+00 0.  1.
         22    1    3    3    0    0  0.39238487561E+02 -0.30194887060E+02 -0.13405739491E+03  0.14290827562E+03  0.00000000000E+00 0.  1.
</event>
<event>
 7    1  0.5854318E-006  0.6874548E+02  0.7818608E-02  0.1377634E+00
          2   -1    0    0  502    0  0.00000000000E+00  0.00000000000E+00  0.13134426576E+04  0.13134426576E+04  0.00000000000E+00 0. -1.
          1   -1    0    0  501    0 -0.00000000000E+00 -0.00000000000E+00 -0.10642212021E+03  0.10642212021E+03  0.00000000000E+00 0. -1.
         25    2    1    2    0    0 -0.10768377754E+03  0.55012104847E+02  0.25490997392E+03  0.30858745796E+03  0.12499998712E+03 0.  0.
          2    1    1    2  501    0  0.65690390431E+02 -0.99053724075E+01 -0.64621977758E+02  0.92678712803E+02  0.00000000000E+00 0. -1.
          1    1    1    2  502    0  0.41993387110E+02 -0.45106732439E+02  0.10167325413E+04  0.10185986071E+04  0.00000000000E+00 0. -1.
         22    1    3    3    0    0 -0.11458933646E+03  0.33565831339E+02  0.25944673540E+03  0.28560460356E+03  0.00000000000E+00 0. -1.
         22    1    3    3    0    0  0.69055589173E+01  0.21446273507E+02 -0.45367614882E+01  0.22982854394E+02  0.00000000000E+00 0. -1.
</event>
<event>
 7    1  0.5854318E-006  0.9446945E+02  0.7818608E-02  0.1413468E+00
          2   -1    0    0  502    0  0.00000000000E+00  0.00000000000E+00  0.45609621313E+03  0.45609621313E+03  0.00000000000E+00 0. -1.
          1   -1    0    0  501    0 -0.00000000000E+00 -0.00000000000E+00 -0.96314905577E+03  0.96314905577E+03  0.00000000000E+00 0. -1.
         25    2    1    2    0    0  0.12434171575E+03  0.22631101170E+02  0.47423893609E+02  0.18397745286E+03  0.12500259381E+03 0.  0.
          2    1    1    2  501    0 -0.93321730459E+02 -0.94500181135E+01 -0.89157162051E+03  0.89649216545E+03  0.00000000000E+00 0. -1.
          1    1    1    2  502    0 -0.31019985295E+02 -0.13181083056E+02  0.33709488426E+03  0.33877565059E+03  0.00000000000E+00 0. -1.
         22    1    3    3    0    0  0.94907673959E+02 -0.29591377290E+02  0.68171438215E+02  0.12054236257E+03  0.00000000000E+00 0. -1.
         22    1    3    3    0    0  0.29434041795E+02  0.52222478460E+02 -0.20747544607E+02  0.63435090290E+02  0.00000000000E+00 0. -1.
</event>
<event>
 7    1  0.5854318E-006  0.1915180E+03  0.7818608E-02  0.1323885E+00
          2   -1    0    0  502    0  0.00000000000E+00  0.00000000000E+00  0.14300954749E+04  0.14300954749E+04  0.00000000000E+00 0. -1.
          1   -1    0    0  501    0 -0.00000000000E+00 -0.00000000000E+00 -0.21305382861E+03  0.21305382861E+03  0.00000000000E+00 0. -1.
         25    2    1    2    0    0 -0.13240543123E+03 -0.11777860686E+03 -0.12184798760E+03  0.24874713537E+03  0.12500082727E+03 0.  0.
          2    1    1    2  501    0  0.12767028523E+02 -0.32566452070E+02 -0.63150620318E+01  0.35545053470E+02  0.00000000000E+00 0. -1.
          1    1    1    2  502    0  0.11963840271E+03  0.15034505893E+03  0.13452046959E+04  0.13588571146E+04  0.00000000000E+00 0. -1.
         22    1    3    3    0    0 -0.15639913085E+03 -0.91815832217E+02 -0.10532926499E+03  0.20972622449E+03  0.00000000000E+00 0. -1.
         22    1    3    3    0    0  0.23993699623E+02 -0.25962774647E+02 -0.16518722610E+02  0.39020910876E+02  0.00000000000E+00 0. -1.
</event>
<event>
 7    1  0.5854318E-006  0.8470613E+02  0.7818608E-02  0.1470958E+00
          2   -1    0    0  502    0  0.00000000000E+00  0.00000000000E+00  0.12978790640E+04  0.12978790640E+04  0.00000000000E+00 0. -1.
          1   -1    0    0  501    0 -0.00000000000E+00 -0.00000000000E+00 -0.50019520191E+02  0.50019520191E+02  0.00000000000E+00 0. -1.
         25    2    1    2    0    0 -0.57192110037E+02  0.33076023416E+02  0.34532681345E+03  0.37314920893E+03  0.12499905304E+03 0.  0.
          2    1    1    2  501    0  0.68187272382E+02 -0.54959603770E+02  0.17415860030E+02  0.89293753096E+02  0.00000000000E+00 0. -1.
          1    1    1    2  502    0 -0.10995162346E+02  0.21883580354E+02  0.88511687029E+03  0.88545562213E+03  0.00000000000E+00 0. -1.
         22    1    3    3    0    0 -0.59947099045E+02  0.68365241060E+02  0.15618801230E+03  0.18072674416E+03  0.00000000000E+00 0. -1.
         22    1    3    3    0    0  0.27549890080E+01 -0.35289217644E+02  0.18913880115E+03  0.19242246477E+03  0.00000000000E+00 0. -1.
</event>
<event>
 7    1  0.5854318E-006  0.8700205E+02  0.7818608E-02  0.1483166E+00
          2   -1    0    0  502    0  0.00000000000E+00  0.00000000000E+00  0.36003123346E+03  0.36003123346E+03  0.00000000000E+00 0. -1.
          1   -1    0    0  501    0 -0.00000000000E+00 -0.00000000000E+00 -0.82312909251E+03  0.82312909251E+03  0.00000000000E+00 0. -1.
         25    2    1    2    0    0  0.69874326751E+02 -0.82561385480E+02 -0.28711674975E+03  0.33130002144E+03  0.12499948922E+03 0.  0.
          2    1    1    2  501    0 -0.16536331644E+02  0.14306947369E+02 -0.50813070718E+03  0.50860097777E+03  0.00000000000E+00 0. -1.
          1    1    1    2  502    0 -0.53337995108E+02  0.68254438112E+02  0.33214959787E+03  0.34325932677E+03  0.00000000000E+00 0. -1.
         22    1    3    3    0    0  0.72278042649E+01 -0.52453640122E+02 -0.24361604390E+03  0.24930383543E+03  0.00000000000E+00 0.  1.
         22    1    3    3    0    0  0.62646522486E+02 -0.30107745358E+02 -0.43500705858E+02  0.81996186011E+02  0.00000000000E+00 0.  1.
</event>
<event>
 7    1  0.5854318E-006  0.6701095E+02  0.7818608E-02  0.1422178E+00
          2   -1    0    0  502    0  0.00000000000E+00  0.00000000000E+00  0.20983742014E+04  0.20983742014E+04  0.00000000000E+00 0. -1.
          1   -1    0    0  501    0 -0.00000000000E+00 -0.00000000000E+00 -0.16335155744E+03  0.16335155744E+03  0.00000000000E+00 0. -1.
         25    2    1    2    0    0 -0.41123311426E+02 -0.42734458407E+02 -0.30005871555E+02  0.14157277055E+03  0.12500054542E+03 0.  0.
          2    1    1    2  501    0  0.77166414061E+01  0.72021685856E+02 -0.60354198816E+02  0.94283079621E+02  0.00000000000E+00 0. -1.
          1    1    1    2  502    0  0.33406670020E+02 -0.29287227448E+02  0.20253827144E+04  0.20258699087E+04  0.00000000000E+00 0. -1.
         22    1    3    3    0    0 -0.64830891990E+02  0.13539257727E+02 -0.43234954232E+02  0.79092460598E+02  0.00000000000E+00 0.  1.
         22    1    3    3    0    0  0.23707580563E+02 -0.56273716134E+02  0.13229082677E+02  0.62480309956E+02  0.00000000000E+00 0.  1.
</event>
<event>
 7    1  0.5854318E-006  0.1788538E+03  0.7818608E-02  0.1263005E+00
          2   -1    0    0  502    0  0.00000000000E+00  0.00000000000E+00  0.76993844521E+03  0.76993844521E+03  0.00000000000E+00 0. -1.
          1   -1    0    0  501    0 -0.00000000000E+00 -0.00000000000E+00 -0.11427115882E+04  0.11427115882E+04  0.00000000000E+00 0. -1.
         25    2    1    2    0    0  0.20091266128E+03  0.10025554625E+03  0.55054629300E+01  0.25704199601E+03  0.12499282209E+03 0.  0.
          2    1    1    2  501    0 -0.31060127399E+02 -0.58300134643E+02 -0.10038552900E+04  0.10060263816E+04  0.00000000000E+00 0. -1.
          1    1    1    2  502    0 -0.16985253388E+03 -0.41955411603E+02  0.62557668410E+03  0.64958165577E+03  0.00000000000E+00 0. -1.
         22    1    3    3    0    0  0.70158870742E+02 -0.14166522728E+02  0.36824363128E+02  0.80492181172E+02  0.00000000000E+00 0. -1.
         22    1    3    3    0    0  0.13075379054E+03  0.11442206897E+03 -0.31318900198E+02  0.17654981484E+03  0.00000000000E+00 0. -1.
</event>
<event>
 7    1  0.5854318E-006  0.6617243E+02  0.7818608E-02  0.1386437E+00
          2   -1    0    0  502    0  0.00000000000E+00  0.00000000000E+00  0.87292592418E+02  0.87292592418E+02  0.00000000000E+00 0. -1.
          1   -1    0    0  501    0 -0.00000000000E+00 -0.00000000000E+00 -0.72998386631E+03  0.72998386631E+03  0.00000000000E+00 0. -1.
         25    2    1    2    0    0  0.26391478620E+00  0.68097579781E+02 -0.14860239088E+03  0.20578015059E+03  0.12500179911E+03 0.  0.
          2    1    1    2  501    0 -0.53645720363E+02 -0.41586297262E+02 -0.53494560525E+03  0.53923472070E+03  0.00000000000E+00 0. -1.
          1    1    1    2  502    0  0.53381805577E+02 -0.26511282519E+02  0.40856722233E+02  0.72261587438E+02  0.00000000000E+00 0. -1.
         22    1    3    3    0    0 -0.53980182250E+02  0.27660086685E+02 -0.26510222107E+02  0.66194654976E+02  0.00000000000E+00 0. -1.
         22    1    3    3    0    0  0.54244097037E+02  0.40437493096E+02 -0.12209216877E+03  0.13958549562E+03  0.00000000000E+00 0. -1.
</event>
<event>
 7    1  0.5854318E-006  0.1636312E+03  0.7818608E-02  0.1303590E+00
          2   -1    0    0  502    0  0.00000000000E+00  0.00000000000E+00  0.58077832330E+03  0.58077832330E+03  0.00000000000E+00 0. -1.
          1   -1    0    0  501    0 -0.00000000000E+00 -0.00000000000E+00 -0.57898631303E+03  0.57898631303E+03  0.00000000000E+00 0. -1.
         25    2    1    2    0    0 -0.48276639236E+02  0.13917864592E+03  0.88570335234E+02  0.21253844633E+03  0.12500622988E+03 0.  0.
          2    1    1    2  501    0  0.39070177426E+02  0.29848858301E+02 -0.49909614590E+03  0.50151210948E+03  0.00000000000E+00 0. -1.
          1    1    1    2  502    0  0.92064618102E+01 -0.16902750422E+03  0.41231782093E+03  0.44571408053E+03  0.00000000000E+00 0. -1.
         22    1    3    3    0    0  0.40277017996E+02  0.22101306880E+02  0.27519557530E+02  0.53554010037E+02  0.00000000000E+00 0. -1.
         22    1    3    3    0    0 -0.88553657232E+02  0.11707733904E+03  0.61050777704E+02  0.15898443629E+03  0.00000000000E+00 0. -1.
</event>
<event>
 7    1  0.5854318E-006  0.1183967E+03  0.7818608E-02  0.1250670E+00
          2   -1    0    0  502    0  0.00000000000E+00  0.00000000000E+00  0.38157921920E+03  0.38157921920E+03  0.00000000000E+00 0. -1.
          1   -1    0    0  501    0 -0.00000000000E+00 -0.00000000000E+00 -0.66699167510E+03  0.66699167510E+03  0.00000000000E+00 0. -1.
         25    2    1    2    0    0  0.13339565690E+03  0.23908128323E+02 -0.17379819177E+03  0.25337177743E+03  0.12500178500E+03 0.  0.
          2    1    1    2  501    0 -0.43847532453E+02 -0.10384192533E+03 -0.43546582613E+03  0.44981800462E+03  0.00000000000E+00 0. -1.
          1    1    1    2  502    0 -0.89548124449E+02  0.79933797004E+02  0.32385156200E+03  0.34538111226E+03  0.00000000000E+00 0. -1.
         22    1    3    3    0    0  0.14714117296E+02  0.43231572568E+02 -0.10579406056E+03  0.11522958545E+03  0.00000000000E+00 0.  1.
         22    1    3    3    0    0  0.11868153960E+03 -0.19323444245E+02 -0.68004131215E+02  0.13814219197E+03  0.00000000000E+00 0.  1.
</event>
<event>
 7    1  0.5854318E-006  0.7990796E+02  0.7818608E-02  0.1387317E+00
          2   -1    0    0  502    0  0.00000000000E+00  0.00000000000E+00  0.46887802410E+02  0.46887802410E+02  0.00000000000E+00 0. -1.
          1   -1    0    0  501    0 -0.00000000000E+00 -0.00000000000E+00 -0.50715904180E+03  0.50715904180E+03  0.00000000000E+00 0. -1.
         25    2    1    2    0    0 -0.12528927155E+02 -0.41460622474E+02 -0.16076930475E+03  0.20820080551E+03  0.12499939533E+03 0.  0.
          2    1    1    2  501    0  0.12669766923E+02  0.90468264455E+02 -0.27745644101E+03  0.29210803913E+03  0.00000000000E+00 0. -1.
          1    1    1    2  502    0 -0.14083976750E+00 -0.49007641981E+02 -0.22045493625E+02  0.53737999568E+02  0.00000000000E+00 0. -1.
         22    1    3    3    0    0  0.28555136230E+02  0.13982488505E+02 -0.12785116929E+03  0.13174531217E+03  0.00000000000E+00 0. -1.
         22    1    3    3    0    0 -0.41084063386E+02 -0.55443110980E+02 -0.32918135464E+02  0.76455493340E+02  0.00000000000E+00 0. -1.
</event>
<event>
 7    1  0.5854318E-006  0.7461523E+03  0.7818608E-02  0.1186528E+00
          2   -1    0    0  502    0  0.00000000000E+00  0.00000000000E+00  0.14458077552E+04  0.14458077552E+04  0.00000000000E+00 0. -1.
          1   -1    0    0  501    0 -0.00000000000E+00 -0.00000000000E+00 -0.64038519715E+03  0.64038519715E+03  0.00000000000E+00 0. -1.
         25    2    1    2    0    0  0.76563015024E+03  0.51868274049E+02  0.38187147820E+03  0.86621630017E+03  0.12500003203E+03 0.  0.
          2    1    1    2  501    0 -0.73201290909E+03 -0.62117409155E+02 -0.58199807728E+02  0.73694551306E+03  0.00000000000E+00 0. -1.
          1    1    1    2  502    0 -0.33617241147E+02  0.10249135107E+02  0.48175088753E+03  0.48303113907E+03  0.00000000000E+00 0. -1.
         22    1    3    3    0    0  0.69867993052E+03  0.36222296993E+02  0.38271654230E+03  0.79745699060E+03  0.00000000000E+00 0.  1.
         22    1    3    3    0    0  0.66950219720E+02  0.15645977056E+02 -0.84506410136E+00  0.68759309566E+02  0.00000000000E+00 0.  1.
</event>
<event>
 7    1  0.5854318E-006  0.7773652E+02  0.7818608E-02  0.1468479E+00
          2   -1    0    0  502    0  0.00000000000E+00  0.00000000000E+00  0.52015407399E+02  0.52015407399E+02  0.00000000000E+00 0. -1.
          1   -1    0    0  501    0 -0.00000000000E+00 -0.00000000000E+00 -0.51496515292E+03  0.51496515292E+03  0.00000000000E+00 0. -1.
         25    2    1    2    0    0  0.85307849189E+02 -0.50942821411E+02 -0.18916648060E+03  0.24755487833E+03  0.12500744066E+03 0.  0.
          2    1    1    2  501    0 -0.58692832846E+02  0.45507359044E+02 -0.28154367569E+03  0.29117453473E+03  0.00000000000E+00 0. -1.
          1    1    1    2  502    0 -0.26615016343E+02  0.54354623669E+01  0.77604107638E+01  0.28251147256E+02  0.00000000000E+00 0. -1.
         22    1    3    3    0    0  0.68878188320E+02 -0.48667360359E+02 -0.33084639201E+02  0.90594205895E+02  0.00000000000E+00 0. -1.
         22    1    3    3    0    0  0.16429660869E+02 -0.22754610521E+01 -0.15608184140E+03  0.15696067244E+03  0.00000000000E+00 0. -1.
</event>
<event>
 7    1  0.5854318E-006  0.5513297E+02  0.7818608E-02  0.1421819E+00
          2   -1    0    0  502    0  0.00000000000E+00  0.00000000000E+00  0.28856280237E+04  0.28856280237E+04  0.00000000000E+00 0. -1.
          1   -1    0    0  501    0 -0.00000000000E+00 -0.00000000000E+00 -0.14374559614E+04  0.14374559614E+04  0.00000000000E+00 0. -1.
         25    2    1    2    0    0 -0.69098649290E+02 -0.34258055013E+02  0.44759359885E+03  0.47107662236E+03  0.12499966695E+03 0.  0.
          2    1    1    2  501    0  0.17981623144E+02  0.52118405879E+02 -0.14248791616E+04  0.14259454029E+04  0.00000000000E+00 0. -1.
          1    1    1    2  502    0  0.51117026145E+02 -0.17860350867E+02  0.24254576250E+04  0.24260619599E+04  0.00000000000E+00 0. -1.
         22    1    3    3    0    0  0.20657194398E+02 -0.42268946327E+02  0.81967091514E+02  0.94509193179E+02  0.00000000000E+00 0. -1.
         22    1    3    3    0    0 -0.89755843688E+02  0.80108913141E+01  0.36562650734E+03  0.37656742918E+03  0.00000000000E+00 0. -1.
</event>
<event>
 7    1  0.5854318E-006  0.2289846E+03  0.7818608E-02  0.1247069E+00
          2   -1    0    0  502    0  0.00000000000E+00  0.00000000000E+00  0.25344133257E+04  0.25344133257E+04  0.00000000000E+00 0. -1.
          1   -1    0    0  501    0 -0.00000000000E+00 -0.00000000000E+00 -0.26841806290E+04  0.26841806290E+04  0.00000000000E+00 0. -1.
         25    2    1    2    0    0  0.16539928733E+01  0.27941250201E+03  0.11699805812E+03  0.32770103073E+03  0.12500135186E+03 0.  0.
          2    1    1    2  501    0 -0.29778973296E+02 -0.22593660894E+03 -0.25733981028E+04  0.25834689729E+04  0.00000000000E+00 0. -1.
          1    1    1    2  502    0  0.28124980423E+02 -0.53475893071E+02  0.23066327414E+04  0.23074239510E+04  0.00000000000E+00 0. -1.
         22    1    3    3    0    0  0.31884253237E+02  0.21572014047E+03  0.13297670193E+03  0.25541062598E+03  0.00000000000E+00 0. -1.
         22    1    3    3    0    0 -0.30230260364E+02  0.63692361546E+02 -0.15978643815E+02  0.72290404751E+02  0.00000000000E+00 0. -1.
</event>
<event>
 7    1  0.5854318E-006  0.8496936E+02  0.7818608E-02  0.1319571E+00
          2   -1    0    0  502    0  0.00000000000E+00  0.00000000000E+00  0.31035420759E+03  0.31035420759E+03  0.00000000000E+00 0. -1.
          1   -1    0    0  501    0 -0.00000000000E+00 -0.00000000000E+00 -0.83864046425E+03  0.83864046425E+03  0.00000000000E+00 0. -1.
         25    2    1    2    0    0 -0.10312245847E+03 -0.11994922184E+03  0.41309911598E+02  0.20579843524E+03  0.12499771954E+03 0.  0.
          2    1    1    2  501    0  0.70796910401E+02  0.44663468425E+02 -0.74495385612E+03  0.74964209839E+03  0.00000000000E+00 0. -1.
          1    1    1    2  502    0  0.32325548073E+02  0.75285753416E+02  0.17535768786E+03  0.19355413821E+03  0.00000000000E+00 0. -1.
         22    1    3    3    0    0 -0.52106190319E+02 -0.70471160921E+02  0.85231973312E+02  0.12225272539E+03  0.00000000000E+00 0.  1.
         22    1    3    3    0    0 -0.51016268154E+02 -0.49478060920E+02 -0.43922061714E+02  0.83545709848E+02  0.00000000000E+00 0.  1.
</event>
<event>
 7    1  0.5854318E-006  0.1820441E+03  0.7818608E-02  0.1190413E+00
          2   -1    0    0  502    0  0.00000000000E+00  0.00000000000E+00  0.14915530122E+04  0.14915530122E+04  0.00000000000E+00 0. -1.
          1   -1    0    0  501    0 -0.00000000000E+00 -0.00000000000E+00 -0.32627857809E+03  0.32627857809E+03  0.00000000000E+00 0. -1.
         25    2    1    2    0    0  0.13821763406E+03 -0.77017073463E+01  0.31018825378E+03  0.36194755358E+03  0.12500339237E+03 0.  0.
          2    1    1    2  501    0  0.26376445347E+02  0.13543817522E+03 -0.27450843210E+03  0.30723622096E+03  0.00000000000E+00 0. -1.
          1    1    1    2  502    0 -0.16459407940E+03 -0.12773646787E+03  0.11295946124E+04  0.11486478157E+04  0.00000000000E+00 0. -1.
         22    1    3    3    0    0  0.48040820605E+02 -0.58087923827E+02  0.81521437266E+02  0.11103095097E+03  0.00000000000E+00 0. -1.
         22    1    3    3    0    0  0.90176813451E+02  0.50386216481E+02  0.22866681651E+03  0.25091660262E+03  0.00000000000E+00 0. -1.
</event>
<event>
 7    1  0.5854318E-006  0.1063500E+03  0.7818608E-02  0.1397361E+00
          2   -1    0    0  502    0  0.00000000000E+00  0.00000000000E+00  0.88819988032E+03  0.88819988032E+03  0.00000000000E+00 0. -1.
          1   -1    0    0  501    0 -0.00000000000E+00 -0.00000000000E+00 -0.55425537601E+03  0.55425537601E+03  0.00000000000E+00 0. -1.
         25    2    1    2    0    0 -0.37486840082E+02  0.12627235474E+03  0.31158181994E+03  0.36063642450E+03  0.12500171762E+03 0.  0.
          2    1    1    2  501    0  0.48625303339E+02 -0.94172650084E+02 -0.52389368548E+03  0.53450678372E+03  0.00000000000E+00 0. -1.
          1    1    1    2  502    0 -0.11138463256E+02 -0.32099704654E+02  0.54625636986E+03  0.54731204811E+03  0.00000000000E+00 0. -1.
         22    1    3    3    0    0  0.45673973172E+01 -0.22337190773E+02  0.72564581045E+02  0.76062011754E+02  0.00000000000E+00 0. -1.
         22    1    3    3    0    0 -0.42054237400E+02  0.14860954551E+03  0.23901723889E+03  0.28457441274E+03  0.00000000000E+00 0. -1.
</event>
<event>
 7    1  0.5854318E-006  0.6491420E+02  0.7818608E-02  0.1538669E+00
          2   -1    0    0  502    0  0.00000000000E+00  0.00000000000E+00  0.23992993596E+03  0.23992993596E+03  0.00000000000E+00 0. -1.
          1   -1    0    0  501    0 -0.00000000000E+00 -0.00000000000E+00 -0.43013975576E+03  0.43013975576E+03  0.00000000000E+00 0. -1.
         25    2    1    2    0    0  0.68396922779E+02 -0.20634799473E+02 -0.15347967387E+03  0.21043917367E+03  0.12499880611E+03 0.  0.
          2    1    1    2  501    0 -0.64298621899E+02  0.93151817053E+00 -0.24351812045E+03  0.25186555043E+03  0.00000000000E+00 0. -1.
          1    1    1    2  502    0 -0.40983008797E+01  0.19703281302E+02  0.20678797452E+03  0.20776496762E+03  0.00000000000E+00 0. -1.
         22    1    3    3    0    0  0.10372393923E+03 -0.18068190791E+02 -0.93641758301E+02  0.14090384660E+03  0.00000000000E+00 0. -1.
         22    1    3    3    0    0 -0.35327016452E+02 -0.25666086817E+01 -0.59837915567E+02  0.69535327071E+02  0.00000000000E+00 0. -1.
</event>
<event>
 7    1  0.5854318E-006  0.1800425E+03  0.7818608E-02  0.1254742E+00
          2   -1    0    0  502    0  0.00000000000E+00  0.00000000000E+00  0.15079576247E+03  0.15079576247E+03  0.00000000000E+00 0. -1.
          1   -1    0    0  501    0 -0.00000000000E+00 -0.00000000000E+00 -0.84865994053E+03  0.84865994053E+03  0.00000000000E+00 0. -1.
         25    2    1    2    0    0  0.71463265923E+02 -0.10252720427E+03 -0.57837198260E+03  0.60477905294E+03  0.12499890649E+03 0.  0.
          2    1    1    2  501    0 -0.31729073985E+01 -0.71112411354E+02 -0.18397233552E+03  0.19726343460E+03  0.00000000000E+00 0. -1.
          1    1    1    2  502    0 -0.68290358524E+02  0.17363961562E+03  0.64480140065E+02  0.19741321547E+03  0.00000000000E+00 0. -1.
         22    1    3    3    0    0  0.43131644824E+02 -0.12599092131E+03 -0.37115853330E+03  0.39432563685E+03  0.00000000000E+00 0.  1.
         22    1    3    3    0    0  0.28331621099E+02  0.23463717040E+02 -0.20721344930E+03  0.21045341608E+03  0.00000000000E+00 0.  1.
</event>
<event>
 7    1  0.5854318E-006  0.7496707E+02  0.7818608E-02  0.1425001E+00
          2   -1    0    0  502    0  0.00000000000E+00  0.00000000000E+00  0.12554819803E+04  0.12554819803E+04  0.00000000000E+00 0. -1.
          1   -1    0    0  501    0 -0.00000000000E+00 -0.00000000000E+00 -0.11695574991E+03  0.11695574991E+03  0.00000000000E+00 0. -1.
         25    2    1    2    0    0 -0.35410679519E+02 -0.98754135059E+02  0.30883020172E+03  0.34929583107E+03  0.12500075475E+03 0.  0.
          2    1    1    2  501    0  0.57839004841E+01  0.73602145488E+02 -0.82159970522E+02  0.11045809197E+03  0.00000000000E+00 0. -1.
          1    1    1    2  502    0  0.29626779035E+02  0.25151989571E+02  0.91185599918E+03  0.91268380717E+03  0.00000000000E+00 0. -1.
         22    1    3    3    0    0  0.18348365891E+02 -0.45160390408E+02  0.24592330508E+03  0.25070778882E+03  0.00000000000E+00 0.  1.
         22    1    3    3    0    0 -0.53759045410E+02 -0.53593744652E+02  0.62906896646E+02  0.98588042251E+02  0.00000000000E+00 0.  1.
</event>
<event>
 7    1  0.5854318E-006  0.3771158E+02  0.7818608E-02  0.1575435E+00
          2   -1    0    0  502    0  0.00000000000E+00  0.00000000000E+00  0.38207361097E+03  0.38207361097E+03  0.00000000000E+00 0. -1.
          1   -1    0    0  501    0 -0.00000000000E+00 -0.00000000000E+00 -0.93757371785E+03  0.93757371785E+03  0.00000000000E+00 0. -1.
         25    2    1    2    0    0  0.14492190565E+02 -0.42189300638E+02  0.27826095653E+03  0.30829335723E+03  0.12500269401E+03 0.  0.
          2    1    1    2  501    0  0.17096752567E+02  0.21430458212E+02 -0.91832101478E+03  0.91873012886E+03  0.00000000000E+00 0. -1.
          1    1    1    2  502    0 -0.31588943132E+02  0.20758842426E+02  0.84559951363E+02  0.92623842727E+02  0.00000000000E+00 0. -1.
         22    1    3    3    0    0 -0.51828024844E+02  0.90813901150E+00  0.86219474886E+02  0.10060202148E+03  0.00000000000E+00 0.  1.
         22    1    3    3    0    0  0.66320215409E+02 -0.43097439649E+02  0.19204148164E+03  0.20769133576E+03  0.00000000000E+00 0.  1.
</event>
<event>
 7    1  0.5854318E-006  0.7261598E+02  0.7818608E-02  0.1375913E+00
          2   -1    0    0  502    0  0.00000000000E+00  0.00000000000E+00  0.22959042634E+04  0.22959042634E+04  0.00000000000E+00 0. -1.
          1   -1    0    0  501    0 -0.00000000000E+00 -0.00000000000E+00 -0.32328614116E+03  0.32328614116E+03  0.00000000000E+00 0. -1.
         25    2    1    2    0    0  0.26967626864E+02  0.46777887709E+02  0.24561073937E+03  0.28082732151E+03  0.12499570206E+03 0.  0.
          2    1    1    2  501    0 -0.54996946096E+02  0.21833936945E+02 -0.30213130742E+03  0.30787125849E+03  0.00000000000E+00 0. -1.
          1    1    1    2  502    0  0.28029319232E+02 -0.68611824654E+02  0.20291386902E+04  0.20304918245E+04  0.00000000000E+00 0. -1.
         22    1    3    3    0    0  0.69620473816E+02  0.59485985107E+02  0.16069686126E+03  0.18495695180E+03  0.00000000000E+00 0. -1.
         22    1    3    3    0    0 -0.42652846952E+02 -0.12708097399E+02  0.84913878106E+02  0.95870369706E+02  0.00000000000E+00 0. -1.
</event>
<event>
 7    1  0.5854318E-006  0.1482410E+03  0.7818608E-02  0.1263796E+00
          2   -1    0    0  502    0  0.00000000000E+00  0.00000000000E+00  0.43768338853E+04  0.43768338853E+04  0.00000000000E+00 0. -1.
          1   -1    0    0  501    0 -0.00000000000E+00 -0.00000000000E+00 -0.10472239838E+03  0.10472239838E+03  0.00000000000E+00 0. -1.
         25    2    1    2    0    0  0.69264777030E+02  0.15393226713E+03  0.30184199757E+03  0.36772778071E+03  0.12498950759E+03 0.  0.
          2    1    1    2  501    0  0.95025315047E+01 -0.14684644562E+03  0.44503199912E+01  0.14722086145E+03  0.00000000000E+00 0. -1.
          1    1    1    2  502    0 -0.78767308534E+02 -0.70858215101E+01  0.39658191694E+04  0.39666076416E+04  0.00000000000E+00 0. -1.
         22    1    3    3    0    0 -0.11123025775E+02  0.57891792657E+02  0.25307048142E+02  0.64153160835E+02  0.00000000000E+00 0.  1.
         22    1    3    3    0    0  0.80387802805E+02  0.96040474477E+02  0.27653494943E+03  0.30357461988E+03  0.00000000000E+00 0.  1.
</event>
<event>
 7    1  0.5854318E-006  0.6642815E+02  0.7818608E-02  0.1439195E+00
          2   -1    0    0  502    0  0.00000000000E+00  0.00000000000E+00  0.64764670987E+03  0.64764670987E+03  0.00000000000E+00 0. -1.
          1   -1    0    0  501    0 -0.00000000000E+00 -0.00000000000E+00 -0.13032383225E+04  0.13032383225E+04  0.00000000000E+00 0. -1.
         25    2    1    2    0    0 -0.18530761337E+02 -0.66802925443E+02 -0.11059608081E+04  0.11151572967E+04  0.12498186849E+03 0.  0.
          2    1    1    2  501    0  0.51806194809E+02  0.45709740253E+02 -0.18585701615E+03  0.19828286014E+03  0.00000000000E+00 0. -1.
          1    1    1    2  502    0 -0.33275433472E+02  0.21093185190E+02  0.63622621162E+03  0.63744487549E+03  0.00000000000E+00 0. -1.
         22    1    3    3    0    0  0.51975907114E+02 -0.20247562969E+02 -0.54866687490E+03  0.55149505740E+03  0.00000000000E+00 0. -1.
         22    1    3    3    0    0 -0.70506668451E+02 -0.46555362474E+02 -0.55729393317E+03  0.56366223930E+03  0.00000000000E+00 0. -1.
</event>
<event>
 7    1  0.5854318E-006  0.1923458E+03  0.7818608E-02  0.1243856E+00
          2   -1    0    0  502    0  0.00000000000E+00  0.00000000000E+00  0.40339445056E+03  0.40339445056E+03  0.00000000000E+00 0. -1.
          1   -1    0    0  501    0 -0.00000000000E+00 -0.00000000000E+00 -0.12584835651E+04  0.12584835651E+04  0.00000000000E+00 0. -1.
         25    2    1    2    0    0 -0.12451928989E+03  0.11190506451E+03  0.76049120595E+02  0.22234270596E+03  0.12500005253E+03 0.  0.
          2    1    1    2  501    0  0.18281787221E+03 -0.65852162225E+02 -0.11717303349E+04  0.11877334968E+04  0.00000000000E+00 0. -1.
          1    1    1    2  502    0 -0.58298582320E+02 -0.46052902288E+02  0.24059209977E+03  0.25180181290E+03  0.00000000000E+00 0. -1.
         22    1    3    3    0    0 -0.34792090040E+02  0.10878439566E+03  0.66228969302E+02  0.13202579537E+03  0.00000000000E+00 0.  1.
         22    1    3    3    0    0 -0.89727199853E+02  0.31206688567E+01  0.98201512930E+01  0.90316910592E+02  0.00000000000E+00 0.  1.
</event>
<event>
 7    1  0.5854318E-006  0.8533427E+02  0.7818608E-02  0.1317461E+00
          2   -1    0    0  502    0  0.00000000000E+00  0.00000000000E+00  0.28952614998E+04  0.28952614998E+04  0.00000000000E+00 0. -1.
          1   -1    0    0  501    0 -0.00000000000E+00 -0.00000000000E+00 -0.67569283166E+03  0.67569283166E+03  0.00000000000E+00 0. -1.
         25    2    1    2    0    0 -0.73087975467E+02 -0.39094019180E+02  0.96922268641E+02  0.17857433783E+03  0.12499869391E+03 0.  0.
          2    1    1    2  501    0  0.74130916203E+02 -0.44037366135E+02 -0.63130893643E+03  0.63717003662E+03  0.00000000000E+00 0. -1.
          1    1    1    2  502    0 -0.10429407364E+01  0.83131385315E+02  0.27539553359E+04  0.27552099570E+04  0.00000000000E+00 0. -1.
         22    1    3    3    0    0 -0.45412037693E+02 -0.42556685548E+01  0.12005454068E+03  0.12842685319E+03  0.00000000000E+00 0. -1.
         22    1    3    3    0    0 -0.27675937775E+02 -0.34838350625E+02 -0.23132272040E+02  0.50147484640E+02  0.00000000000E+00 0. -1.
</event>
<event>
 7    1  0.5854318E-006  0.2935884E+03  0.7818608E-02  0.1191264E+00
          2   -1    0    0  502    0  0.00000000000E+00  0.00000000000E+00  0.19372793050E+04  0.19372793050E+04  0.00000000000E+00 0. -1.
          1   -1    0    0  501    0 -0.00000000000E+00 -0.00000000000E+00 -0.18998539582E+04  0.18998539582E+04  0.00000000000E+00 0. -1.
         25    2    1    2    0    0 -0.11084380969E+03  0.32238999511E+03  0.83152308658E+02  0.37250575800E+03  0.12499829684E+03 0.  0.
          2    1    1    2  501    0  0.32666540933E+02 -0.28964407114E+03 -0.17420103565E+04  0.17662278655E+04  0.00000000000E+00 0. -1.
          1    1    1    2  502    0  0.78177268759E+02 -0.32745923963E+02  0.16962833947E+04  0.16983996396E+04  0.00000000000E+00 0. -1.
         22    1    3    3    0    0 -0.26939546261E+02  0.16196279879E+03 -0.17914336962E+02  0.16516237711E+03  0.00000000000E+00 0.  1.
         22    1    3    3    0    0 -0.83904263431E+02  0.16042719632E+03  0.10106664562E+03  0.20734338089E+03  0.00000000000E+00 0.  1.
</event>
<event>
 7    1  0.5854318E-006  0.8822799E+02  0.7818608E-02  0.1324730E+00
          2   -1    0    0  502    0  0.00000000000E+00  0.00000000000E+00  0.11392643120E+03  0.11392643120E+03  0.00000000000E+00 0. -1.
          1   -1    0    0  501    0 -0.00000000000E+00 -0.00000000000E+00 -0.15112879894E+04  0.15112879894E+04  0.00000000000E+00 0. -1.
         25    2    1    2    0    0  0.13930906204E+03  0.22858904703E+02 -0.24787222942E+03  0.31144028496E+03  0.12499945875E+03 0.  0.
          2    1    1    2  501    0 -0.70375054521E+02  0.26963836129E+02 -0.12081210091E+04  0.12104693592E+04  0.00000000000E+00 0. -1.
          1    1    1    2  502    0 -0.68934007519E+02 -0.49822740832E+02  0.58631680370E+02  0.10330477646E+03  0.00000000000E+00 0. -1.
         22    1    3    3    0    0  0.13585585247E+03 -0.18861613822E+02 -0.22559611808E+03  0.26401928266E+03  0.00000000000E+00 0. -1.
         22    1    3    3    0    0  0.34532095703E+01  0.41720518525E+02 -0.22276111338E+02  0.47421002295E+02  0.00000000000E+00 0. -1.
</event>
<event>
 7    1  0.5854318E-006  0.7550368E+02  0.7818608E-02  0.1383746E+00
          2   -1    0    0  502    0  0.00000000000E+00  0.00000000000E+00  0.38889095725E+04  0.38889095725E+04  0.00000000000E+00 0. -1.
          1   -1    0    0  501    0 -0.00000000000E+00 -0.00000000000E+00 -0.56396778932E+02  0.56396778932E+02  0.00000000000E+00 0. -1.
         25    2    1    2    0    0  0.44711952995E+02  0.76052667595E+02  0.10051027702E+03  0.18305679876E+03  0.12499723515E+03 0.  0.
          2    1    1    2  501    0 -0.68396064638E+02 -0.28207092867E+02  0.76735452560E+02  0.10659264246E+03  0.00000000000E+00 0. -1.
          1    1    1    2  502    0  0.23684111643E+02 -0.47845574728E+02  0.36552670640E+04  0.36556569103E+04  0.00000000000E+00 0. -1.
         22    1    3    3    0    0 -0.42542517959E+02  0.22449975957E+02  0.48078499756E+02  0.68010362398E+02  0.00000000000E+00 0. -1.
         22    1    3    3    0    0  0.87254470953E+02  0.53602691638E+02  0.52431777267E+02  0.11504643636E+03  0.00000000000E+00 0. -1.
</event>
<event>
 7    1  0.5854318E-006  0.2545152E+03  0.7818608E-02  0.1280431E+00
          2   -1    0    0  502    0  0.00000000000E+00  0.00000000000E+00  0.18741364524E+04  0.18741364524E+04  0.00000000000E+00 0. -1.
          1   -1    0    0  501    0 -0.00000000000E+00 -0.00000000000E+00 -0.73787992800E+03  0.73787992800E+03  0.00000000000E+00 0. -1.
         25    2    1    2    0    0 -0.23293901332E+03 -0.11704909230E+03 -0.40822133961E+03  0.50023225754E+03  0.12500630156E+03 0.  0.
          2    1    1    2  501    0  0.25285709842E+02 -0.30006838949E+02 -0.27339144908E+03  0.27619316056E+03  0.00000000000E+00 0. -1.
          1    1    1    2  502    0  0.20765330348E+03  0.14705593125E+03  0.18178693131E+04  0.18355909623E+04  0.00000000000E+00 0. -1.
         22    1    3    3    0    0 -0.18820219825E+03 -0.10365734075E+03 -0.39820288254E+03  0.45247148792E+03  0.00000000000E+00 0. -1.
         22    1    3    3    0    0 -0.44736815075E+02 -0.13391751546E+02 -0.10018457074E+02  0.47760769620E+02  0.00000000000E+00 0. -1.
</event>
<event>
 7    1  0.5854318E-006  0.9185158E+02  0.7818608E-02  0.1406728E+00
          2   -1    0    0  502    0  0.00000000000E+00  0.00000000000E+00  0.11848890888E+03  0.11848890888E+03  0.00000000000E+00 0. -1.
          1   -1    0    0  501    0 -0.00000000000E+00 -0.00000000000E+00 -0.11721873964E+04  0.11721873964E+04  0.00000000000E+00 0. -1.
         25    2    1    2    0    0 -0.48206410011E+02  0.11103152344E+03 -0.45117457069E+03  0.48356605693E+03  0.12500312399E+03 0.  0.
          2    1    1    2  501    0  0.23861057812E+02 -0.83787699457E+02 -0.69876102535E+03  0.70417093039E+03  0.00000000000E+00 0. -1.
          1    1    1    2  502    0  0.24345352199E+02 -0.27243823986E+02  0.96237108544E+02  0.10293931795E+03  0.00000000000E+00 0. -1.
         22    1    3    3    0    0  0.38436521367E+01  0.11477367400E+03 -0.36681125334E+03  0.38436735747E+03  0.00000000000E+00 0. -1.
         22    1    3    3    0    0 -0.52050062148E+02 -0.37421505584E+01 -0.84363317350E+02  0.99198699461E+02  0.00000000000E+00 0. -1.
</event>
<event>
 7    1  0.5854318E-006  0.3524852E+02  0.7818608E-02  0.1550411E+00
          2   -1    0    0  502    0  0.00000000000E+00  0.00000000000E+00  0.14305968130E+04  0.14305968130E+04  0.00000000000E+00 0. -1.
          1   -1    0    0  501    0 -0.00000000000E+00 -0.00000000000E+00 -0.18938421197E+03  0.18938421197E+03  0.00000000000E+00 0. -1.
         25    2    1    2    0    0 -0.13174139693E+02  0.22050309451E+02  0.20242908496E+03  0.23929667229E+03  0.12500235529E+03 0.  0.
          2    1    1    2  501    0 -0.20478410981E+02 -0.28943125829E+02 -0.16886520575E+03  0.17254717488E+03  0.00000000000E+00 0. -1.
          1    1    1    2  502    0  0.33652550674E+02  0.68928163780E+01  0.12076487218E+04  0.12081371778E+04  0.00000000000E+00 0. -1.
         22    1    3    3    0    0  0.84390201787E+01  0.70871239516E+01  0.21127396578E+03  0.21156118029E+03  0.00000000000E+00 0.  1.
         22    1    3    3    0    0 -0.21613159872E+02  0.14963185499E+02 -0.88448808237E+01  0.27735492004E+02  0.00000000000E+00 0.  1.
</event>
<event>
 7    1  0.5854318E-006  0.1757975E+03  0.7818608E-02  0.1250916E+00
          2   -1    0    0  502    0  0.00000000000E+00  0.00000000000E+00  0.91974601860E+03  0.91974601860E+03  0.00000000000E+00 0. -1.
          1   -1    0    0  501    0 -0.00000000000E+00 -0.00000000000E+00 -0.64292049010E+03  0.64292049010E+03  0.00000000000E+00 0. -1.
         25    2    1    2    0    0 -0.10736335148E+03  0.11487607599E+03  0.37535226666E+01  0.20090256887E+03  0.12499740465E+03 0.  0.
          2    1    1    2  501    0  0.56776740327E+02 -0.17123078319E+03 -0.52756383053E+03  0.55755463826E+03  0.00000000000E+00 0. -1.
          1    1    1    2  502    0  0.50586611154E+02  0.56354707208E+02  0.80063583637E+03  0.80420930157E+03  0.00000000000E+00 0. -1.
         22    1    3    3    0    0 -0.53012456595E+02  0.71046974260E+02  0.63471917176E+02  0.10902603990E+03  0.00000000000E+00 0. -1.
         22    1    3    3    0    0 -0.54350894886E+02  0.43829101726E+02 -0.59718394509E+02  0.91876528971E+02  0.00000000000E+00 0. -1.
</event>
<event>
 7    1  0.5854318E-006  0.1199001E+03  0.7818608E-02  0.1446905E+00
          2   -1    0    0  502    0  0.00000000000E+00  0.00000000000E+00  0.82425083788E+03  0.82425083788E+03  0.00000000000E+00 0. -1.
          1   -1    0    0  501    0 -0.00000000000E+00 -0.00000000000E+00 -0.35156354553E+02  0.35156354553E+02  0.00000000000E+00 0. -1.
         25    2    1    2    0    0  0.11111161366E+03 -0.19745565120E+02  0.39376844468E+03  0.42826833409E+03  0.12499799971E+03 0.  0.
          2    1    1    2  501    0  0.13108855007E+02  0.15904542706E+02  0.45916280014E+01  0.21115861478E+02  0.00000000000E+00 0. -1.
          1    1    1    2  502    0 -0.12422046867E+03  0.38410224144E+01  0.39073441065E+03  0.41002299686E+03  0.00000000000E+00 0. -1.
         22    1    3    3    0    0 -0.83648590471E+01 -0.25743219307E+02  0.14763850045E+02  0.30832701396E+02  0.00000000000E+00 0. -1.
         22    1    3    3    0    0  0.11947647271E+03  0.59976541870E+01  0.37900459463E+03  0.39743563270E+03  0.00000000000E+00 0. -1.
</event>
<event>
 7    1  0.5854318E-006  0.9348247E+02  0.7818608E-02  0.1305943E+00
          2   -1    0    0  502    0  0.00000000000E+00  0.00000000000E+00  0.21709283109E+04  0.21709283109E+04  0.00000000000E+00 0. -1.
          1   -1    0    0  501    0 -0.00000000000E+00 -0.00000000000E+00 -0.59337924970E+02  0.59337924970E+02  0.00000000000E+00 0. -1.
         25    2    1    2    0    0 -0.10602621747E+03  0.34753043285E+02  0.20183020470E+03  0.26231600749E+03  0.12499969379E+03 0.  0.
          2    1    1    2  501    0  0.84300442804E+02  0.46626229647E+02  0.54311546661E+02  0.11059075029E+03  0.00000000000E+00 0. -1.
          1    1    1    2  502    0  0.21725774666E+02 -0.81379272931E+02  0.18554486346E+04  0.18573594781E+04  0.00000000000E+00 0. -1.
         22    1    3    3    0    0 -0.12886153534E+03  0.58942959417E+01  0.17167917297E+03  0.21474118479E+03  0.00000000000E+00 0. -1.
         22    1    3    3    0    0  0.22835317868E+02  0.28858747343E+02  0.30151031731E+02  0.47574822698E+02  0.00000000000E+00 0. -1.
</event>
<event>
 7    1  0.5854318E-006  0.8395634E+02  0.7818608E-02  0.1370201E+00
          2   -1    0    0  502    0  0.00000000000E+00  0.00000000000E+00  0.12926414392E+03  0.12926414392E+03  0.00000000000E+00 0. -1.
          1   -1    0    0  501    0 -0.00000000000E+00 -0.00000000000E+00 -0.52351307517E+03  0.52351307517E+03  0.00000000000E+00 0. -1.
         25    2    1    2    0    0 -0.24945791916E+02 -0.74776197614E+02 -0.13987485140E+03  0.20347835263E+03  0.12499877467E+03 0.  0.
          2    1    1    2  501    0  0.72107303895E+02  0.49208304347E+02 -0.33847125985E+03  0.34954787116E+03  0.00000000000E+00 0. -1.
          1    1    1    2  502    0 -0.47161511979E+02  0.25567893267E+02  0.84097180005E+02  0.99750995299E+02  0.00000000000E+00 0. -1.
         22    1    3    3    0    0 -0.16434361246E+02 -0.37663210344E+02 -0.15659181455E+03  0.16189379861E+03  0.00000000000E+00 0. -1.
         22    1    3    3    0    0 -0.85114306701E+01 -0.37112987270E+02  0.16716963146E+02  0.41584554020E+02  0.00000000000E+00 0. -1.
</event>
<event>
 7    1  0.5854318E-006  0.7923841E+02  0.7818608E-02  0.1401822E+00
          2   -1    0    0  502    0  0.00000000000E+00  0.00000000000E+00  0.21825648595E+04  0.21825648595E+04  0.00000000000E+00 0. -1.
          1   -1    0    0  501    0 -0.00000000000E+00 -0.00000000000E+00 -0.61441188220E+03  0.61441188220E+03  0.00000000000E+00 0. -1.
         25    2    1    2    0    0  0.88607836074E+02  0.69049202511E+02  0.14447018065E+04  0.14544438214E+04  0.12499751517E+03 0.  0.
          2    1    1    2  501    0 -0.35961344806E+02 -0.25386405634E+02 -0.60714677085E+03  0.60874041205E+03  0.00000000000E+00 0. -1.
          1    1    1    2  502    0 -0.52646491268E+02 -0.43662796877E+02  0.73059794165E+03  0.73379250829E+03  0.00000000000E+00 0. -1.
         22    1    3    3    0    0 -0.21082397406E+02 -0.53913546216E+01  0.50148670394E+03  0.50195861225E+03  0.00000000000E+00 0.  1.
         22    1    3    3    0    0  0.10969023348E+03  0.74440557132E+02  0.94321510260E+03  0.95248520915E+03  0.00000000000E+00 0.  1.
</event>
<event>
 7    1  0.6949537E-006  0.4489511E+02  0.7818608E-02  0.1501282E+00
          2   -1    0    0  502    0  0.00000000000E+00  0.00000000000E+00  0.19127101167E+04  0.19127101167E+04  0.00000000000E+00 0. -1.
          1   -1    0    0  501    0 -0.00000000000E+00 -0.00000000000E+00 -0.53601601389E+03  0.53601601389E+03  0.00000000000E+00 0. -1.
         25    2    1    2    0    0 -0.70716327429E+02  0.38403058925E+02 -0.73419919355E+02  0.16581832482E+03  0.12501855217E+03 0.  0.
          2    1    1    2  501    0  0.35978561451E+02 -0.10084205245E+02 -0.41528895635E+03  0.41696650387E+03  0.00000000000E+00 0. -1.
          1    1    1    2  502    0  0.34737765979E+02 -0.28318853680E+02  0.18654029785E+04  0.18659413019E+04  0.00000000000E+00 0. -1.
         22    1    3    3    0    0 -0.80639777002E+02  0.53742456084E+02 -0.96246349327E+02  0.13658105645E+03  0.00000000000E+00 0. -1.
         22    1    3    3    0    0  0.99234495724E+01 -0.15339397160E+02  0.22826429972E+02  0.29237268373E+02  0.00000000000E+00 0. -1.
</event>
<event>
 7    1  0.5854318E-006  0.1388459E+03  0.7818608E-02  0.1247100E+00
          2   -1    0    0  502    0  0.00000000000E+00  0.00000000000E+00  0.27013609350E+04  0.27013609350E+04  0.00000000000E+00 0. -1.
          1   -1    0    0  501    0 -0.00000000000E+00 -0.00000000000E+00 -0.18453527212E+04  0.18453527212E+04  0.00000000000E+00 0. -1.
         25    2    1    2    0    0 -0.10455708349E+03 -0.12225417856E+03  0.19738323334E+04  0.19843178949E+04  0.12500063878E+03 0.  0.
          2    1    1    2  501    0  0.99264638357E+02 -0.83459260828E+01 -0.18328330131E+04  0.18355380619E+04  0.00000000000E+00 0. -1.
          1    1    1    2  502    0  0.52924451349E+01  0.13060010465E+03  0.71500889354E+03  0.72685769938E+03  0.00000000000E+00 0. -1.
         22    1    3    3    0    0  0.22404056769E+02 -0.20923267909E+02  0.62298449027E+03  0.62373824639E+03  0.00000000000E+00 0. -1.
         22    1    3    3    0    0 -0.12696114026E+03 -0.10133091065E+03  0.13508478431E+04  0.13605796485E+04  0.00000000000E+00 0. -1.
</event>
<event>
 7    1  0.7006796E-006  0.8561733E+02  0.7818608E-02  0.1478857E+00
          2   -1    0    0  502    0  0.00000000000E+00  0.00000000000E+00  0.15013632641E+04  0.15013632641E+04  0.00000000000E+00 0. -1.
          1   -1    0    0  501    0 -0.00000000000E+00 -0.00000000000E+00 -0.65811262444E+03  0.65811262444E+03  0.00000000000E+00 0. -1.
         25    2    1    2    0    0 -0.10037013678E+03 -0.10417192569E+02 -0.20274480187E+03  0.25867673078E+03  0.12500205640E+03 0.  0.
          2    1    1    2  501    0  0.15097528296E+02  0.17226308753E+02 -0.42585215167E+03  0.42646774339E+03  0.00000000000E+00 0. -1.
          1    1    1    2  502    0  0.85272608487E+02 -0.68091161838E+01  0.14718475932E+04  0.14743314144E+04  0.00000000000E+00 0. -1.
         22    1    3    3    0    0  0.21523381745E+02  0.26463179660E+01 -0.88451885549E+02  0.91071373206E+02  0.00000000000E+00 0. -1.
         22    1    3    3    0    0 -0.12189351853E+03 -0.13063510535E+02 -0.11429291632E+03  0.16760535757E+03  0.00000000000E+00 0. -1.
</event>
<event>
 7    1  0.5854318E-006  0.5674314E+02  0.7818608E-02  0.1425102E+00
          2   -1    0    0  502    0  0.00000000000E+00  0.00000000000E+00  0.24268561862E+02  0.24268561862E+02  0.00000000000E+00 0. -1.
          1   -1    0    0  501    0 -0.00000000000E+00 -0.00000000000E+00 -0.87877334226E+03  0.87877334226E+03  0.00000000000E+00 0. -1.
         25    2    1    2    0    0 -0.11262525037E+01 -0.10965695971E+02 -0.21438839586E+03  0.24840465729E+03  0.12498389717E+03 0.  0.
          2    1    1    2  501    0 -0.34554303093E+02  0.55086908126E+02 -0.18704199007E+03  0.19802341619E+03  0.00000000000E+00 0. -1.
          1    1    1    2  502    0  0.35680555597E+02 -0.44121212155E+02 -0.45307439447E+03  0.45661383064E+03  0.00000000000E+00 0. -1.
         22    1    3    3    0    0  0.24927851830E+02  0.39397928979E+02 -0.17033256009E+03  0.17659777923E+03  0.00000000000E+00 0.  1.
         22    1    3    3    0    0 -0.26054104334E+02 -0.50363624950E+02 -0.44055835770E+02  0.71806878056E+02  0.00000000000E+00 0.  1.
</event>
<event>
 7    1  0.5854318E-006  0.7382924E+02  0.7818608E-02  0.1481443E+00
          2   -1    0    0  502    0  0.00000000000E+00  0.00000000000E+00  0.49833623838E+02  0.49833623838E+02  0.00000000000E+00 0. -1.
          1   -1    0    0  501    0 -0.00000000000E+00 -0.00000000000E+00 -0.14813158529E+04  0.14813158529E+04  0.00000000000E+00 0. -1.
         25    2    1    2    0    0  0.73864646451E+02  0.14442463027E+02 -0.22443725754E+03  0.26769701226E+03  0.12500014826E+03 0.  0.
          2    1    1    2  501    0 -0.63300434277E+02 -0.38289796490E+02 -0.12278573436E+04  0.12300840255E+04  0.00000000000E+00 0. -1.
          1    1    1    2  502    0 -0.10564212175E+02  0.23847333463E+02  0.20812372059E+02  0.33368439024E+02  0.00000000000E+00 0. -1.
         22    1    3    3    0    0 -0.15021911032E+02  0.42714777663E+02 -0.11679345024E+03  0.12526340272E+03  0.00000000000E+00 0. -1.
         22    1    3    3    0    0  0.88886557484E+02 -0.28272314636E+02 -0.10764380730E+03  0.14243360954E+03  0.00000000000E+00 0. -1.
</event>
<event>
 7    1  0.5854318E-006  0.1523155E+03  0.7818608E-02  0.1391276E+00
          2   -1    0    0  502    0  0.00000000000E+00  0.00000000000E+00  0.17627598614E+04  0.17627598614E+04  0.00000000000E+00 0. -1.
          1   -1    0    0  501    0 -0.00000000000E+00 -0.00000000000E+00 -0.36167264984E+03  0.36167264984E+03  0.00000000000E+00 0. -1.
         25    2    1    2    0    0 -0.69178199871E+02  0.11360031107E+03  0.13047291106E+03  0.22436175520E+03  0.12499745063E+03 0.  0.
          2    1    1    2  501    0  0.91682221719E+02 -0.12426858839E+03 -0.29567969971E+03  0.33357877130E+03  0.00000000000E+00 0. -1.
          1    1    1    2  502    0 -0.22504021848E+02  0.10668277318E+02  0.15662940002E+04  0.15664919847E+04  0.00000000000E+00 0. -1.
         22    1    3    3    0    0 -0.13496689268E+02 -0.27507594250E+02  0.25813849842E+02  0.40064737692E+02  0.00000000000E+00 0.  1.
         22    1    3    3    0    0 -0.55681510603E+02  0.14110790532E+03  0.10465906122E+03  0.18429701751E+03  0.00000000000E+00 0.  1.
</event>
<event>
 7    1  0.5854318E-006  0.1523433E+03  0.7818608E-02  0.1357406E+00
          2   -1    0    0  502    0  0.00000000000E+00  0.00000000000E+00  0.14965050990E+04  0.14965050990E+04  0.00000000000E+00 0. -1.
          1   -1    0    0  501    0 -0.00000000000E+00 -0.00000000000E+00 -0.13554749944E+03  0.13554749944E+03  0.00000000000E+00 0. -1.
         25    2    1    2    0    0 -0.15997364471E+03  0.69173894169E+02  0.45090558325E+03  0.49931672085E+03  0.12499899233E+03 0.  0.
          2    1    1    2  501    0  0.12828880880E+03 -0.78033387742E+02 -0.60309965723E+02  0.16181631572E+03  0.00000000000E+00 0. -1.
          1    1    1    2  502    0  0.31684835906E+02  0.88594935737E+01  0.97036198204E+03  0.97091956188E+03  0.00000000000E+00 0. -1.
         22    1    3    3    0    0 -0.73342864557E+02 -0.32729945239E+02  0.18440411639E+03  0.20113503732E+03  0.00000000000E+00 0. -1.
         22    1    3    3    0    0 -0.86630780154E+02  0.10190383941E+03  0.26650146686E+03  0.29818168353E+03  0.00000000000E+00 0. -1.
</event>
<event>
 7    1  0.5854318E-006  0.1234618E+03  0.7818608E-02  0.1342513E+00
          2   -1    0    0  502    0  0.00000000000E+00  0.00000000000E+00  0.23370743876E+03  0.23370743876E+03  0.00000000000E+00 0. -1.
          1   -1    0    0  501    0 -0.00000000000E+00 -0.00000000000E+00 -0.37495801850E+04  0.37495801850E+04  0.00000000000E+00 0. -1.
         25    2    1    2    0    0  0.13118018029E+03 -0.10309115132E+03 -0.13471604618E+04  0.13631955499E+04  0.12499908862E+03 0.  0.
          2    1    1    2  501    0 -0.27546752333E+02  0.36961353479E+02 -0.23774212246E+04  0.23778680881E+04  0.00000000000E+00 0. -1.
          1    1    1    2  502    0 -0.10363342796E+03  0.66129797841E+02  0.20870894020E+03  0.24222398575E+03  0.00000000000E+00 0. -1.
         22    1    3    3    0    0  0.91043357101E+02 -0.94648503871E+02 -0.12604583237E+04  0.12672815070E+04  0.00000000000E+00 0. -1.
         22    1    3    3    0    0  0.40136823190E+02 -0.84426474488E+01 -0.86702138148E+02  0.95914042930E+02  0.00000000000E+00 0. -1.
</event>
<event>
 7    1  0.5854318E-006  0.5873046E+02  0.7818608E-02  0.1409902E+00
          2   -1    0    0  502    0  0.00000000000E+00  0.00000000000E+00  0.16665561081E+04  0.16665561081E+04  0.00000000000E+00 0. -1.
          1   -1    0    0  501    0 -0.00000000000E+00 -0.00000000000E+00 -0.28761163850E+04  0.28761163850E+04  0.00000000000E+00 0. -1.
         25    2    1    2    0    0 -0.96560245630E+02 -0.61214991053E+02  0.72601509866E+02  0.18429578811E+03  0.12499120815E+03 0.  0.
          2    1    1    2  501    0  0.49089462917E+02  0.32000517966E+02 -0.28194597075E+04  0.28200685897E+04  0.00000000000E+00 0. -1.
          1    1    1    2  502    0  0.47470782713E+02  0.29214473088E+02  0.15372979207E+04  0.15383081153E+04  0.00000000000E+00 0. -1.
         22    1    3    3    0    0 -0.16222362139E+01  0.27686325625E+02 -0.10828901122E+02  0.29772963850E+02  0.00000000000E+00 0.  1.
         22    1    3    3    0    0 -0.94938009416E+02 -0.88901316678E+02  0.83430410988E+02  0.15452282426E+03  0.00000000000E+00 0.  1.
</event>
<event>
 7    1  0.5854318E-006  0.4168348E+02  0.7818608E-02  0.1584235E+00
          2   -1    0    0  502    0  0.00000000000E+00  0.00000000000E+00  0.31249676787E+03  0.31249676787E+03  0.00000000000E+00 0. -1.
          1   -1    0    0  501    0 -0.00000000000E+00 -0.00000000000E+00 -0.65550492902E+03  0.65550492902E+03  0.00000000000E+00 0. -1.
         25    2    1    2    0    0  0.85740251926E+01 -0.57802428107E+02  0.10106432264E+03  0.17103705703E+03  0.12500017186E+03 0.  0.
          2    1    1    2  501    0  0.77285494559E+01  0.40889963295E+02 -0.61903504706E+03  0.62043219538E+03  0.00000000000E+00 0. -1.
          1    1    1    2  502    0 -0.16302574649E+02  0.16912464812E+02  0.17496256327E+03  0.17653244447E+03  0.00000000000E+00 0. -1.
         22    1    3    3    0    0  0.28250278453E+02 -0.82185840276E+02  0.10832235224E+03  0.13887520502E+03  0.00000000000E+00 0. -1.
         22    1    3    3    0    0 -0.19676253260E+02  0.24383412170E+02 -0.72580295936E+01  0.32161852014E+02  0.00000000000E+00 0. -1.
</event>
<event>
 7    1  0.5854318E-006  0.6018907E+02  0.7818608E-02  0.1440292E+00
          2   -1    0    0  502    0  0.00000000000E+00  0.00000000000E+00  0.42368612548E+03  0.42368612548E+03  0.00000000000E+00 0. -1.
          1   -1    0    0  501    0 -0.00000000000E+00 -0.00000000000E+00 -0.35764682050E+03  0.35764682050E+03  0.00000000000E+00 0. -1.
         25    2    1    2    0    0  0.18813338805E+02 -0.10057523586E+03  0.17121770106E+03  0.23539289480E+03  0.12499997593E+03 0.  0.
          2    1    1    2  501    0 -0.15486945959E+02  0.57577260998E+02 -0.32067478236E+03  0.32617066471E+03  0.00000000000E+00 0. -1.
          1    1    1    2  502    0 -0.33263928461E+01  0.42997974858E+02  0.21549638628E+03  0.21976938647E+03  0.00000000000E+00 0. -1.
         22    1    3    3    0    0 -0.20626537402E+02 -0.55133289223E+02  0.16466050550E+03  0.17486627948E+03  0.00000000000E+00 0. -1.
         22    1    3    3    0    0  0.39439876207E+02 -0.45441946633E+02  0.65571955551E+01  0.60526615324E+02  0.00000000000E+00 0. -1.
</event>
<event>
 7    1  0.5854318E-006  0.1442773E+03  0.7818608E-02  0.1350153E+00
          2   -1    0    0  502    0  0.00000000000E+00  0.00000000000E+00  0.15427176810E+04  0.15427176810E+04  0.00000000000E+00 0. -1.
          1   -1    0    0  501    0 -0.00000000000E+00 -0.00000000000E+00 -0.10399107926E+03  0.10399107926E+03  0.00000000000E+00 0. -1.
         25    2    1    2    0    0  0.11939412279E+03 -0.29724707837E+02  0.57690409170E+03  0.60297870174E+03  0.12500587554E+03 0.  0.
          2    1    1    2  501    0  0.34656396668E+02  0.12797859878E+02 -0.80592797753E+02  0.88656923571E+02  0.00000000000E+00 0. -1.
          1    1    1    2  502    0 -0.15405051946E+03  0.16926847958E+02  0.94241530784E+03  0.95507313499E+03  0.00000000000E+00 0. -1.
         22    1    3    3    0    0 -0.11774056984E+02  0.29281205935E+02  0.10127002182E+03  0.10607372323E+03  0.00000000000E+00 0.  1.
         22    1    3    3    0    0  0.13116817978E+03 -0.59005913772E+02  0.47563406988E+03  0.49690497852E+03  0.00000000000E+00 0.  1.
</event>
<event>
 7    1  0.5854318E-006  0.6476392E+02  0.7818608E-02  0.1386535E+00
          2   -1    0    0  502    0  0.00000000000E+00  0.00000000000E+00  0.19879189801E+04  0.19879189801E+04  0.00000000000E+00 0. -1.
          1   -1    0    0  501    0 -0.00000000000E+00 -0.00000000000E+00 -0.61071269512E+03  0.61071269512E+03  0.00000000000E+00 0. -1.
         25    2    1    2    0    0  0.26568072634E+02 -0.63417907865E+01  0.24619327710E+03  0.27745565390E+03  0.12499771756E+03 0.  0.
          2    1    1    2  501    0  0.14783416956E+02  0.59027270751E+02 -0.59287395648E+03  0.59598850357E+03  0.00000000000E+00 0. -1.
          1    1    1    2  502    0 -0.41351489590E+02 -0.52685479964E+02  0.17238869643E+04  0.17251875177E+04  0.00000000000E+00 0. -1.
         22    1    3    3    0    0 -0.12541860738E+02  0.50961120313E+02  0.65700991391E+02  0.84088966720E+02  0.00000000000E+00 0. -1.
         22    1    3    3    0    0  0.39109933372E+02 -0.57302911100E+02  0.18049228571E+03  0.19336668718E+03  0.00000000000E+00 0. -1.
</event>
<event>
 7    1  0.5854318E-006  0.8947116E+02  0.7818608E-02  0.1370600E+00
          2   -1    0    0  502    0  0.00000000000E+00  0.00000000000E+00  0.49678557795E+03  0.49678557795E+03  0.00000000000E+00 0. -1.
          1   -1    0    0  501    0 -0.00000000000E+00 -0.00000000000E+00 -0.13654475808E+04  0.13654475808E+04  0.00000000000E+00 0. -1.
         25    2    1    2    0    0 -0.47634535666E+02 -0.17089087433E+02 -0.72400990829E+03  0.73646370813E+03  0.12500944045E+03 0.  0.
          2    1    1    2  501    0 -0.41372353319E+02  0.28385074374E+02 -0.63010281894E+03  0.63209726032E+03  0.00000000000E+00 0. -1.
          1    1    1    2  502    0  0.89006888985E+02 -0.11295986941E+02  0.48545072441E+03  0.49367219026E+03  0.00000000000E+00 0. -1.
         22    1    3    3    0    0 -0.31780146629E+02 -0.71458091728E+02 -0.41294380124E+03  0.42028421286E+03  0.00000000000E+00 0.  1.
         22    1    3    3    0    0 -0.15854389037E+02  0.54369004295E+02 -0.31106610704E+03  0.31617949527E+03  0.00000000000E+00 0.  1.
</event>
<event>
 7    1  0.5854318E-006  0.4827088E+02  0.7818608E-02  0.1463322E+00
          2   -1    0    0  502    0  0.00000000000E+00  0.00000000000E+00  0.96561011405E+02  0.96561011405E+02  0.00000000000E+00 0. -1.
          1   -1    0    0  501    0 -0.00000000000E+00 -0.00000000000E+00 -0.56743305521E+03  0.56743305521E+03  0.00000000000E+00 0. -1.
         25    2    1    2    0    0 -0.30833478900E+02 -0.56093427832E+02 -0.89239784067E+02  0.16639093106E+03  0.12500010725E+03 0.  0.
          2    1    1    2  501    0 -0.15641655610E+02  0.42622584385E+02 -0.42810913507E+03  0.43050990421E+03  0.00000000000E+00 0. -1.
          1    1    1    2  502    0  0.46475134510E+02  0.13470843448E+02  0.46476875337E+02  0.67093231343E+02  0.00000000000E+00 0. -1.
         22    1    3    3    0    0  0.29195392711E+02  0.96812097423E+01  0.10669441660E+02  0.32556623949E+02  0.00000000000E+00 0.  1.
         22    1    3    3    0    0 -0.60028871610E+02 -0.65774637574E+02 -0.99909225728E+02  0.13383430711E+03  0.00000000000E+00 0.  1.
</event>
<event>
 7    1  0.5854318E-006  0.1068759E+03  0.7818608E-02  0.1294434E+00
          2   -1    0    0  502    0  0.00000000000E+00  0.00000000000E+00  0.11457301327E+04  0.11457301327E+04  0.00000000000E+00 0. -1.
          1   -1    0    0  501    0 -0.00000000000E+00 -0.00000000000E+00 -0.57471398404E+03  0.57471398404E+03  0.00000000000E+00 0. -1.
         25    2    1    2    0    0 -0.81440887070E+01 -0.13946716987E+03  0.91453219702E+02  0.20858220670E+03  0.12500171162E+03 0.  0.
          2    1    1    2  501    0 -0.59007278527E+02  0.56820930949E+02 -0.51002463380E+03  0.51656132665E+03  0.00000000000E+00 0. -1.
          1    1    1    2  502    0  0.67151367234E+02  0.82646238917E+02  0.98958756277E+03  0.99530058340E+03  0.00000000000E+00 0. -1.
         22    1    3    3    0    0 -0.59763475602E+02 -0.34649944784E+02  0.21256407765E+02  0.72278119515E+02  0.00000000000E+00 0.  1.
         22    1    3    3    0    0  0.51619386895E+02 -0.10481722508E+03  0.70196811937E+02  0.13630408719E+03  0.00000000000E+00 0.  1.
</event>
<event>
 7    1  0.5854318E-006  0.4423834E+02  0.7818608E-02  0.1489535E+00
          2   -1    0    0  502    0  0.00000000000E+00  0.00000000000E+00  0.12768108193E+04  0.12768108193E+04  0.00000000000E+00 0. -1.
          1   -1    0    0  501    0 -0.00000000000E+00 -0.00000000000E+00 -0.10472191396E+02  0.10472191396E+02  0.00000000000E+00 0. -1.
         25    2    1    2    0    0  0.16096886818E+02 -0.25928508970E+02  0.58411211946E+03  0.59811598580E+03  0.12499746808E+03 0.  0.
          2    1    1    2  501    0  0.28722582996E+02  0.33645861433E+02  0.20176440294E+03  0.20655726823E+03  0.00000000000E+00 0. -1.
          1    1    1    2  502    0 -0.44819469814E+02 -0.77173524633E+01  0.48046210547E+03  0.48260975664E+03  0.00000000000E+00 0. -1.
         22    1    3    3    0    0  0.93214826059E+01 -0.76353527631E+02  0.38477887675E+03  0.39239206823E+03  0.00000000000E+00 0.  1.
         22    1    3    3    0    0  0.67754042121E+01  0.50425018661E+02  0.19933324271E+03  0.20572391757E+03  0.00000000000E+00 0.  1.
</event>
<event>
 7    1  0.5854318E-006  0.7728460E+02  0.7818608E-02  0.1361745E+00
          2   -1    0    0  502    0  0.00000000000E+00  0.00000000000E+00  0.75743815171E+03  0.75743815171E+03  0.00000000000E+00 0. -1.
          1   -1    0    0  501    0 -0.00000000000E+00 -0.00000000000E+00 -0.13845660896E+04  0.13845660896E+04  0.00000000000E+00 0. -1.
         25    2    1    2    0    0  0.84260485531E+02  0.86224698573E+02  0.11961200456E+03  0.21087071029E+03  0.12499958702E+03 0.  0.
          2    1    1    2  501    0 -0.60864782504E+02 -0.14330153314E+02 -0.13357892725E+04  0.13372519791E+04  0.00000000000E+00 0. -1.
          1    1    1    2  502    0 -0.23395703028E+02 -0.71894545259E+02  0.58904933002E+03  0.59388155196E+03  0.00000000000E+00 0. -1.
         22    1    3    3    0    0  0.35490851666E+02  0.10407479804E+03  0.11439801258E+03  0.15867598880E+03  0.00000000000E+00 0.  1.
         22    1    3    3    0    0  0.48769633865E+02 -0.17850099470E+02  0.52139919806E+01  0.52194721484E+02  0.00000000000E+00 0.  1.
</event>
<event>
 7    1  0.5854318E-006  0.1076628E+03  0.7818608E-02  0.1273357E+00
          2   -1    0    0  502    0  0.00000000000E+00  0.00000000000E+00  0.29654566745E+03  0.29654566745E+03  0.00000000000E+00 0. -1.
          1   -1    0    0  501    0 -0.00000000000E+00 -0.00000000000E+00 -0.35595762489E+03  0.35595762489E+03  0.00000000000E+00 0. -1.
         25    2    1    2    0    0  0.83367849899E+02 -0.83158691943E+02 -0.22067645955E+02  0.17313847598E+03  0.12499753767E+03 0.  0.
          2    1    1    2  501    0  0.11667297774E+02  0.11179489168E+03 -0.23371249770E+03  0.25933714586E+03  0.00000000000E+00 0. -1.
          1    1    1    2  502    0 -0.95035147673E+02 -0.28636199733E+02  0.19636818621E+03  0.22002767050E+03  0.00000000000E+00 0. -1.
         22    1    3    3    0    0  0.59221754750E+02  0.28240543799E+01  0.33357666924E+02  0.68028857564E+02  0.00000000000E+00 0.  1.
         22    1    3    3    0    0  0.24146095149E+02 -0.85982746323E+02 -0.55425312879E+02  0.10510961842E+03  0.00000000000E+00 0.  1.
</event>
<event>
 7    1  0.5854318E-006  0.9298125E+02  0.7818608E-02  0.1469231E+00
          2   -1    0    0  502    0  0.00000000000E+00  0.00000000000E+00  0.54137399731E+03  0.54137399731E+03  0.00000000000E+00 0. -1.
          1   -1    0    0  501    0 -0.00000000000E+00 -0.00000000000E+00 -0.13152690235E+04  0.13152690235E+04  0.00000000000E+00 0. -1.
         25    2    1    2    0    0  0.85480725003E+02 -0.47022495043E+02  0.48065904107E+02  0.16569220431E+03  0.12500202416E+03 0.  0.
          2    1    1    2  501    0  0.39480411129E+01  0.22240772956E+02 -0.12513978150E+04  0.12516016661E+04  0.00000000000E+00 0. -1.
          1    1    1    2  502    0 -0.89428766116E+02  0.24781722087E+02  0.42943688477E+03  0.43934915041E+03  0.00000000000E+00 0. -1.
         22    1    3    3    0    0  0.26933600033E+02  0.17251724625E+02  0.69185884668E+02  0.76221568145E+02  0.00000000000E+00 0.  1.
         22    1    3    3    0    0  0.58547124970E+02 -0.64274219668E+02 -0.21119980560E+02  0.89470636161E+02  0.00000000000E+00 0.  1.
</event>
<event>
 7    1  0.5854318E-006  0.9079416E+02  0.7818608E-02  0.1349652E+00
          2   -1    0    0  502    0  0.00000000000E+00  0.00000000000E+00  0.42333687717E+03  0.42333687717E+03  0.00000000000E+00 0. -1.
          1   -1    0    0  501    0 -0.00000000000E+00 -0.00000000000E+00 -0.13138827002E+03  0.13138827002E+03  0.00000000000E+00 0. -1.
         25    2    1    2    0    0 -0.12532836267E+03  0.59114929563E+02  0.17587381123E+02  0.18744525062E+03  0.12499853047E+03 0.  0.
          2    1    1    2  501    0  0.58920082162E+02 -0.20969201121E+01 -0.18362199270E+02  0.61750656012E+02  0.00000000000E+00 0. -1.
          1    1    1    2  502    0  0.66408280506E+02 -0.57018009451E+02  0.29272342529E+03  0.30552924056E+03  0.00000000000E+00 0. -1.
         22    1    3    3    0    0 -0.10667799936E+01  0.92142325621E+01  0.49027350179E+02  0.49897105797E+02  0.00000000000E+00 0. -1.
         22    1    3    3    0    0 -0.12426158267E+03  0.49900697001E+02 -0.31439969056E+02  0.13754814482E+03  0.00000000000E+00 0. -1.
</event>
<event>
 7    1  0.5854318E-006  0.6100505E+02  0.7818608E-02  0.1453132E+00
          2   -1    0    0  502    0  0.00000000000E+00  0.00000000000E+00  0.40044012065E+02  0.40044012065E+02  0.00000000000E+00 0. -1.
          1   -1    0    0  501    0 -0.00000000000E+00 -0.00000000000E+00 -0.92716358268E+03  0.92716358268E+03  0.00000000000E+00 0. -1.
         25    2    1    2    0    0  0.53942313900E+01  0.74112643888E+02 -0.60567523776E+03  0.62288824367E+03  0.12500195496E+03 0.  0.
          2    1    1    2  501    0 -0.34145489022E+02 -0.48219771421E+02 -0.29685002703E+03  0.30267308986E+03  0.00000000000E+00 0. -1.
          1    1    1    2  502    0  0.28751257632E+02 -0.25892872467E+02  0.15405694182E+02  0.41646261216E+02  0.00000000000E+00 0. -1.
         22    1    3    3    0    0 -0.30901693836E+02  0.97465762597E+02 -0.42191442004E+03  0.43412701759E+03  0.00000000000E+00 0. -1.
         22    1    3    3    0    0  0.36295925226E+02 -0.23353118709E+02 -0.18376081772E+03  0.18876122608E+03  0.00000000000E+00 0. -1.
</event>
<event>
 7    1  0.5854318E-006  0.5649016E+02  0.7818608E-02  0.1431322E+00
          2   -1    0    0  502    0  0.00000000000E+00  0.00000000000E+00  0.26651810952E+04  0.26651810952E+04  0.00000000000E+00 0. -1.
          1   -1    0    0  501    0 -0.00000000000E+00 -0.00000000000E+00 -0.60058757297E+02  0.60058757297E+02  0.00000000000E+00 0. -1.
         25    2    1    2    0    0  0.24112003064E+02 -0.65520380251E+02  0.27910139208E+03  0.31368333047E+03  0.12500134332E+03 0.  0.
          2    1    1    2  501    0 -0.51251996935E+02  0.24536061231E+02 -0.23522644634E+02  0.61498782924E+02  0.00000000000E+00 0. -1.
          1    1    1    2  502    0  0.27139993871E+02  0.40984319020E+02  0.23495435904E+04  0.23500577391E+04  0.00000000000E+00 0. -1.
         22    1    3    3    0    0  0.18201651486E+02 -0.10325885558E+03  0.21031771054E+03  0.23500474621E+03  0.00000000000E+00 0. -1.
         22    1    3    3    0    0  0.59103515775E+01  0.37738475324E+02  0.68783681539E+02  0.78678584263E+02  0.00000000000E+00 0. -1.
</event>
<event>
 7    1  0.6382619E-006  0.6202125E+02  0.7818608E-02  0.1435844E+00
          2   -1    0    0  502    0  0.00000000000E+00  0.00000000000E+00  0.18052095998E+04  0.18052095998E+04  0.00000000000E+00 0. -1.
          1   -1    0    0  501    0 -0.00000000000E+00 -0.00000000000E+00 -0.43226809372E+03  0.43226809372E+03  0.00000000000E+00 0. -1.
         25    2    1    2    0    0 -0.63559898494E+02  0.26497744126E+02 -0.19914227297E+03  0.24500057106E+03  0.12500257516E+03 0.  0.
          2    1    1    2  501    0  0.37836573856E+01 -0.43105089165E+02 -0.20742343394E+03  0.21188875790E+03  0.00000000000E+00 0. -1.
          1    1    1    2  502    0  0.59776241109E+02  0.16607345038E+02  0.17795072130E+04  0.17805883646E+04  0.00000000000E+00 0. -1.
         22    1    3    3    0    0  0.23885139470E+02 -0.13253524099E+02 -0.11207831353E+03  0.11535902284E+03  0.00000000000E+00 0.  1.
         22    1    3    3    0    0 -0.87445037964E+02  0.39751268225E+02 -0.87063959444E+02  0.12964154822E+03  0.00000000000E+00 0.  1.
</event>
<event>
 7    1  0.5854318E-006  0.1558392E+03  0.7818608E-02  0.1274255E+00
          2   -1    0    0  502    0  0.00000000000E+00  0.00000000000E+00  0.13247199943E+04  0.13247199943E+04  0.00000000000E+00 0. -1.
          1   -1    0    0  501    0 -0.00000000000E+00 -0.00000000000E+00 -0.68466753504E+03  0.68466753504E+03  0.00000000000E+00 0. -1.
         25    2    1    2    0    0  0.18084286473E+03  0.11659286422E+03  0.12454211472E+03  0.27827317750E+03  0.12500874075E+03 0.  0.
          2    1    1    2  501    0 -0.11453282494E+03 -0.10160693183E+03 -0.59710601957E+03  0.61642301643E+03  0.00000000000E+00 0. -1.
          1    1    1    2  502    0 -0.66310039791E+02 -0.14985932396E+02  0.11126163641E+04  0.11146913354E+04  0.00000000000E+00 0. -1.
         22    1    3    3    0    0  0.19125705170E+03  0.10989519014E+03  0.13783634245E+03  0.26010588217E+03  0.00000000000E+00 0. -1.
         22    1    3    3    0    0 -0.10414186970E+02  0.66976740891E+01 -0.13294227732E+02  0.18167295325E+02  0.00000000000E+00 0. -1.
</event>
<event>
 7    1  0.5854318E-006  0.1417855E+03  0.7818608E-02  0.1405033E+00
          2   -1    0    0  502    0  0.00000000000E+00  0.00000000000E+00  0.10133777226E+04  0.10133777226E+04  0.00000000000E+00 0. -1.
          1   -1    0    0  501    0 -0.00000000000E+00 -0.00000000000E+00 -0.17642621584E+04  0.17642621584E+04  0.00000000000E+00 0. -1.
         25    2    1    2    0    0  0.10604714345E+03 -0.12212651815E+03 -0.20777372775E+03  0.29147113604E+03  0.12499847253E+03 0.  0.
          2    1    1    2  501    0 -0.22620576618E+02  0.79778986787E+01 -0.15094000081E+04  0.15095905808E+04  0.00000000000E+00 0. -1.
          1    1    1    2  502    0 -0.83426566834E+02  0.11414861947E+03  0.96628930001E+03  0.97657816415E+03  0.00000000000E+00 0. -1.
         22    1    3    3    0    0  0.11721171096E+03 -0.51448394076E+02 -0.10155051929E+03  0.16339531941E+03  0.00000000000E+00 0. -1.
         22    1    3    3    0    0 -0.11164567504E+02 -0.70678124073E+02 -0.10622320845E+03  0.12807581663E+03  0.00000000000E+00 0. -1.
</event>
<event>
 7    1  0.5854318E-006  0.1442915E+03  0.7818608E-02  0.1416506E+00
          2   -1    0    0  502    0  0.00000000000E+00  0.00000000000E+00  0.13822745376E+04  0.13822745376E+04  0.00000000000E+00 0. -1.
          1   -1    0    0  501    0 -0.00000000000E+00 -0.00000000000E+00 -0.26093608001E+03  0.26093608001E+03  0.00000000000E+00 0. -1.
         25    2    1    2    0    0  0.73969484906E+02 -0.98939419458E+02 -0.41458168935E+02  0.18056698995E+03  0.12500065867E+03 0.  0.
          2    1    1    2  501    0  0.14085070315E+02 -0.16314206431E+02 -0.14511877915E+03  0.14671060834E+03  0.00000000000E+00 0. -1.
          1    1    1    2  502    0 -0.88054555221E+02  0.11525362589E+03  0.13079154056E+04  0.13159330193E+04  0.00000000000E+00 0. -1.
         22    1    3    3    0    0  0.88054096570E+02 -0.51995691851E+02  0.17661269818E+02  0.10377377484E+03  0.00000000000E+00 0. -1.
         22    1    3    3    0    0 -0.14084611664E+02 -0.46943727607E+02 -0.59119438753E+02  0.76793215103E+02  0.00000000000E+00 0. -1.
</event>
<event>
 7    1  0.5854318E-006  0.7357925E+02  0.7818608E-02  0.1448843E+00
          2   -1    0    0  502    0  0.00000000000E+00  0.00000000000E+00  0.27913965152E+03  0.27913965152E+03  0.00000000000E+00 0. -1.
          1   -1    0    0  501    0 -0.00000000000E+00 -0.00000000000E+00 -0.78471648061E+03  0.78471648061E+03  0.00000000000E+00 0. -1.
         25    2    1    2    0    0  0.35140794530E+02  0.82750822958E+02  0.11087379854E+03  0.18973875933E+03  0.12500089379E+03 0.  0.
          2    1    1    2  501    0 -0.50440826346E+02 -0.53389916416E+02 -0.74131164505E+03  0.74494141731E+03  0.00000000000E+00 0. -1.
          1    1    1    2  502    0  0.15300031816E+02 -0.29360906542E+02  0.12486101742E+03  0.12917595550E+03  0.00000000000E+00 0. -1.
         22    1    3    3    0    0  0.31258891034E+02  0.48955875709E+01 -0.19983918128E+02  0.37422480277E+02  0.00000000000E+00 0.  1.
         22    1    3    3    0    0  0.38819034959E+01  0.77855235387E+02  0.13085771667E+03  0.15231627905E+03  0.00000000000E+00 0.  1.
</event>
<event>
 7    1  0.5854318E-006  0.5941299E+02  0.7818608E-02  0.1503539E+00
          2   -1    0    0  502    0  0.00000000000E+00  0.00000000000E+00  0.80108929425E+03  0.80108929425E+03  0.00000000000E+00 0. -1.
          1   -1    0    0  501    0 -0.00000000000E+00 -0.00000000000E+00 -0.25045021594E+03  0.25045021594E+03  0.00000000000E+00 0. -1.
         25    2    1    2    0    0  0.62252506469E+02  0.58444241104E+02  0.12280639244E+03  0.19492654446E+03  0.12499537523E+03 0.  0.
          2    1    1    2  501    0 -0.15903863785E+02 -0.22803564714E+02 -0.21215058982E+03  0.21396450222E+03  0.00000000000E+00 0. -1.
          1    1    1    2  502    0 -0.46348642684E+02 -0.35640676391E+02  0.63998327569E+03  0.64264846351E+03  0.00000000000E+00 0. -1.
         22    1    3    3    0    0 -0.33628092470E+02  0.10961754244E+02  0.48940582770E+01  0.35706588548E+02  0.00000000000E+00 0.  1.
         22    1    3    3    0    0  0.95880598939E+02  0.47482486861E+02  0.11791233416E+03  0.15921995591E+03  0.00000000000E+00 0.  1.
</event>
<event>
 7    1  0.5854318E-006  0.1850439E+03  0.7818608E-02  0.1277910E+00
          2   -1    0    0  502    0  0.00000000000E+00  0.00000000000E+00  0.98885169894E+03  0.98885169894E+03  0.00000000000E+00 0. -1.
          1   -1    0    0  501    0 -0.00000000000E+00 -0.00000000000E+00 -0.49209284007E+03  0.49209284007E+03  0.00000000000E+00 0. -1.
         25    2    1    2    0    0  0.13123031479E+03  0.79099161032E+02 -0.82324073418E+02  0.21419604518E+03  0.12499847963E+03 0.  0.
          2    1    1    2  501    0 -0.61479690670E+00  0.55280328620E+02 -0.33201068998E+03  0.33658192312E+03  0.00000000000E+00 0. -1.
          1    1    1    2  502    0 -0.13061551788E+03 -0.13437948965E+03  0.91109362227E+03  0.93016657072E+03  0.00000000000E+00 0. -1.
         22    1    3    3    0    0  0.36275984305E+02 -0.24575244783E+02  0.11346085714E+02  0.45261720631E+02  0.00000000000E+00 0.  1.
         22    1    3    3    0    0  0.94954330483E+02  0.10367440581E+03 -0.93670159132E+02  0.16893432455E+03  0.00000000000E+00 0.  1.
</event>
<event>
 7    1  0.5854318E-006  0.1142025E+03  0.7818608E-02  0.1282156E+00
          2   -1    0    0  502    0  0.00000000000E+00  0.00000000000E+00  0.37026178184E+03  0.37026178184E+03  0.00000000000E+00 0. -1.
          1   -1    0    0  501    0 -0.00000000000E+00 -0.00000000000E+00 -0.28615795260E+03  0.28615795260E+03  0.00000000000E+00 0. -1.
         25    2    1    2    0    0 -0.23642724460E+02  0.46086512574E+02  0.18434174836E+03  0.22866881603E+03  0.12499840868E+03 0.  0.
          2    1    1    2  501    0  0.10966974699E+03 -0.46881226763E+02 -0.23749461605E+03  0.26576116248E+03  0.00000000000E+00 0. -1.
          1    1    1    2  502    0 -0.86027022528E+02  0.79471418840E+00  0.13725669693E+03  0.16198975594E+03  0.00000000000E+00 0. -1.
         22    1    3    3    0    0 -0.49419021486E+02 -0.26592709459E+02  0.97774053008E+02  0.11273498713E+03  0.00000000000E+00 0. -1.
         22    1    3    3    0    0  0.25776297026E+02  0.72679222033E+02  0.86567695356E+02  0.11593382890E+03  0.00000000000E+00 0. -1.
</event>
<event>
 7    1  0.5854318E-006  0.6280664E+02  0.7818608E-02  0.1512624E+00
          2   -1    0    0  502    0  0.00000000000E+00  0.00000000000E+00  0.12803444335E+04  0.12803444335E+04  0.00000000000E+00 0. -1.
          1   -1    0    0  501    0 -0.00000000000E+00 -0.00000000000E+00 -0.42587512518E+03  0.42587512518E+03  0.00000000000E+00 0. -1.
         25    2    1    2    0    0 -0.60942113416E+02 -0.25993257812E+02 -0.17779733216E+02  0.14258418520E+03  0.12499816126E+03 0.  0.
          2    1    1    2  501    0  0.16504692024E+02 -0.18409554316E+02 -0.34443970451E+03  0.34532597150E+03  0.00000000000E+00 0. -1.
          1    1    1    2  502    0  0.44437421392E+02  0.44402812129E+02  0.12166887461E+04  0.12183094020E+04  0.00000000000E+00 0. -1.
         22    1    3    3    0    0 -0.96869728552E+02 -0.54098557307E+01  0.12168056350E+01  0.97028302391E+02  0.00000000000E+00 0.  1.
         22    1    3    3    0    0  0.35927615137E+02 -0.20583402082E+02 -0.18996538851E+02  0.45555882814E+02  0.00000000000E+00 0.  1.
</event>
<event>
 7    1  0.5854318E-006  0.4281893E+02  0.7818608E-02  0.1525993E+00
          2   -1    0    0  502    0  0.00000000000E+00  0.00000000000E+00  0.91034221536E+03  0.91034221536E+03  0.00000000000E+00 0. -1.
          1   -1    0    0  501    0 -0.00000000000E+00 -0.00000000000E+00 -0.36496812301E+02  0.36496812301E+02  0.00000000000E+00 0. -1.
         25    2    1    2    0    0  0.52903207240E+02 -0.41941929693E+02  0.24019759703E+03  0.27906635174E+03  0.12500107299E+03 0.  0.
          2    1    1    2  501    0 -0.32792244186E+02  0.49397661835E+01  0.43920401758E+00  0.33165124285E+02  0.00000000000E+00 0. -1.
          1    1    1    2  502    0 -0.20110963054E+02  0.37002163510E+02  0.63320860201E+03  0.63460755164E+03  0.00000000000E+00 0. -1.
         22    1    3    3    0    0  0.85409407848E+02  0.42142984202E+01  0.14977368776E+03  0.17246647444E+03  0.00000000000E+00 0.  1.
         22    1    3    3    0    0 -0.32506200608E+02 -0.46156228113E+02  0.90423909272E+02  0.10659987730E+03  0.00000000000E+00 0.  1.
</event>
<event>
 7    1  0.5854318E-006  0.7888850E+02  0.7818608E-02  0.1458067E+00
          2   -1    0    0  502    0  0.00000000000E+00  0.00000000000E+00  0.70854298972E+03  0.70854298972E+03  0.00000000000E+00 0. -1.
          1   -1    0    0  501    0 -0.00000000000E+00 -0.00000000000E+00 -0.34962206336E+03  0.34962206336E+03  0.00000000000E+00 0. -1.
         25    2    1    2    0    0 -0.53270439792E+02 -0.35113935061E+02  0.10326334202E+03  0.17423813325E+03  0.12499952433E+03 0.  0.
          2    1    1    2  501    0  0.42373603844E+01 -0.28548126866E+02 -0.31062931030E+03  0.31196717646E+03  0.00000000000E+00 0. -1.
          1    1    1    2  502    0  0.49033079407E+02  0.63662061928E+02  0.56628689463E+03  0.57195974337E+03  0.00000000000E+00 0. -1.
         22    1    3    3    0    0 -0.23681506027E+02  0.33564589500E+02  0.89119612870E+02  0.98131038892E+02  0.00000000000E+00 0. -1.
         22    1    3    3    0    0 -0.29588933765E+02 -0.68678524562E+02  0.14143729154E+02  0.76107094359E+02  0.00000000000E+00 0. -1.
</event>
<event>
 7    1  0.5854318E-006  0.1809551E+03  0.7818608E-02  0.1200664E+00
          2   -1    0    0  502    0  0.00000000000E+00  0.00000000000E+00  0.12608069379E+04  0.12608069379E+04  0.00000000000E+00 0. -1.
          1   -1    0    0  501    0 -0.00000000000E+00 -0.00000000000E+00 -0.51432442031E+03  0.51432442031E+03  0.00000000000E+00 0. -1.
         25    2    1    2    0    0  0.11550547755E+02 -0.23554584700E+02  0.29012894914E+03  0.31699973895E+03  0.12500317496E+03 0.  0.
          2    1    1    2  501    0  0.76508646374E+02 -0.16398523484E+03 -0.47275465278E+03  0.50620321210E+03  0.00000000000E+00 0. -1.
          1    1    1    2  502    0 -0.88059194129E+02  0.18753981954E+03  0.92910822120E+03  0.95192840712E+03  0.00000000000E+00 0. -1.
         22    1    3    3    0    0 -0.47143454727E+02 -0.44262429607E+02  0.12986637871E+03  0.14507565032E+03  0.00000000000E+00 0. -1.
         22    1    3    3    0    0  0.58694002482E+02  0.20707844907E+02  0.16026257043E+03  0.17192408862E+03  0.00000000000E+00 0. -1.
</event>
<event>
 7    1  0.5854318E-006  0.5489239E+02  0.7818608E-02  0.1458983E+00
          2   -1    0    0  502    0  0.00000000000E+00  0.00000000000E+00  0.11934050803E+02  0.11934050803E+02  0.00000000000E+00 0. -1.
          1   -1    0    0  501    0 -0.00000000000E+00 -0.00000000000E+00 -0.29362359657E+04  0.29362359657E+04  0.00000000000E+00 0. -1.
         25    2    1    2    0    0 -0.36301093874E+02 -0.23278117995E+02 -0.77211890237E+03  0.78336116751E+03  0.12500991632E+03 0.  0.
          2    1    1    2  501    0  0.54944990484E+02 -0.13464021314E+02 -0.20865397038E+04  0.20873064383E+04  0.00000000000E+00 0. -1.
          1    1    1    2  502    0 -0.18643896610E+02  0.36742139309E+02 -0.65643308744E+02  0.77502410702E+02  0.00000000000E+00 0. -1.
         22    1    3    3    0    0 -0.73296328921E+01 -0.63428693120E+02 -0.62242905384E+03  0.62569549279E+03  0.00000000000E+00 0.  1.
         22    1    3    3    0    0 -0.28971460982E+02  0.40150575125E+02 -0.14968984853E+03  0.15766567472E+03  0.00000000000E+00 0.  1.
</event>
<event>
 7    1  0.5854318E-006  0.8700838E+02  0.7818608E-02  0.1367219E+00
          2   -1    0    0  502    0  0.00000000000E+00  0.00000000000E+00  0.16839218376E+04  0.16839218376E+04  0.00000000000E+00 0. -1.
          1   -1    0    0  501    0 -0.00000000000E+00 -0.00000000000E+00 -0.61207842477E+03  0.61207842477E+03  0.00000000000E+00 0. -1.
         25    2    1    2    0    0 -0.24788392910E+02 -0.11836387378E+03 -0.91434945043E+01  0.17415802367E+03  0.12499177044E+03 0.  0.
          2    1    1    2  501    0  0.41338442728E+02  0.33265158635E+02 -0.51789785956E+03  0.52060890365E+03  0.00000000000E+00 0. -1.
          1    1    1    2  502    0 -0.16550049818E+02  0.85098715140E+02  0.15988847669E+04  0.16012333350E+04  0.00000000000E+00 0. -1.
         22    1    3    3    0    0 -0.43252572179E+02 -0.36860849774E+02 -0.54786808851E+02  0.78937327483E+02  0.00000000000E+00 0. -1.
         22    1    3    3    0    0  0.18464179269E+02 -0.81503024002E+02  0.45643314347E+02  0.95220696186E+02  0.00000000000E+00 0. -1.
</event>
<event>
 7    1  0.5854318E-006  0.4609974E+02  0.7818608E-02  0.1569194E+00
          2   -1    0    0  502    0  0.00000000000E+00  0.00000000000E+00  0.49004363718E+03  0.49004363718E+03  0.00000000000E+00 0. -1.
          1   -1    0    0  501    0 -0.00000000000E+00 -0.00000000000E+00 -0.27547701541E+03  0.27547701541E+03  0.00000000000E+00 0. -1.
         25    2    1    2    0    0 -0.26917088449E+02  0.45568237487E+02 -0.13520957957E+03  0.19159297022E+03  0.12500096765E+03 0.  0.
          2    1    1    2  501    0  0.23313453055E+02  0.38000109081E+00 -0.10969752536E+03  0.11214815453E+03  0.00000000000E+00 0. -1.
          1    1    1    2  502    0  0.36036353936E+01 -0.45948238578E+02  0.45947372669E+03  0.46177952784E+03  0.00000000000E+00 0. -1.
         22    1    3    3    0    0  0.39586149332E+02  0.45019690039E+02 -0.99350462636E+02  0.11603598638E+03  0.00000000000E+00 0. -1.
         22    1    3    3    0    0 -0.66503237781E+02  0.54854744809E+00 -0.35859116931E+02  0.75556983838E+02  0.00000000000E+00 0. -1.
</event>
<event>
 7    1  0.5854318E-006  0.1598681E+03  0.7818608E-02  0.1269593E+00
          2   -1    0    0  502    0  0.00000000000E+00  0.00000000000E+00  0.26696921268E+04  0.26696921268E+04  0.00000000000E+00 0. -1.
          1   -1    0    0  501    0 -0.00000000000E+00 -0.00000000000E+00 -0.77059619678E+03  0.77059619678E+03  0.00000000000E+00 0. -1.
         25    2    1    2    0    0 -0.17835017596E+03 -0.10695055783E+02 -0.61966014397E+03  0.65690803373E+03  0.12500520500E+03 0.  0.
          2    1    1    2  501    0  0.12686497971E+03 -0.35715270009E+02 -0.98918423434E+02  0.16478822192E+03  0.00000000000E+00 0. -1.
          1    1    1    2  502    0  0.51485196254E+02  0.46410325792E+02  0.26176744974E+04  0.26185920679E+04  0.00000000000E+00 0. -1.
         22    1    3    3    0    0 -0.43729952192E+02  0.50780213411E+02 -0.24722099965E+03  0.25614285362E+03  0.00000000000E+00 0. -1.
         22    1    3    3    0    0 -0.13462022377E+03 -0.61475269194E+02 -0.37243914431E+03  0.40076518011E+03  0.00000000000E+00 0. -1.
</event>
<event>
 7    1  0.5854318E-006  0.9644290E+02  0.7818608E-02  0.1309396E+00
          2   -1    0    0  502    0  0.00000000000E+00  0.00000000000E+00  0.20536093446E+04  0.20536093446E+04  0.00000000000E+00 0. -1.
          1   -1    0    0  501    0 -0.00000000000E+00 -0.00000000000E+00 -0.38909376518E+02  0.38909376518E+02  0.00000000000E+00 0. -1.
         25    2    1    2    0    0  0.96014099700E+01 -0.32713461480E+02  0.12219080188E+04  0.12287590142E+04  0.12500860408E+03 0.  0.
          2    1    1    2  501    0  0.44334490270E+02  0.90595825304E+02  0.42735435202E+02  0.10954208329E+03  0.00000000000E+00 0. -1.
          1    1    1    2  502    0 -0.53935900240E+02 -0.57882363823E+02  0.75005651407E+03  0.75421762355E+03  0.00000000000E+00 0. -1.
         22    1    3    3    0    0  0.60064667962E+02 -0.47211296802E+02  0.78443431603E+03  0.78814584123E+03  0.00000000000E+00 0.  1.
         22    1    3    3    0    0 -0.50463257992E+02  0.14497835321E+02  0.43747370276E+03  0.44061317302E+03  0.00000000000E+00 0.  1.
</event>
<event>
 7    1  0.5854318E-006  0.7303580E+02  0.7818608E-02  0.1460172E+00
          2   -1    0    0  502    0  0.00000000000E+00  0.00000000000E+00  0.38719279369E+03  0.38719279369E+03  0.00000000000E+00 0. -1.
          1   -1    0    0  501    0 -0.00000000000E+00 -0.00000000000E+00 -0.77691432176E+02  0.77691432176E+02  0.00000000000E+00 0. -1.
         25    2    1    2    0    0  0.71098048298E+02  0.54126061232E+02  0.16966093901E+03  0.22889786576E+03  0.12499934298E+03 0.  0.
          2    1    1    2  501    0 -0.30553721946E+02  0.29927525805E+01 -0.35641898929E+02  0.47040742469E+02  0.00000000000E+00 0. -1.
          1    1    1    2  502    0 -0.40544326353E+02 -0.57118813813E+02  0.17548232143E+03  0.18894561764E+03  0.00000000000E+00 0. -1.
         22    1    3    3    0    0 -0.23259301739E+02 -0.12602176324E+01  0.91544534934E+02  0.94461553778E+02  0.00000000000E+00 0. -1.
         22    1    3    3    0    0  0.94357350037E+02  0.55386278865E+02  0.78116404080E+02  0.13443631198E+03  0.00000000000E+00 0. -1.
</event>
<event>
 7    1  0.5854318E-006  0.1769299E+03  0.7818608E-02  0.1305681E+00
          2   -1    0    0  502    0  0.00000000000E+00  0.00000000000E+00  0.11257917105E+04  0.11257917105E+04  0.00000000000E+00 0. -1.
          1   -1    0    0  501    0 -0.00000000000E+00 -0.00000000000E+00 -0.77769253809E+03  0.77769253809E+03  0.00000000000E+00 0. -1.
         25    2    1    2    0    0 -0.16762905634E+03  0.13914320676E+03  0.29831418990E+03  0.38996978651E+03  0.12499898390E+03 0.  0.
          2    1    1    2  501    0  0.12645691140E+03 -0.12196962779E+03 -0.72066594745E+03  0.74177311110E+03  0.00000000000E+00 0. -1.
          1    1    1    2  502    0  0.41172144939E+02 -0.17173578977E+02  0.77045092992E+03  0.77174135094E+03  0.00000000000E+00 0. -1.
         22    1    3    3    0    0 -0.99708742675E+02  0.72371210295E+02  0.67968853954E+02  0.14070959652E+03  0.00000000000E+00 0. -1.
         22    1    3    3    0    0 -0.67920313661E+02  0.66771996468E+02  0.23034533594E+03  0.24926018999E+03  0.00000000000E+00 0. -1.
</event>
<event>
 7    1  0.5854318E-006  0.3697230E+02  0.7818608E-02  0.1560533E+00
          2   -1    0    0  502    0  0.00000000000E+00  0.00000000000E+00  0.15301719961E+03  0.15301719961E+03  0.00000000000E+00 0. -1.
          1   -1    0    0  501    0 -0.00000000000E+00 -0.00000000000E+00 -0.93376946430E+03  0.93376946430E+03  0.00000000000E+00 0. -1.
         25    2    1    2    0    0 -0.42743817777E+02 -0.29626110108E+02 -0.31677213248E+03  0.34449318894E+03  0.12500493173E+03 0.  0.
          2    1    1    2  501    0  0.58156231718E+01  0.30146854881E+02 -0.60028713875E+03  0.60107179545E+03  0.00000000000E+00 0. -1.
          1    1    1    2  502    0  0.36928194605E+02 -0.52074477333E+00  0.13630700655E+03  0.14122167952E+03  0.00000000000E+00 0. -1.
         22    1    3    3    0    0  0.29268652336E+02  0.25455285118E+02 -0.53757301663E+02  0.66290821628E+02  0.00000000000E+00 0.  1.
         22    1    3    3    0    0 -0.72012470113E+02 -0.55081395226E+02 -0.26301483081E+03  0.27820236731E+03  0.00000000000E+00 0.  1.
</event>
<event>
 7    1  0.5854318E-006  0.8557610E+02  0.7818608E-02  0.1343677E+00
          2   -1    0    0  502    0  0.00000000000E+00  0.00000000000E+00  0.23329530144E+03  0.23329530144E+03  0.00000000000E+00 0. -1.
          1   -1    0    0  501    0 -0.00000000000E+00 -0.00000000000E+00 -0.10566051258E+04  0.10566051258E+04  0.00000000000E+00 0. -1.
         25    2    1    2    0    0 -0.73196259236E+02 -0.13124039909E+02 -0.17854642029E+03  0.23026073538E+03  0.12494498497E+03 0.  0.
          2    1    1    2  501    0  0.26352560951E+02 -0.60336938374E+02 -0.84171057730E+03  0.84428176549E+03  0.00000000000E+00 0. -1.
          1    1    1    2  502    0  0.46843698286E+02  0.73460978284E+02  0.19694717324E+03  0.21535792636E+03  0.00000000000E+00 0. -1.
         22    1    3    3    0    0 -0.52672057867E+02 -0.61348703340E+02 -0.15043167325E+03  0.17078553041E+03  0.00000000000E+00 0. -1.
         22    1    3    3    0    0 -0.20524201369E+02  0.48224663431E+02 -0.28114747041E+02  0.59475204968E+02  0.00000000000E+00 0. -1.
</event>
<event>
 7    1  0.5854318E-006  0.1259759E+03  0.7818608E-02  0.1395387E+00
          2   -1    0    0  502    0  0.00000000000E+00  0.00000000000E+00  0.19594915524E+04  0.19594915524E+04  0.00000000000E+00 0. -1.
          1   -1    0    0  501    0 -0.00000000000E+00 -0.00000000000E+00 -0.82057611137E+02  0.82057611137E+02  0.00000000000E+00 0. -1.
         25    2    1    2    0    0  0.10712552971E+01  0.14796111207E+03  0.28534985196E+03  0.34488114438E+03  0.12499930985E+03 0.  0.
          2    1    1    2  501    0  0.15398803064E+02 -0.24736983643E+02 -0.45685494463E+02  0.54186768679E+02  0.00000000000E+00 0. -1.
          1    1    1    2  502    0 -0.16470058361E+02 -0.12322412843E+03  0.16377695837E+04  0.16424812504E+04  0.00000000000E+00 0. -1.
         22    1    3    3    0    0 -0.41526291920E+02  0.14421652349E+03  0.20786675140E+03  0.25638140515E+03  0.00000000000E+00 0. -1.
         22    1    3    3    0    0  0.42597547217E+02  0.37445885849E+01  0.77483100557E+02  0.88499739234E+02  0.00000000000E+00 0. -1.
</event>
<event>
 7    1  0.5854318E-006  0.5540504E+02  0.7818608E-02  0.1472624E+00
          2   -1    0    0  502    0  0.00000000000E+00  0.00000000000E+00  0.10078288313E+04  0.10078288313E+04  0.00000000000E+00 0. -1.
          1   -1    0    0  501    0 -0.00000000000E+00 -0.00000000000E+00 -0.22664636626E+03  0.22664636626E+03  0.00000000000E+00 0. -1.
         25    2    1    2    0    0 -0.31074102780E+02 -0.14659535025E+02  0.37325932606E+03  0.39513025422E+03  0.12499956594E+03 0.  0.
          2    1    1    2  501    0  0.26780768652E+01 -0.36902098826E+02 -0.21272147599E+03  0.21591517627E+03  0.00000000000E+00 0. -1.
          1    1    1    2  502    0  0.28396025914E+02  0.51561633851E+02  0.62064461501E+03  0.62342976710E+03  0.00000000000E+00 0. -1.
         22    1    3    3    0    0 -0.67755203800E+02  0.60643480802E+01  0.32036579182E+03  0.32750844955E+03  0.00000000000E+00 0. -1.
         22    1    3    3    0    0  0.36681101020E+02 -0.20723883105E+02  0.52893534235E+02  0.67621804670E+02  0.00000000000E+00 0. -1.
</event>
<event>
 7    1  0.5854318E-006  0.1475995E+03  0.7818608E-02  0.1279587E+00
          2   -1    0    0  502    0  0.00000000000E+00  0.00000000000E+00  0.30374673552E+03  0.30374673552E+03  0.00000000000E+00 0. -1.
          1   -1    0    0  501    0 -0.00000000000E+00 -0.00000000000E+00 -0.13782044193E+04  0.13782044193E+04  0.00000000000E+00 0. -1.
         25    2    1    2    0    0  0.94683217300E+01 -0.14873129200E+03 -0.29636139816E+03  0.35449527717E+03  0.12500470743E+03 0.  0.
          2    1    1    2  501    0  0.65090646051E+02  0.20390568692E+02 -0.10315161804E+04  0.10337689287E+04  0.00000000000E+00 0. -1.
          1    1    1    2  502    0 -0.74558967781E+02  0.12834072331E+03  0.25341989476E+03  0.29368694898E+03  0.00000000000E+00 0. -1.
         22    1    3    3    0    0 -0.38341628189E+02 -0.75959491121E+02 -0.64343493167E+02  0.10667712902E+03  0.00000000000E+00 0. -1.
         22    1    3    3    0    0  0.47809949919E+02 -0.72771800882E+02 -0.23201790499E+03  0.24781814815E+03  0.00000000000E+00 0. -1.
</event>
<event>
 7    1  0.5854318E-006  0.6804643E+02  0.7818608E-02  0.1457970E+00
          2   -1    0    0  502    0  0.00000000000E+00  0.00000000000E+00  0.24257285206E+04  0.24257285206E+04  0.00000000000E+00 0. -1.
          1   -1    0    0  501    0 -0.00000000000E+00 -0.00000000000E+00 -0.95953818841E+02  0.95953818841E+02  0.00000000000E+00 0. -1.
         25    2    1    2    0    0  0.39179337125E+02  0.11210577496E+02  0.33032287749E+03  0.35552618729E+03  0.12499987579E+03 0.  0.
          2    1    1    2  501    0 -0.69189670131E+02  0.36382648775E+01 -0.68795124684E+02  0.97638192345E+02  0.00000000000E+00 0. -1.
          1    1    1    2  502    0  0.30010333006E+02 -0.14848842373E+02  0.20682469489E+04  0.20685179598E+04  0.00000000000E+00 0. -1.
         22    1    3    3    0    0 -0.39230701749E+02 -0.23494223662E+02  0.11515831339E+03  0.12390505901E+03  0.00000000000E+00 0. -1.
         22    1    3    3    0    0  0.78410038875E+02  0.34704801158E+02  0.21516456410E+03  0.23162112827E+03  0.00000000000E+00 0. -1.
</event>
<event>
 7    1  0.5854318E-006  0.1034629E+03  0.7818608E-02  0.1334233E+00
          2   -1    0    0  502    0  0.00000000000E+00  0.00000000000E+00  0.12568537888E+04  0.12568537888E+04  0.00000000000E+00 0. -1.
          1   -1    0    0  501    0 -0.00000000000E+00 -0.00000000000E+00 -0.11300492076E+04  0.11300492076E+04  0.00000000000E+00 0. -1.
         25    2    1    2    0    0 -0.50930847527E+02 -0.13931283587E+03 -0.66237513460E+02  0.20497480584E+03  0.12500098148E+03 0.  0.
          2    1    1    2  501    0  0.46434319612E+02  0.36574292449E+02 -0.99133465317E+03  0.99309527210E+03  0.00000000000E+00 0. -1.
          1    1    1    2  502    0  0.44965279153E+01  0.10273854342E+03  0.11843767478E+04  0.11888329184E+04  0.00000000000E+00 0. -1.
         22    1    3    3    0    0  0.20405483210E+02 -0.10691754457E+03 -0.64674474479E+02  0.12661174010E+03  0.00000000000E+00 0.  1.
         22    1    3    3    0    0 -0.71336330737E+02 -0.32395291303E+02 -0.15630389813E+01  0.78363065742E+02  0.00000000000E+00 0.  1.
</event>
<event>
 7    1  0.5854318E-006  0.2500248E+03  0.7818608E-02  0.1289094E+00
          2   -1    0    0  502    0  0.00000000000E+00  0.00000000000E+00  0.66448840195E+03  0.66448840195E+03  0.00000000000E+00 0. -1.
          1   -1    0    0  501    0 -0.00000000000E+00 -0.00000000000E+00 -0.93505669988E+03  0.93505669988E+03  0.00000000000E+00 0. -1.
         25    2    1    2    0    0 -0.23061344097E+03 -0.13656739471E+03 -0.36514747574E+03  0.46988405335E+03  0.12500052840E+03 0.  0.
          2    1    1    2  501    0  0.21818629587E+03  0.10192157370E+03 -0.48891577983E+03  0.54500633634E+03  0.00000000000E+00 0. -1.
          1    1    1    2  502    0  0.12427145105E+02  0.34645821010E+02  0.58349495763E+03  0.58465471214E+03  0.00000000000E+00 0. -1.
         22    1    3    3    0    0 -0.24238984847E+03 -0.12860356217E+03 -0.36369467134E+03  0.45559360048E+03  0.00000000000E+00 0.  1.
         22    1    3    3    0    0  0.11776407501E+02 -0.79638325456E+01 -0.14528044000E+01  0.14290452865E+02  0.00000000000E+00 0.  1.
</event>
<event>
 7    1  0.5854318E-006  0.4929630E+02  0.7818608E-02  0.1466113E+00
          2   -1    0    0  502    0  0.00000000000E+00  0.00000000000E+00  0.75331731172E+02  0.75331731172E+02  0.00000000000E+00 0. -1.
          1   -1    0    0  501    0 -0.00000000000E+00 -0.00000000000E+00 -0.99069418146E+03  0.99069418146E+03  0.00000000000E+00 0. -1.
         25    2    1    2    0    0  0.63216772658E+02 -0.38860615864E+01 -0.18904660652E+03  0.23531737274E+03  0.12499673858E+03 0.  0.
          2    1    1    2  501    0 -0.29403456526E+02 -0.32153905031E+02 -0.76605547575E+03  0.76729357406E+03  0.00000000000E+00 0. -1.
          1    1    1    2  502    0 -0.33813316132E+02  0.36039966618E+02  0.39739631983E+02  0.63414965835E+02  0.00000000000E+00 0. -1.
         22    1    3    3    0    0  0.46935850074E+02  0.48436512773E+02 -0.44686646160E+02  0.80907145153E+02  0.00000000000E+00 0.  1.
         22    1    3    3    0    0  0.16280922584E+02 -0.52322574360E+02 -0.14435996036E+03  0.15441022758E+03  0.00000000000E+00 0.  1.
</event>
<event>
 7    1  0.5854318E-006  0.5623019E+02  0.7818608E-02  0.1436200E+00
          2   -1    0    0  502    0  0.00000000000E+00  0.00000000000E+00  0.16673573498E+04  0.16673573498E+04  0.00000000000E+00 0. -1.
          1   -1    0    0  501    0 -0.00000000000E+00 -0.00000000000E+00 -0.10400893518E+04  0.10400893518E+04  0.00000000000E+00 0. -1.
         25    2    1    2    0    0 -0.40326543791E+02 -0.87268946858E+01  0.10863398735E+04  0.10942855272E+04  0.12499642226E+03 0.  0.
          2    1    1    2  501    0  0.40662533978E+02 -0.38871624045E+02 -0.10343693528E+04  0.10358978728E+04  0.00000000000E+00 0. -1.
          1    1    1    2  502    0 -0.33599018767E+00  0.47598518731E+02  0.57529747735E+03  0.57726330155E+03  0.00000000000E+00 0. -1.
         22    1    3    3    0    0 -0.91787600081E+01  0.29931642987E+02  0.69403029209E+02  0.76137594856E+02  0.00000000000E+00 0.  1.
         22    1    3    3    0    0 -0.31147783783E+02 -0.38658537673E+02  0.10169368443E+04  0.10181479324E+04  0.00000000000E+00 0.  1.
</event>
<event>
 7    1  0.5854318E-006  0.5700949E+02  0.7818608E-02  0.1552996E+00
          2   -1    0    0  502    0  0.00000000000E+00  0.00000000000E+00  0.31467390575E+03  0.31467390575E+03  0.00000000000E+00 0. -1.
          1   -1    0    0  501    0 -0.00000000000E+00 -0.00000000000E+00 -0.72620992711E+03  0.72620992711E+03  0.00000000000E+00 0. -1.
         25    2    1    2    0    0 -0.39251586076E+02 -0.58368227398E+01  0.11065023937E+03  0.17158841150E+03  0.12499740789E+03 0.  0.
          2    1    1    2  501    0  0.52906191719E+02  0.21646553580E+02 -0.69393271367E+03  0.69628316762E+03  0.00000000000E+00 0. -1.
          1    1    1    2  502    0 -0.13654605643E+02 -0.15809730840E+02  0.17174645294E+03  0.17301225374E+03  0.00000000000E+00 0. -1.
         22    1    3    3    0    0 -0.30095006226E+02  0.41900756437E+01 -0.22461398336E+02  0.37785983498E+02  0.00000000000E+00 0. -1.
         22    1    3    3    0    0 -0.91565798493E+01 -0.10026898383E+02  0.13311163771E+03  0.13380242800E+03  0.00000000000E+00 0. -1.
</event>
<event>
 7    1  0.5854318E-006  0.8412731E+02  0.7818608E-02  0.1473492E+00
          2   -1    0    0  502    0  0.00000000000E+00  0.00000000000E+00  0.73023910543E+03  0.73023910543E+03  0.00000000000E+00 0. -1.
          1   -1    0    0  501    0 -0.00000000000E+00 -0.00000000000E+00 -0.19280600807E+04  0.19280600807E+04  0.00000000000E+00 0. -1.
         25    2    1    2    0    0  0.55484711498E+02  0.89872542012E+02 -0.62719746936E+03  0.64820210178E+03  0.12503468382E+03 0.  0.
          2    1    1    2  501    0 -0.41215723668E+02 -0.70305978125E+02 -0.12888692369E+04  0.12914432145E+04  0.00000000000E+00 0. -1.
          1    1    1    2  502    0 -0.14268987830E+02 -0.19566563887E+02  0.71824573104E+03  0.71865386981E+03  0.00000000000E+00 0. -1.
         22    1    3    3    0    0  0.56936748190E+02 -0.14694715025E+02 -0.20739157707E+03  0.21556668153E+03  0.00000000000E+00 0. -1.
         22    1    3    3    0    0 -0.14520366915E+01  0.10456725704E+03 -0.41980589229E+03  0.43263542025E+03  0.00000000000E+00 0. -1.
</event>
<event>
 7    1  0.5854318E-006  0.1265668E+03  0.7818608E-02  0.1396418E+00
          2   -1    0    0  502    0  0.00000000000E+00  0.00000000000E+00  0.17885324300E+04  0.17885324300E+04  0.00000000000E+00 0. -1.
          1   -1    0    0  501    0 -0.00000000000E+00 -0.00000000000E+00 -0.46423882151E+03  0.46423882151E+03  0.00000000000E+00 0. -1.
         25    2    1    2    0    0 -0.89529894190E+02 -0.83949769279E+02  0.82954507494E+03  0.84784045265E+03  0.12500094431E+03 0.  0.
          2    1    1    2  501    0  0.10963861213E+03  0.63381346004E+02 -0.44605683158E+03  0.46368579587E+03  0.00000000000E+00 0. -1.
          1    1    1    2  502    0 -0.20108717936E+02  0.20568423275E+02  0.94080536519E+03  0.94124500303E+03  0.00000000000E+00 0. -1.
         22    1    3    3    0    0 -0.90437322954E+02 -0.32332453385E+02  0.72403724826E+03  0.73037951354E+03  0.00000000000E+00 0. -1.
         22    1    3    3    0    0  0.90742876444E+00 -0.51617315894E+02  0.10550782668E+03  0.11746093911E+03  0.00000000000E+00 0. -1.
</event>
<event>
 7    1  0.5854318E-006  0.5230133E+02  0.7818608E-02  0.1448601E+00
          2   -1    0    0  502    0  0.00000000000E+00  0.00000000000E+00  0.47167427973E+03  0.47167427973E+03  0.00000000000E+00 0. -1.
          1   -1    0    0  501    0 -0.00000000000E+00 -0.00000000000E+00 -0.57561553812E+03  0.57561553812E+03  0.00000000000E+00 0. -1.
         25    2    1    2    0    0 -0.42472711249E+02  0.25850492072E+02  0.83127993701E+02  0.15813350069E+03  0.12499504615E+03 0.  0.
          2    1    1    2  501    0  0.48412689119E+02  0.20430958151E+02 -0.53526997808E+03  0.53784306442E+03  0.00000000000E+00 0. -1.
          1    1    1    2  502    0 -0.59399778700E+01 -0.46281450223E+02  0.34820072599E+03  0.35131325274E+03  0.00000000000E+00 0. -1.
         22    1    3    3    0    0  0.29475321239E+02  0.29821718970E+02 -0.72434542409E+01  0.42551111781E+02  0.00000000000E+00 0. -1.
         22    1    3    3    0    0 -0.71948032488E+02 -0.39712268977E+01  0.90371447942E+02  0.11558238891E+03  0.00000000000E+00 0. -1.
</event>
<event>
 7    1  0.5854318E-006  0.4709078E+02  0.7818608E-02  0.1478154E+00
          2   -1    0    0  502    0  0.00000000000E+00  0.00000000000E+00  0.33646227107E+03  0.33646227107E+03  0.00000000000E+00 0. -1.
          1   -1    0    0  501    0 -0.00000000000E+00 -0.00000000000E+00 -0.19787391562E+04  0.19787391562E+04  0.00000000000E+00 0. -1.
         25    2    1    2    0    0 -0.83734328866E+01  0.52405502386E+02 -0.16147007540E+03  0.21098303932E+03  0.12499922628E+03 0.  0.
          2    1    1    2  501    0  0.40051990862E+02 -0.25052180339E+02 -0.17907947268E+04  0.17914177422E+04  0.00000000000E+00 0. -1.
          1    1    1    2  502    0 -0.31678557976E+02 -0.27353322047E+02  0.30998791704E+03  0.31280064574E+03  0.00000000000E+00 0. -1.
         22    1    3    3    0    0 -0.52197749726E+02  0.13307646073E+02 -0.19403356214E+02  0.57255469196E+02  0.00000000000E+00 0.  1.
         22    1    3    3    0    0  0.43824316840E+02  0.39097856313E+02 -0.14206671919E+03  0.15372757012E+03  0.00000000000E+00 0.  1.
</event>
<event>
 7    1  0.5854318E-006  0.7482457E+02  0.7818608E-02  0.1371300E+00
          2   -1    0    0  502    0  0.00000000000E+00  0.00000000000E+00  0.13946760275E+03  0.13946760275E+03  0.00000000000E+00 0. -1.
          1   -1    0    0  501    0 -0.00000000000E+00 -0.00000000000E+00 -0.21526080989E+03  0.21526080989E+03  0.00000000000E+00 0. -1.
         25    2    1    2    0    0  0.38559497047E+02  0.20812882107E+02  0.94994811889E+01  0.13280409912E+03  0.12500671072E+03 0.  0.
          2    1    1    2  501    0 -0.23916780559E+02 -0.78636332326E+02 -0.12547844208E+03  0.15000174859E+03  0.00000000000E+00 0. -1.
          1    1    1    2  502    0 -0.14642716488E+02  0.57823450219E+02  0.40185753753E+02  0.71922564930E+02  0.00000000000E+00 0. -1.
         22    1    3    3    0    0 -0.13715811743E+02  0.42734954355E+02  0.46881436812E+02  0.64901994831E+02  0.00000000000E+00 0. -1.
         22    1    3    3    0    0  0.52275308790E+02 -0.21922072247E+02 -0.37381955624E+02  0.67902104290E+02  0.00000000000E+00 0. -1.
</event>
<event>
 7    1  0.5854318E-006  0.4340952E+02  0.7818608E-02  0.1499921E+00
          2   -1    0    0  502    0  0.00000000000E+00  0.00000000000E+00  0.20619467423E+04  0.20619467423E+04  0.00000000000E+00 0. -1.
          1   -1    0    0  501    0 -0.00000000000E+00 -0.00000000000E+00 -0.11577408220E+04  0.11577408220E+04  0.00000000000E+00 0. -1.
         25    2    1    2    0    0  0.20171756658E+01  0.10901936476E+02  0.52431422817E+03  0.53912243145E+03  0.12499866004E+03 0.  0.
          2    1    1    2  501    0  0.37518920219E+02  0.10669736635E+02 -0.11496744917E+04  0.11503360159E+04  0.00000000000E+00 0. -1.
          1    1    1    2  502    0 -0.39536095884E+02 -0.21571673111E+02  0.15295661838E+04  0.15302291170E+04  0.00000000000E+00 0. -1.
         22    1    3    3    0    0 -0.35326923325E+01 -0.46321890916E+02  0.39348698648E+03  0.39621989605E+03  0.00000000000E+00 0. -1.
         22    1    3    3    0    0  0.55498679982E+01  0.57223827392E+02  0.13082724168E+03  0.14290253540E+03  0.00000000000E+00 0. -1.
</event>
<event>
 7    1  0.5854318E-006  0.6546345E+02  0.7818608E-02  0.1417878E+00
          2   -1    0    0  502    0  0.00000000000E+00  0.00000000000E+00  0.19165113243E+03  0.19165113243E+03  0.00000000000E+00 0. -1.
          1   -1    0    0  501    0 -0.00000000000E+00 -0.00000000000E+00 -0.13559953447E+04  0.13559953447E+04  0.00000000000E+00 0. -1.
         25    2    1    2    0    0 -0.11146805163E+03 -0.35398630849E+01 -0.32580561579E+03  0.36634971183E+03  0.12500061963E+03 0.  0.
          2    1    1    2  501    0  0.46820199628E+02  0.41764811541E+01 -0.10032505086E+04  0.10043511125E+04  0.00000000000E+00 0. -1.
          1    1    1    2  502    0  0.64647852003E+02 -0.63661806916E+00  0.16471191214E+03  0.17694565282E+03  0.00000000000E+00 0. -1.
         22    1    3    3    0    0  0.17310322727E+02  0.26736345878E+02 -0.37905681588E+02  0.49510808522E+02  0.00000000000E+00 0.  1.
         22    1    3    3    0    0 -0.12877837436E+03 -0.30276208963E+02 -0.28789993420E+03  0.31683890330E+03  0.00000000000E+00 0.  1.
</event>
<event>
 7    1  0.5854318E-006  0.7343223E+02  0.7818608E-02  0.1359675E+00
          2   -1    0    0  502    0  0.00000000000E+00  0.00000000000E+00  0.22001727346E+04  0.22001727346E+04  0.00000000000E+00 0. -1.
          1   -1    0    0  501    0 -0.00000000000E+00 -0.00000000000E+00 -0.18914178314E+02  0.18914178314E+02  0.00000000000E+00 0. -1.
         25    2    1    2    0    0  0.14654541309E+02  0.48248298900E+02  0.15436383683E+04  0.15495116693E+04  0.12499738978E+03 0.  0.
          2    1    1    2  501    0  0.71309365251E+02  0.17529028920E+02  0.11941908245E+03  0.14018990577E+03  0.00000000000E+00 0. -1.
          1    1    1    2  502    0 -0.85963906560E+02 -0.65777327820E+02  0.51820110562E+03  0.52938533787E+03  0.00000000000E+00 0. -1.
         22    1    3    3    0    0 -0.29311718574E+02 -0.23427392928E+02  0.21773267949E+03  0.22094238910E+03  0.00000000000E+00 0.  1.
         22    1    3    3    0    0  0.43966259883E+02  0.71675691827E+02  0.13259056888E+04  0.13285692802E+04  0.00000000000E+00 0.  1.
</event>
<event>
 7    1  0.5854318E-006  0.4658967E+02  0.7818608E-02  0.1469931E+00
          2   -1    0    0  502    0  0.00000000000E+00  0.00000000000E+00  0.29737600757E+03  0.29737600757E+03  0.00000000000E+00 0. -1.
          1   -1    0    0  501    0 -0.00000000000E+00 -0.00000000000E+00 -0.97722719685E+03  0.97722719685E+03  0.00000000000E+00 0. -1.
         25    2    1    2    0    0 -0.10366695344E+02  0.42752913733E+01 -0.25149525598E+03  0.28107040844E+03  0.12499985693E+03 0.  0.
          2    1    1    2  501    0  0.14494147240E+02  0.42449258253E+02 -0.70828351406E+03  0.70970244195E+03  0.00000000000E+00 0. -1.
          1    1    1    2  502    0 -0.41274518963E+01 -0.46724549626E+02  0.27992758076E+03  0.28383035402E+03  0.00000000000E+00 0. -1.
         22    1    3    3    0    0  0.38591288796E+01  0.17434553434E+01  0.14284086434E+02  0.14898578372E+02  0.00000000000E+00 0.  1.
         22    1    3    3    0    0 -0.14225824223E+02  0.25318360299E+01 -0.26577934241E+03  0.26617183007E+03  0.00000000000E+00 0.  1.
</event>
<event>
 7    1  0.5854318E-006  0.1703510E+03  0.7818608E-02  0.1259594E+00
          2   -1    0    0  502    0  0.00000000000E+00  0.00000000000E+00  0.27072831002E+04  0.27072831002E+04  0.00000000000E+00 0. -1.
          1   -1    0    0  501    0 -0.00000000000E+00 -0.00000000000E+00 -0.13657654603E+03  0.13657654603E+03  0.00000000000E+00 0. -1.
         25    2    1    2    0    0 -0.73434938083E+02 -0.20530702944E+03  0.75520189243E+03  0.79592861412E+03  0.12501517500E+03 0.  0.
          2    1    1    2  501    0  0.13022051263E+02  0.16666562455E+03 -0.55048401103E+02  0.17600378033E+03  0.00000000000E+00 0. -1.
          1    1    1    2  502    0  0.60412886820E+02  0.38641404886E+02  0.18705530628E+04  0.18719272517E+04  0.00000000000E+00 0. -1.
         22    1    3    3    0    0 -0.38214176708E+02 -0.13270611463E+03  0.64336539251E+03  0.65801995748E+03  0.00000000000E+00 0. -1.
         22    1    3    3    0    0 -0.35220761374E+02 -0.72600914804E+02  0.11183649992E+03  0.13790865664E+03  0.00000000000E+00 0. -1.
</event>
<event>
 7    1  0.5854318E-006  0.6221725E+02  0.7818608E-02  0.1503262E+00
          2   -1    0    0  502    0  0.00000000000E+00  0.00000000000E+00  0.12619168378E+04  0.12619168378E+04  0.00000000000E+00 0. -1.
          1   -1    0    0  501    0 -0.00000000000E+00 -0.00000000000E+00 -0.43942625454E+02  0.43942625454E+02  0.00000000000E+00 0. -1.
         25    2    1    2    0    0 -0.50573697050E+02 -0.68396274861E+02  0.30017820468E+03  0.33611888704E+03  0.12503280535E+03 0.  0.
          2    1    1    2  501    0  0.40868673226E+02  0.43631044851E+02  0.88831762869E+01  0.60438624629E+02  0.00000000000E+00 0. -1.
          1    1    1    2  502    0  0.97050238238E+01  0.24765230010E+02  0.90891283143E+03  0.90930195163E+03  0.00000000000E+00 0. -1.
         22    1    3    3    0    0 -0.60146345388E+02 -0.86063630595E+02  0.29794074326E+03  0.31590064556E+03  0.00000000000E+00 0.  1.
         22    1    3    3    0    0  0.95726483377E+01  0.17667355734E+02  0.22374614201E+01  0.20218241477E+02  0.00000000000E+00 0.  1.
</event>
<event>
 7    1  0.5854318E-006  0.1260034E+03  0.7818608E-02  0.1299626E+00
          2   -1    0    0  502    0  0.00000000000E+00  0.00000000000E+00  0.19464602695E+04  0.19464602695E+04  0.00000000000E+00 0. -1.
          1   -1    0    0  501    0 -0.00000000000E+00 -0.00000000000E+00 -0.12340367238E+04  0.12340367238E+04  0.00000000000E+00 0. -1.
         25    2    1    2    0    0 -0.12674253470E+03 -0.12297710606E+03  0.34097039114E+03  0.40382472751E+03  0.12500625661E+03 0.  0.
          2    1    1    2  501    0  0.19730467359E+02  0.63212547759E+02 -0.11993086889E+04  0.12011354831E+04  0.00000000000E+00 0. -1.
          1    1    1    2  502    0  0.10701206734E+03  0.59764558298E+02  0.15707618434E+04  0.15755367827E+04  0.00000000000E+00 0. -1.
         22    1    3    3    0    0 -0.94418144700E+02 -0.14053521699E+03  0.22135460727E+03  0.27868045396E+03  0.00000000000E+00 0.  1.
         22    1    3    3    0    0 -0.32324390003E+02  0.17558110930E+02  0.11961578387E+03  0.12514427354E+03  0.00000000000E+00 0.  1.
</event>
<event>
 7    1  0.5854318E-006  0.1047669E+03  0.7818608E-02  0.1282697E+00
          2   -1    0    0  502    0  0.00000000000E+00  0.00000000000E+00  0.36088973295E+02  0.36088973295E+02  0.00000000000E+00 0. -1.
          1   -1    0    0  501    0 -0.00000000000E+00 -0.00000000000E+00 -0.22545327239E+04  0.22545327239E+04  0.00000000000E+00 0. -1.
         25    2    1    2    0    0  0.18212231722E+02  0.13755247049E+01 -0.38278508992E+03  0.40309167667E+03  0.12499958915E+03 0.  0.
          2    1    1    2  501    0  0.10372300352E+03  0.14752676608E+02 -0.17045197948E+04  0.17077364650E+04  0.00000000000E+00 0. -1.
          1    1    1    2  502    0 -0.12193523524E+03 -0.16128201313E+02 -0.13113886587E+03  0.17979355553E+03  0.00000000000E+00 0. -1.
         22    1    3    3    0    0  0.23170951531E+02  0.39223282111E+02 -0.48146414605E+02  0.66283000036E+02  0.00000000000E+00 0.  1.
         22    1    3    3    0    0 -0.49587198090E+01 -0.37847757406E+02 -0.33463867531E+03  0.33680867664E+03  0.00000000000E+00 0.  1.
</event>
<event>
 7    1  0.5854318E-006  0.6388689E+02  0.7818608E-02  0.1447011E+00
          2   -1    0    0  502    0  0.00000000000E+00  0.00000000000E+00  0.24221712455E+03  0.24221712455E+03  0.00000000000E+00 0. -1.
          1   -1    0    0  501    0 -0.00000000000E+00 -0.00000000000E+00 -0.51117403959E+03  0.51117403959E+03  0.00000000000E+00 0. -1.
         25    2    1    2    0    0 -0.58275101349E+02  0.59031005933E+02  0.34382974316E+02  0.15390823300E+03  0.12499963266E+03 0.  0.
          2    1    1    2  501    0  0.19653120954E+02 -0.60524239356E+02 -0.44659471206E+03  0.45110560355E+03  0.00000000000E+00 0. -1.
          1    1    1    2  502    0  0.38621980395E+02  0.14932334224E+01  0.14325482271E+03  0.14837732759E+03  0.00000000000E+00 0. -1.
         22    1    3    3    0    0 -0.69011810011E+02  0.61154102926E+02 -0.23372586408E+02  0.95124823369E+02  0.00000000000E+00 0. -1.
         22    1    3    3    0    0  0.10736708662E+02 -0.21230969928E+01  0.57755560724E+02  0.58783409634E+02  0.00000000000E+00 0. -1.
</event>
<event>
 7    1  0.5854318E-006  0.6363203E+02  0.7818608E-02  0.1418289E+00
          2   -1    0    0  502    0  0.00000000000E+00  0.00000000000E+00  0.12009363090E+04  0.12009363090E+04  0.00000000000E+00 0. -1.
          1   -1    0    0  501    0 -0.00000000000E+00 -0.00000000000E+00 -0.66576575260E+02  0.66576575260E+02  0.00000000000E+00 0. -1.
         25    2    1    2    0    0 -0.16844789727E+02 -0.83358878728E+01  0.29299098469E+03  0.31909578040E+03  0.12500066397E+03 0.  0.
          2    1    1    2  501    0  0.54942819311E+02  0.37871752461E+02 -0.31798808696E+02  0.73919870555E+02  0.00000000000E+00 0. -1.
          1    1    1    2  502    0 -0.38098029584E+02 -0.29535864588E+02  0.87316755780E+03  0.87449723336E+03  0.00000000000E+00 0. -1.
         22    1    3    3    0    0  0.10527775205E+02 -0.35074522879E+01  0.29101928863E+03  0.29123077212E+03  0.00000000000E+00 0. -1.
         22    1    3    3    0    0 -0.27372564932E+02 -0.48284355849E+01  0.19716960550E+01  0.27865008281E+02  0.00000000000E+00 0. -1.
</event>
<event>
 7    1  0.5854318E-006  0.1068732E+03  0.7818608E-02  0.1281551E+00
          2   -1    0    0  502    0  0.00000000000E+00  0.00000000000E+00  0.22237510377E+03  0.22237510377E+03  0.00000000000E+00 0. -1.
          1   -1    0    0  501    0 -0.00000000000E+00 -0.00000000000E+00 -0.54970135976E+03  0.54970135976E+03  0.00000000000E+00 0. -1.
         25    2    1    2    0    0 -0.22871715686E+02 -0.85856978981E+01 -0.33319598845E+02  0.13168423593E+03  0.12503484610E+03 0.  0.
          2    1    1    2  501    0 -0.45787698593E+02  0.96567961621E+02 -0.44216863927E+03  0.45490107728E+03  0.00000000000E+00 0. -1.
          1    1    1    2  502    0  0.68659414279E+02 -0.87982263723E+02  0.14816198213E+03  0.18549115032E+03  0.00000000000E+00 0. -1.
         22    1    3    3    0    0  0.41278067258E+00 -0.58864149709E+02  0.12031379147E+02  0.60082548157E+02  0.00000000000E+00 0.  1.
         22    1    3    3    0    0 -0.23284496359E+02  0.50278451811E+02 -0.45350977991E+02  0.71601687773E+02  0.00000000000E+00 0.  1.
</event>
<event>
 7    1  0.5854318E-006  0.6416676E+02  0.7818608E-02  0.1529464E+00
          2   -1    0    0  502    0  0.00000000000E+00  0.00000000000E+00  0.72426778300E+03  0.72426778300E+03  0.00000000000E+00 0. -1.
          1   -1    0    0  501    0 -0.00000000000E+00 -0.00000000000E+00 -0.25184765644E+04  0.25184765644E+04  0.00000000000E+00 0. -1.
         25    2    1    2    0    0 -0.45640992466E+02  0.29537095068E+02  0.95314090858E+01  0.13664318066E+03  0.12499988353E+03 0.  0.
          2    1    1    2  501    0  0.39860638010E+02 -0.50377162308E+02 -0.24543207146E+04  0.24551612776E+04  0.00000000000E+00 0. -1.
          1    1    1    2  502    0  0.57803544560E+01  0.20840067240E+02  0.65058052412E+03  0.65093988913E+03  0.00000000000E+00 0. -1.
         22    1    3    3    0    0 -0.68295625988E+02 -0.96349350940E+01  0.42176564446E+02  0.80845451894E+02  0.00000000000E+00 0.  1.
         22    1    3    3    0    0  0.22654633522E+02  0.39172030162E+02 -0.32645155360E+02  0.55797728767E+02  0.00000000000E+00 0.  1.
</event>
<event>
 7    1  0.5854318E-006  0.8705560E+02  0.7818608E-02  0.1441490E+00
          2   -1    0    0  502    0  0.00000000000E+00  0.00000000000E+00  0.75187322908E+03  0.75187322908E+03  0.00000000000E+00 0. -1.
          1   -1    0    0  501    0 -0.00000000000E+00 -0.00000000000E+00 -0.21367850393E+03  0.21367850393E+03  0.00000000000E+00 0. -1.
         25    2    1    2    0    0  0.65543940013E+02 -0.72379928142E+02  0.36626372663E+03  0.39913086740E+03  0.12498587839E+03 0.  0.
          2    1    1    2  501    0 -0.74755789741E+02  0.44300659682E+02 -0.18703764719E+03  0.20623786755E+03  0.00000000000E+00 0. -1.
          1    1    1    2  502    0  0.92118497278E+01  0.28079268460E+02  0.35896864570E+03  0.36018299806E+03  0.00000000000E+00 0. -1.
         22    1    3    3    0    0  0.87448701091E+02 -0.18096571566E+02  0.14533151419E+03  0.17057552650E+03  0.00000000000E+00 0. -1.
         22    1    3    3    0    0 -0.21904761078E+02 -0.54283356576E+02  0.22093221244E+03  0.22855534089E+03  0.00000000000E+00 0. -1.
</event>
<event>
 7    1  0.5854318E-006  0.1155870E+03  0.7818608E-02  0.1300217E+00
          2   -1    0    0  502    0  0.00000000000E+00  0.00000000000E+00  0.42502192319E+03  0.42502192319E+03  0.00000000000E+00 0. -1.
          1   -1    0    0  501    0 -0.00000000000E+00 -0.00000000000E+00 -0.17779871385E+03  0.17779871385E+03  0.00000000000E+00 0. -1.
         25    2    1    2    0    0  0.69282385893E+02 -0.79942170894E+01  0.11834487683E+03  0.18572720944E+03  0.12500051980E+03 0.  0.
          2    1    1    2  501    0  0.71128767425E+02 -0.97635535536E+01 -0.11473820407E+03  0.13534948839E+03  0.00000000000E+00 0. -1.
          1    1    1    2  502    0 -0.14041115332E+03  0.17757770643E+02  0.24361653657E+03  0.28174393922E+03  0.00000000000E+00 0. -1.
         22    1    3    3    0    0  0.84017380950E+02 -0.25571876664E+02  0.27494282212E+02  0.92025956839E+02  0.00000000000E+00 0.  1.
         22    1    3    3    0    0 -0.14734995058E+02  0.17577659575E+02  0.90850594619E+02  0.93701252596E+02  0.00000000000E+00 0.  1.
</event>
<event>
 7    1  0.5854318E-006  0.1229961E+03  0.7818608E-02  0.1262811E+00
          2   -1    0    0  502    0  0.00000000000E+00  0.00000000000E+00  0.45122282892E+03  0.45122282892E+03  0.00000000000E+00 0. -1.
          1   -1    0    0  501    0 -0.00000000000E+00 -0.00000000000E+00 -0.89072499745E+03  0.89072499745E+03  0.00000000000E+00 0. -1.
         25    2    1    2    0    0  0.11437410259E+03 -0.16657613249E+03  0.16912696613E+03  0.29164454338E+03  0.12499426290E+03 0.  0.
          2    1    1    2  501    0 -0.98299971845E+02  0.71687985800E+02 -0.81424222757E+03  0.82328151742E+03  0.00000000000E+00 0. -1.
          1    1    1    2  502    0 -0.16074130746E+02  0.94888146687E+02  0.20561309291E+03  0.22702176556E+03  0.00000000000E+00 0. -1.
         22    1    3    3    0    0  0.57495524288E+02 -0.17001682635E+03  0.14017366116E+03  0.22772815337E+03  0.00000000000E+00 0. -1.
         22    1    3    3    0    0  0.56878578303E+02  0.34406938611E+01  0.28953304966E+02  0.63916390014E+02  0.00000000000E+00 0. -1.
</event>
<event>
 7    1  0.5854318E-006  0.4629322E+02  0.7818608E-02  0.1563781E+00
          2   -1    0    0  502    0  0.00000000000E+00  0.00000000000E+00  0.11651956673E+04  0.11651956673E+04  0.00000000000E+00 0. -1.
          1   -1    0    0  501    0 -0.00000000000E+00 -0.00000000000E+00 -0.25076080454E+03  0.25076080454E+03  0.00000000000E+00 0. -1.
         25    2    1    2    0    0 -0.19684637941E+02 -0.25881252830E+02  0.94602284332E+02  0.16009982817E+03  0.12500015424E+03 0.  0.
          2    1    1    2  501    0  0.42658300084E+02  0.18860208988E+02 -0.21537646099E+03  0.22036891341E+03  0.00000000000E+00 0. -1.
          1    1    1    2  502    0 -0.22973662142E+02  0.70210438418E+01  0.10352090395E+04  0.10354877303E+04  0.00000000000E+00 0. -1.
         22    1    3    3    0    0  0.28062761667E+02  0.21699641278E+02  0.84880403847E+02  0.91994978021E+02  0.00000000000E+00 0.  1.
         22    1    3    3    0    0 -0.47747399608E+02 -0.47580894108E+02  0.97218804854E+01  0.68104850148E+02  0.00000000000E+00 0.  1.
</event>
<event>
 7    1  0.5854318E-006  0.1495973E+03  0.7818608E-02  0.1321029E+00
          2   -1    0    0  502    0  0.00000000000E+00  0.00000000000E+00  0.12748519234E+04  0.12748519234E+04  0.00000000000E+00 0. -1.
          1   -1    0    0  501    0 -0.00000000000E+00 -0.00000000000E+00 -0.10881661403E+04  0.10881661403E+04  0.00000000000E+00 0. -1.
         25    2    1    2    0    0 -0.39062603543E+02 -0.10442587875E+03  0.19151461778E+03  0.25442869321E+03  0.12500183981E+03 0.  0.
          2    1    1    2  501    0 -0.67292124303E+01 -0.45439054323E+02 -0.10503680456E+04  0.10513719709E+04  0.00000000000E+00 0. -1.
          1    1    1    2  502    0  0.45791815973E+02  0.14986493308E+03  0.10455392109E+04  0.10572173996E+04  0.00000000000E+00 0. -1.
         22    1    3    3    0    0 -0.26288750748E+02  0.72562986478E+01 -0.52929739013E+01  0.27780710190E+02  0.00000000000E+00 0. -1.
         22    1    3    3    0    0 -0.12773852795E+02 -0.11168217740E+03  0.19680759168E+03  0.22664798302E+03  0.00000000000E+00 0. -1.
</event>
<event>
 7    1  0.5854318E-006  0.3892647E+02  0.7818608E-02  0.1570039E+00
          2   -1    0    0  502    0  0.00000000000E+00  0.00000000000E+00  0.28935077048E+03  0.28935077048E+03  0.00000000000E+00 0. -1.
          1   -1    0    0  501    0 -0.00000000000E+00 -0.00000000000E+00 -0.81925349350E+02  0.81925349350E+02  0.00000000000E+00 0. -1.
         25    2    1    2    0    0  0.34266251137E+02 -0.45948297774E+02  0.98864723991E+02  0.16937528208E+03  0.12501332127E+03 0.  0.
          2    1    1    2  501    0 -0.82260474112E+01  0.37208847580E+02 -0.37390531387E+02  0.53387433275E+02  0.00000000000E+00 0. -1.
          1    1    1    2  502    0 -0.26040203725E+02  0.87394501949E+01  0.14595122853E+03  0.14851340448E+03  0.00000000000E+00 0. -1.
         22    1    3    3    0    0  0.38429697802E+02 -0.84093026217E+02  0.91929753648E+02  0.13038235439E+03  0.00000000000E+00 0. -1.
         22    1    3    3    0    0 -0.41634466655E+01  0.38144728442E+02  0.69349703429E+01  0.38992927689E+02  0.00000000000E+00 0. -1.
</event>
<event>
 7    1  0.5854318E-006  0.1137570E+03  0.7818608E-02  0.1337491E+00
          2   -1    0    0  502    0  0.00000000000E+00  0.00000000000E+00  0.18776271404E+03  0.18776271404E+03  0.00000000000E+00 0. -1.
          1   -1    0    0  501    0 -0.00000000000E+00 -0.00000000000E+00 -0.95516533628E+03  0.95516533628E+03  0.00000000000E+00 0. -1.
         25    2    1    2    0    0  0.66143919379E+02 -0.42928112756E+02 -0.31708248090E+02  0.15111526462E+03  0.12495026718E+03 0.  0.
          2    1    1    2  501    0 -0.67055650959E+02  0.95174328073E+02 -0.85430514888E+03  0.86220177479E+03  0.00000000000E+00 0. -1.
          1    1    1    2  502    0  0.91173158002E+00 -0.52246215316E+02  0.11861077473E+03  0.12961101092E+03  0.00000000000E+00 0. -1.
         22    1    3    3    0    0 -0.24381291514E+02  0.24676682353E+02 -0.53751026098E+01  0.35103813979E+02  0.00000000000E+00 0.  1.
         22    1    3    3    0    0  0.90525210892E+02 -0.67604795109E+02 -0.26333145480E+02  0.11601145064E+03  0.00000000000E+00 0.  1.
</event>
<event>
 7    1  0.5854318E-006  0.4460388E+02  0.7818608E-02  0.1510876E+00
          2   -1    0    0  502    0  0.00000000000E+00  0.00000000000E+00  0.14830210743E+03  0.14830210743E+03  0.00000000000E+00 0. -1.
          1   -1    0    0  501    0 -0.00000000000E+00 -0.00000000000E+00 -0.16986248764E+03  0.16986248764E+03  0.00000000000E+00 0. -1.
         25    2    1    2    0    0 -0.44137722128E+02  0.59933843390E+02 -0.70021456898E+02  0.16145558373E+03  0.12499878797E+03 0.  0.
          2    1    1    2  501    0  0.29710797908E+02 -0.18929863142E+02 -0.42913888103E+02  0.55521824745E+02  0.00000000000E+00 0. -1.
          1    1    1    2  502    0  0.14426924220E+02 -0.41003980248E+02  0.91374964793E+02  0.10118718659E+03  0.00000000000E+00 0. -1.
         22    1    3    3    0    0  0.17100256237E+02  0.36688076909E+02  0.23856652237E+02  0.46984823152E+02  0.00000000000E+00 0. -1.
         22    1    3    3    0    0 -0.61237978364E+02  0.23245766481E+02 -0.93878109134E+02  0.11447076058E+03  0.00000000000E+00 0. -1.
</event>
<event>
 7    1  0.5854318E-006  0.6742283E+02  0.7818608E-02  0.1374898E+00
          2   -1    0    0  502    0  0.00000000000E+00  0.00000000000E+00  0.26216700699E+04  0.26216700699E+04  0.00000000000E+00 0. -1.
          1   -1    0    0  501    0 -0.00000000000E+00 -0.00000000000E+00 -0.93538212029E+02  0.93538212029E+02  0.00000000000E+00 0. -1.
         25    2    1    2    0    0  0.58308008854E+02 -0.37109426672E+02  0.94260370864E+02  0.17117862182E+03  0.12506066371E+03 0.  0.
          2    1    1    2  501    0 -0.40063064070E+01  0.71476273534E+02 -0.31220538753E+02  0.78100129381E+02  0.00000000000E+00 0. -1.
          1    1    1    2  502    0 -0.54301702447E+02 -0.34366846862E+02  0.24650920258E+04  0.24659295307E+04  0.00000000000E+00 0. -1.
         22    1    3    3    0    0  0.26278927805E+02 -0.10949512577E+02  0.11942363133E+03  0.12277001911E+03  0.00000000000E+00 0.  1.
         22    1    3    3    0    0  0.32029081049E+02 -0.26159914095E+02 -0.25163260471E+02  0.48408602705E+02  0.00000000000E+00 0.  1.
</event>
<event>
 7    1  0.5854318E-006  0.2235440E+03  0.7818608E-02  0.1305219E+00
          2   -1    0    0  502    0  0.00000000000E+00  0.00000000000E+00  0.10394483045E+04  0.10394483045E+04  0.00000000000E+00 0. -1.
          1   -1    0    0  501    0 -0.00000000000E+00 -0.00000000000E+00 -0.89633313332E+03  0.89633313332E+03  0.00000000000E+00 0. -1.
         25    2    1    2    0    0  0.14941776565E+03 -0.16554293110E+03  0.74263110079E+02  0.26621405422E+03  0.12499912966E+03 0.  0.
          2    1    1    2  501    0 -0.17436442735E+03  0.14034630560E+03 -0.78433296514E+03  0.81564590309E+03  0.00000000000E+00 0. -1.
          1    1    1    2  502    0  0.24946661691E+02  0.25196625498E+02  0.85318502624E+03  0.85392148050E+03  0.00000000000E+00 0. -1.
         22    1    3    3    0    0  0.17022255414E+03 -0.12914818155E+03  0.64103565738E+02  0.22307899470E+03  0.00000000000E+00 0.  1.
         22    1    3    3    0    0 -0.20804788487E+02 -0.36394749550E+02  0.10159544341E+02  0.43135059523E+02  0.00000000000E+00 0.  1.
</event>
<event>
 7    1  0.5854318E-006  0.9189658E+02  0.7818608E-02  0.1396944E+00
          2   -1    0    0  502    0  0.00000000000E+00  0.00000000000E+00  0.41073570943E+03  0.41073570943E+03  0.00000000000E+00 0. -1.
          1   -1    0    0  501    0 -0.00000000000E+00 -0.00000000000E+00 -0.16411935842E+04  0.16411935842E+04  0.00000000000E+00 0. -1.
         25    2    1    2    0    0  0.67470874000E+02  0.74721971705E+02 -0.50137221584E+03  0.52643965169E+03  0.12501566367E+03 0.  0.
          2    1    1    2  501    0 -0.29856972623E+02 -0.86623502905E+02 -0.11244424732E+04  0.11281692894E+04  0.00000000000E+00 0. -1.
          1    1    1    2  502    0 -0.37613901377E+02  0.11901531200E+02  0.39535681422E+03  0.39732035257E+03  0.00000000000E+00 0. -1.
         22    1    3    3    0    0  0.50648287081E+01 -0.20118742635E+02 -0.24714397597E+03  0.24801322778E+03  0.00000000000E+00 0. -1.
         22    1    3    3    0    0  0.62406045292E+02  0.94840714340E+02 -0.25422823986E+03  0.27842642391E+03  0.00000000000E+00 0. -1.
</event>
<event>
 7    1  0.5854318E-006  0.8215381E+02  0.7818608E-02  0.1418164E+00
          2   -1    0    0  502    0  0.00000000000E+00  0.00000000000E+00  0.18854974623E+04  0.18854974623E+04  0.00000000000E+00 0. -1.
          1   -1    0    0  501    0 -0.00000000000E+00 -0.00000000000E+00 -0.29949239780E+02  0.29949239780E+02  0.00000000000E+00 0. -1.
         25    2    1    2    0    0 -0.59566698128E+02  0.91052158270E+02  0.46799515124E+03  0.49647098101E+03  0.12500114538E+03 0.  0.
          2    1    1    2  501    0 -0.70345142727E-01 -0.37373888207E+02  0.94650481935E+01  0.38553853315E+02  0.00000000000E+00 0. -1.
          1    1    1    2  502    0  0.59637043271E+02 -0.53678270064E+02  0.13780880231E+04  0.13804218677E+04  0.00000000000E+00 0. -1.
         22    1    3    3    0    0 -0.94439468762E+02  0.70546961242E+02  0.27364584941E+03  0.29795593282E+03  0.00000000000E+00 0.  1.
         22    1    3    3    0    0  0.34872770634E+02  0.20505197028E+02  0.19434930183E+03  0.19851504819E+03  0.00000000000E+00 0.  1.
</event>
<event>
 7    1  0.5854318E-006  0.9407777E+02  0.7818608E-02  0.1369621E+00
          2   -1    0    0  502    0  0.00000000000E+00  0.00000000000E+00  0.39551132207E+03  0.39551132207E+03  0.00000000000E+00 0. -1.
          1   -1    0    0  501    0 -0.00000000000E+00 -0.00000000000E+00 -0.88763244637E+03  0.88763244637E+03  0.00000000000E+00 0. -1.
         25    2    1    2    0    0 -0.45064122151E+02 -0.13237403231E+03 -0.18177397297E+03  0.26116660394E+03  0.12495022299E+03 0.  0.
          2    1    1    2  501    0  0.73535012145E+01  0.47539529959E+02 -0.65921497636E+03  0.66096782520E+03  0.00000000000E+00 0. -1.
          1    1    1    2  502    0  0.37710620936E+02  0.84834502352E+02  0.34886782504E+03  0.36100933931E+03  0.00000000000E+00 0. -1.
         22    1    3    3    0    0 -0.36384010191E+02 -0.28852807917E+01  0.15778186313E+01  0.36532322052E+02  0.00000000000E+00 0.  1.
         22    1    3    3    0    0 -0.86801119595E+01 -0.12948875152E+03 -0.18335179160E+03  0.22463428189E+03  0.00000000000E+00 0.  1.
</event>
<event>
 7    1  0.5854318E-006  0.4582236E+02  0.7818608E-02  0.1531231E+00
          2   -1    0    0  502    0  0.00000000000E+00  0.00000000000E+00  0.12032826077E+04  0.12032826077E+04  0.00000000000E+00 0. -1.
          1   -1    0    0  501    0 -0.00000000000E+00 -0.00000000000E+00 -0.12572130273E+02  0.12572130273E+02  0.00000000000E+00 0. -1.
         25    2    1    2    0    0 -0.87133797097E+01 -0.30315576320E+02  0.91409315237E+03  0.92313921134E+03  0.12499902061E+03 0.  0.
          2    1    1    2  501    0 -0.24254766776E+02 -0.17543194624E+02  0.45952520519E+02  0.54842424555E+02  0.00000000000E+00 0. -1.
          1    1    1    2  502    0  0.32968146486E+02  0.47858770944E+02  0.23066480454E+03  0.23787310208E+03  0.00000000000E+00 0. -1.
         22    1    3    3    0    0 -0.22127987830E+02 -0.56031505977E+02  0.85687015858E+03  0.85898524212E+03  0.00000000000E+00 0.  1.
         22    1    3    3    0    0  0.13414608120E+02  0.25715929657E+02  0.57222993790E+02  0.64153969226E+02  0.00000000000E+00 0.  1.
</event>
<event>
 7    1  0.5854318E-006  0.1883852E+03  0.7818608E-02  0.1327020E+00
          2   -1    0    0  502    0  0.00000000000E+00  0.00000000000E+00  0.87108767121E+03  0.87108767121E+03  0.00000000000E+00 0. -1.
          1   -1    0    0  501    0 -0.00000000000E+00 -0.00000000000E+00 -0.10161719373E+04  0.10161719373E+04  0.00000000000E+00 0. -1.
         25    2    1    2    0    0 -0.45658294907E+02 -0.18115251575E+03  0.18492615078E+03  0.29107586442E+03  0.12500625483E+03 0.  0.
          2    1    1    2  501    0  0.11795411496E+02  0.18819494776E+03 -0.95338336621E+03  0.97185200163E+03  0.00000000000E+00 0. -1.
          1    1    1    2  502    0  0.33862883412E+02 -0.70424320100E+01  0.62337294933E+03  0.62433174249E+03  0.00000000000E+00 0. -1.
         22    1    3    3    0    0 -0.73390822823E+02 -0.52624592999E+02  0.52494565316E+02  0.10445688130E+03  0.00000000000E+00 0. -1.
         22    1    3    3    0    0  0.27732527916E+02 -0.12852792275E+03  0.13243158546E+03  0.18661898312E+03  0.00000000000E+00 0. -1.
</event>
<event>
 7    1  0.5854318E-006  0.1383984E+03  0.7818608E-02  0.1319037E+00
          2   -1    0    0  502    0  0.00000000000E+00  0.00000000000E+00  0.18055101886E+04  0.18055101886E+04  0.00000000000E+00 0. -1.
          1   -1    0    0  501    0 -0.00000000000E+00 -0.00000000000E+00 -0.25021233623E+04  0.25021233623E+04  0.00000000000E+00 0. -1.
         25    2    1    2    0    0 -0.45108030632E+02  0.85843908806E+02 -0.87807085830E+02  0.18094981181E+03  0.12501535492E+03 0.  0.
          2    1    1    2  501    0  0.11233991148E+02  0.49278988038E+02 -0.23647162968E+04  0.23652563890E+04  0.00000000000E+00 0. -1.
          1    1    1    2  502    0  0.33874039484E+02 -0.13512289684E+03  0.17559102090E+04  0.17614273501E+04  0.00000000000E+00 0. -1.
         22    1    3    3    0    0 -0.32274902969E+02  0.39141716196E+02 -0.11479460180E+03  0.12550515492E+03  0.00000000000E+00 0.  1.
         22    1    3    3    0    0 -0.12833127662E+02  0.46702192610E+02  0.26987515969E+02  0.55444656897E+02  0.00000000000E+00 0.  1.
</event>
<event>
 7    1  0.5854318E-006  0.1195840E+03  0.7818608E-02  0.1338212E+00
          2   -1    0    0  502    0  0.00000000000E+00  0.00000000000E+00  0.13243814169E+04  0.13243814169E+04  0.00000000000E+00 0. -1.
          1   -1    0    0  501    0 -0.00000000000E+00 -0.00000000000E+00 -0.11883880443E+04  0.11883880443E+04  0.00000000000E+00 0. -1.
         25    2    1    2    0    0 -0.13962018320E+03 -0.40278783584E+02 -0.63937406975E+03  0.66748821917E+03  0.12500058280E+03 0.  0.
          2    1    1    2  501    0  0.93766396737E+02  0.58650949469E+02 -0.52876792173E+03  0.54021068675E+03  0.00000000000E+00 0. -1.
          1    1    1    2  502    0  0.45853786463E+02 -0.18372165885E+02  0.13041353642E+04  0.13050705553E+04  0.00000000000E+00 0. -1.
         22    1    3    3    0    0 -0.99949636633E+02 -0.35031189686E+02 -0.20014554100E+03  0.22644061406E+03  0.00000000000E+00 0.  1.
         22    1    3    3    0    0 -0.39670546567E+02 -0.52475938980E+01 -0.43922852875E+03  0.44104760511E+03  0.00000000000E+00 0.  1.
</event>
<event>
 7    1  0.5854318E-006  0.7597268E+02  0.7818608E-02  0.1432478E+00
          2   -1    0    0  502    0  0.00000000000E+00  0.00000000000E+00  0.67342476563E+02  0.67342476563E+02  0.00000000000E+00 0. -1.
          1   -1    0    0  501    0 -0.00000000000E+00 -0.00000000000E+00 -0.10045229951E+04  0.10045229951E+04  0.00000000000E+00 0. -1.
         25    2    1    2    0    0 -0.90833388506E+02 -0.54829391688E+02 -0.50806802291E+03  0.53386826409E+03  0.12500096333E+03 0.  0.
          2    1    1    2  501    0  0.61135932472E+02  0.34072581845E+02 -0.47466218729E+03  0.47979447174E+03  0.00000000000E+00 0. -1.
          1    1    1    2  502    0  0.29697456034E+02  0.20756809844E+02  0.45549691654E+02  0.58202735842E+02  0.00000000000E+00 0. -1.
         22    1    3    3    0    0  0.12471187000E+02 -0.28805717165E+02 -0.27810905616E+02  0.41937409526E+02  0.00000000000E+00 0. -1.
         22    1    3    3    0    0 -0.10330457551E+03 -0.26023674524E+02 -0.48025711730E+03  0.49193085456E+03  0.00000000000E+00 0. -1.
</event>
<event>
 7    1  0.5854318E-006  0.3208214E+03  0.7818608E-02  0.1192389E+00
          2   -1    0    0  502    0  0.00000000000E+00  0.00000000000E+00  0.20889826746E+04  0.20889826746E+04  0.00000000000E+00 0. -1.
          1   -1    0    0  501    0 -0.00000000000E+00 -0.00000000000E+00 -0.41034556710E+03  0.41034556710E+03  0.00000000000E+00 0. -1.
         25    2    1    2    0    0 -0.13298675889E+03 -0.21758785599E+03  0.50015585886E+02  0.28837689850E+03  0.12501889314E+03 0.  0.
          2    1    1    2  501    0 -0.17639697238E+02 -0.74550775170E+02 -0.27176178363E+03  0.28235340274E+03  0.00000000000E+00 0. -1.
          1    1    1    2  502    0  0.15062645613E+03  0.29213863116E+03  0.19003833052E+04  0.19285979404E+04  0.00000000000E+00 0. -1.
         22    1    3    3    0    0 -0.12684066727E+03 -0.23400734373E+03  0.43668214401E+02  0.26973117125E+03  0.00000000000E+00 0.  1.
         22    1    3    3    0    0 -0.61460916213E+01  0.16419487742E+02  0.63473714848E+01  0.18645727250E+02  0.00000000000E+00 0.  1.
</event>
<event>
 7    1  0.5854318E-006  0.2030786E+03  0.7818608E-02  0.1194293E+00
          2   -1    0    0  502    0  0.00000000000E+00  0.00000000000E+00  0.10761326381E+04  0.10761326381E+04  0.00000000000E+00 0. -1.
          1   -1    0    0  501    0 -0.00000000000E+00 -0.00000000000E+00 -0.30670937877E+03  0.30670937877E+03  0.00000000000E+00 0. -1.
         25    2    1    2    0    0 -0.21798889034E+03  0.65502993021E+02 -0.19666774445E+03  0.32575062370E+03  0.12500187489E+03 0.  0.
          2    1    1    2  501    0  0.15636055021E+03  0.35735123138E+02  0.11395381833E+03  0.19675134917E+03  0.00000000000E+00 0. -1.
          1    1    1    2  502    0  0.61628340135E+02 -0.10123811616E+03  0.85213718542E+03  0.86034004396E+03  0.00000000000E+00 0. -1.
         22    1    3    3    0    0 -0.98571388264E+02 -0.20409207337E+02 -0.33576856361E+02  0.10611437043E+03  0.00000000000E+00 0.  1.
         22    1    3    3    0    0 -0.11941750208E+03  0.85912200358E+02 -0.16309088809E+03  0.21963625327E+03  0.00000000000E+00 0.  1.
</event>
<event>
 7    1  0.5854318E-006  0.8405060E+02  0.7818608E-02  0.1493051E+00
          2   -1    0    0  502    0  0.00000000000E+00  0.00000000000E+00  0.56958542669E+03  0.56958542669E+03  0.00000000000E+00 0. -1.
          1   -1    0    0  501    0 -0.00000000000E+00 -0.00000000000E+00 -0.36128349067E+03  0.36128349067E+03  0.00000000000E+00 0. -1.
         25    2    1    2    0    0  0.81842021820E+02 -0.19337418469E+02  0.18081599004E+01  0.15066737688E+03  0.12500134690E+03 0.  0.
          2    1    1    2  501    0 -0.73300435835E+01 -0.19811707736E+02 -0.28286706822E+03  0.28365474011E+03  0.00000000000E+00 0. -1.
          1    1    1    2  502    0 -0.74511978236E+02  0.39149126205E+02  0.48936084434E+03  0.49654680037E+03  0.00000000000E+00 0. -1.
         22    1    3    3    0    0  0.26316745962E+02  0.31160605086E+02 -0.46157047086E+02  0.61595676984E+02  0.00000000000E+00 0. -1.
         22    1    3    3    0    0  0.55525275857E+02 -0.50498023555E+02  0.47965206987E+02  0.89071699901E+02  0.00000000000E+00 0. -1.
</event>
<event>
 7    1  0.5854318E-006  0.3027929E+02  0.7818608E-02  0.1608694E+00
          2   -1    0    0  502    0  0.00000000000E+00  0.00000000000E+00  0.27492245509E+03  0.27492245509E+03  0.00000000000E+00 0. -1.
          1   -1    0    0  501    0 -0.00000000000E+00 -0.00000000000E+00 -0.14628959793E+04  0.14628959793E+04  0.00000000000E+00 0. -1.
         25    2    1    2    0    0 -0.22292524237E+02 -0.51215372441E+02 -0.65061631430E+03  0.66486644208E+03  0.12500330542E+03 0.  0.
          2    1    1    2  501    0  0.32633639791E+01  0.27702125942E+02 -0.80405781247E+03  0.80454149869E+03  0.00000000000E+00 0. -1.
          1    1    1    2  502    0  0.19029160258E+02  0.23513246499E+02  0.26670060253E+03  0.26841049363E+03  0.00000000000E+00 0. -1.
         22    1    3    3    0    0  0.48347803898E+02 -0.50323559448E+01 -0.31882836417E+03  0.32251257425E+03  0.00000000000E+00 0.  1.
         22    1    3    3    0    0 -0.70640328136E+02 -0.46183016496E+02 -0.33178795012E+03  0.34235386783E+03  0.00000000000E+00 0.  1.
</event>
<event>
 7    1  0.5854318E-006  0.7536393E+02  0.7818608E-02  0.1410054E+00
          2   -1    0    0  502    0  0.00000000000E+00  0.00000000000E+00  0.16884221276E+04  0.16884221276E+04  0.00000000000E+00 0. -1.
          1   -1    0    0  501    0 -0.00000000000E+00 -0.00000000000E+00 -0.33669307727E+03  0.33669307727E+03  0.00000000000E+00 0. -1.
         25    2    1    2    0    0 -0.20922447852E+02 -0.41555874044E+02  0.81596316783E+03  0.82679198874E+03  0.12499784752E+03 0.  0.
          2    1    1    2  501    0 -0.23359437056E+00 -0.43385458532E+02 -0.32763553839E+03  0.33049568620E+03  0.00000000000E+00 0. -1.
          1    1    1    2  502    0  0.21156042223E+02  0.84941332576E+02  0.86340142092E+03  0.86782752995E+03  0.00000000000E+00 0. -1.
         22    1    3    3    0    0 -0.70459865220E+02 -0.12455985318E+02  0.34531982262E+03  0.35265496462E+03  0.00000000000E+00 0.  1.
         22    1    3    3    0    0  0.49537417368E+02 -0.29099888726E+02  0.47064334521E+03  0.47413702411E+03  0.00000000000E+00 0.  1.
</event>
<event>
 7    1  0.5854318E-006  0.1218174E+03  0.7818608E-02  0.1331673E+00
          2   -1    0    0  502    0  0.00000000000E+00  0.00000000000E+00  0.64277176645E+03  0.64277176645E+03  0.00000000000E+00 0. -1.
          1   -1    0    0  501    0 -0.00000000000E+00 -0.00000000000E+00 -0.12347988429E+03  0.12347988429E+03  0.00000000000E+00 0. -1.
         25    2    1    2    0    0 -0.60624526757E+02 -0.14171982802E+03  0.24884937969E+03  0.31829313818E+03  0.12499866057E+03 0.  0.
          2    1    1    2  501    0  0.15699679820E+02  0.11686820055E+03 -0.46595543896E+02  0.12679038196E+03  0.00000000000E+00 0. -1.
          1    1    1    2  502    0  0.44924846937E+02  0.24851627463E+02  0.31703804637E+03  0.32116813059E+03  0.00000000000E+00 0. -1.
         22    1    3    3    0    0 -0.64594891082E+02 -0.12320240200E+03  0.26102451979E+03  0.29577885615E+03  0.00000000000E+00 0.  1.
         22    1    3    3    0    0  0.39703643250E+01 -0.18517426014E+02 -0.12175140101E+02  0.22514282034E+02  0.00000000000E+00 0.  1.
</event>
<event>
 7    1  0.5854318E-006  0.1053201E+03  0.7818608E-02  0.1362990E+00
          2   -1    0    0  502    0  0.00000000000E+00  0.00000000000E+00  0.40978757526E+03  0.40978757526E+03  0.00000000000E+00 0. -1.
          1   -1    0    0  501    0 -0.00000000000E+00 -0.00000000000E+00 -0.10214826862E+04  0.10214826862E+04  0.00000000000E+00 0. -1.
         25    2    1    2    0    0 -0.75608775116E+02  0.48731092914E+01 -0.62204520124E+02  0.15885187158E+03  0.12499632279E+03 0.  0.
          2    1    1    2  501    0 -0.27584923259E+02 -0.36069442845E+02 -0.90233260571E+03  0.90347444016E+03  0.00000000000E+00 0. -1.
          1    1    1    2  502    0  0.10319369837E+03  0.31196333554E+02  0.35284201485E+03  0.36894394975E+03  0.00000000000E+00 0. -1.
         22    1    3    3    0    0 -0.10312977913E+03  0.48509040839E+01 -0.15163016281E+02  0.10435132810E+03  0.00000000000E+00 0.  1.
         22    1    3    3    0    0  0.27521004016E+02  0.22205207497E-01 -0.47041503844E+02  0.54500543474E+02  0.00000000000E+00 0.  1.
</event>
<event>
 7    1  0.5854318E-006  0.1065629E+03  0.7818608E-02  0.1400669E+00
          2   -1    0    0  502    0  0.00000000000E+00  0.00000000000E+00  0.50185737940E+03  0.50185737940E+03  0.00000000000E+00 0. -1.
          1   -1    0    0  501    0 -0.00000000000E+00 -0.00000000000E+00 -0.19921090233E+03  0.19921090233E+03  0.00000000000E+00 0. -1.
         25    2    1    2    0    0  0.42589977625E+02  0.12290529012E+03 -0.78283296415E+02  0.19665322504E+03  0.12499839954E+03 0.  0.
          2    1    1    2  501    0 -0.27415048922E+02 -0.18425596600E+02 -0.50451193525E+02  0.60302657035E+02  0.00000000000E+00 0. -1.
          1    1    1    2  502    0 -0.15174928704E+02 -0.10447969352E+03  0.43138096701E+03  0.44411239964E+03  0.00000000000E+00 0. -1.
         22    1    3    3    0    0  0.38225507289E+02 -0.83681772293E+01  0.74083110819E+01  0.39825856810E+02  0.00000000000E+00 0.  1.
         22    1    3    3    0    0  0.43644703368E+01  0.13127346735E+03 -0.85691607497E+02  0.15682736823E+03  0.00000000000E+00 0.  1.
</event>
<event>
 7    1  0.5854318E-006  0.1678476E+03  0.7818608E-02  0.1253202E+00
          2   -1    0    0  502    0  0.00000000000E+00  0.00000000000E+00  0.10941192201E+04  0.10941192201E+04  0.00000000000E+00 0. -1.
          1   -1    0    0  501    0 -0.00000000000E+00 -0.00000000000E+00 -0.11505309659E+04  0.11505309659E+04  0.00000000000E+00 0. -1.
         25    2    1    2    0    0  0.23489435651E+03  0.59252385369E+02 -0.18143538295E+03  0.32746047572E+03  0.12500144432E+03 0.  0.
          2    1    1    2  501    0 -0.77114806237E+02 -0.80232112082E+01 -0.88764460585E+03  0.89102413635E+03  0.00000000000E+00 0. -1.
          1    1    1    2  502    0 -0.15777955027E+03 -0.51229174161E+02  0.10126682430E+04  0.10261655740E+04  0.00000000000E+00 0. -1.
         22    1    3    3    0    0 -0.23933497116E+01  0.31718361638E+02 -0.96974357052E+01  0.33253914763E+02  0.00000000000E+00 0.  1.
         22    1    3    3    0    0  0.23728770622E+03  0.27534023731E+02 -0.17173794725E+03  0.29420656096E+03  0.00000000000E+00 0.  1.
</event>
<event>
 7    1  0.5854318E-006  0.3688741E+02  0.7818608E-02  0.1541649E+00
          2   -1    0    0  502    0  0.00000000000E+00  0.00000000000E+00  0.66575442121E+03  0.66575442121E+03  0.00000000000E+00 0. -1.
          1   -1    0    0  501    0 -0.00000000000E+00 -0.00000000000E+00 -0.49036113608E+03  0.49036113608E+03  0.00000000000E+00 0. -1.
         25    2    1    2    0    0 -0.57747489981E+02  0.31887779335E+02 -0.90519185326E+02  0.16783986726E+03  0.12499958024E+03 0.  0.
          2    1    1    2  501    0  0.21224642953E+02 -0.27496898164E+02 -0.35980501548E+03  0.36147781957E+03  0.00000000000E+00 0. -1.
          1    1    1    2  502    0  0.36522847028E+02 -0.43908811710E+01  0.62571748594E+03  0.62679787045E+03  0.00000000000E+00 0. -1.
         22    1    3    3    0    0 -0.91367299907E+02  0.47591486366E+02 -0.56481855418E+02  0.11748673567E+03  0.00000000000E+00 0. -1.
         22    1    3    3    0    0  0.33619809926E+02 -0.15703707031E+02 -0.34037329908E+02  0.50353131593E+02  0.00000000000E+00 0. -1.
</event>
<event>
 7    1  0.5854318E-006  0.7264586E+02  0.7818608E-02  0.1440753E+00
          2   -1    0    0  502    0  0.00000000000E+00  0.00000000000E+00  0.73818381892E+03  0.73818381892E+03  0.00000000000E+00 0. -1.
          1   -1    0    0  501    0 -0.00000000000E+00 -0.00000000000E+00 -0.40681960368E+03  0.40681960368E+03  0.00000000000E+00 0. -1.
         25    2    1    2    0    0  0.82414808736E+02  0.47666330703E+02  0.15527140045E+03  0.22092040962E+03  0.12502935578E+03 0.  0.
          2    1    1    2  501    0 -0.70961232351E+02 -0.13949976012E+02 -0.36991361574E+03  0.37691667705E+03  0.00000000000E+00 0. -1.
          1    1    1    2  502    0 -0.11453576385E+02 -0.33716354691E+02  0.54600643053E+03  0.54716633592E+03  0.00000000000E+00 0. -1.
         22    1    3    3    0    0  0.27439917793E+02 -0.60280223420E+01 -0.16613881994E+02  0.32639044360E+02  0.00000000000E+00 0. -1.
         22    1    3    3    0    0  0.54974890943E+02  0.53694353045E+02  0.17188528244E+03  0.18828136526E+03  0.00000000000E+00 0. -1.
</event>
<event>
 7    1  0.5854318E-006  0.1371423E+03  0.7818608E-02  0.1391137E+00
          2   -1    0    0  502    0  0.00000000000E+00  0.00000000000E+00  0.16516291751E+04  0.16516291751E+04  0.00000000000E+00 0. -1.
          1   -1    0    0  501    0 -0.00000000000E+00 -0.00000000000E+00 -0.86413232671E+03  0.86413232671E+03  0.00000000000E+00 0. -1.
         25    2    1    2    0    0 -0.43270941339E+02  0.10772103529E+03  0.36230638018E+02  0.17439040983E+03  0.12499264018E+03 0.  0.
          2    1    1    2  501    0 -0.24695806136E+02  0.12526343562E+02 -0.79172533521E+03  0.79220944108E+03  0.00000000000E+00 0. -1.
          1    1    1    2  502    0  0.67966747475E+02 -0.12024737886E+03  0.15429915456E+04  0.15491616509E+04  0.00000000000E+00 0. -1.
         22    1    3    3    0    0 -0.27836255721E+02  0.12683948014E+03  0.57380313269E+02  0.14197045892E+03  0.00000000000E+00 0. -1.
         22    1    3    3    0    0 -0.15434685618E+02 -0.19118444849E+02 -0.21149675251E+02  0.32419950907E+02  0.00000000000E+00 0. -1.
</event>
<event>
 7    1  0.5854318E-006  0.2589241E+02  0.7818608E-02  0.1656556E+00
          2   -1    0    0  502    0  0.00000000000E+00  0.00000000000E+00  0.81503491126E+03  0.81503491126E+03  0.00000000000E+00 0. -1.
          1   -1    0    0  501    0 -0.00000000000E+00 -0.00000000000E+00 -0.13384073954E+03  0.13384073954E+03  0.00000000000E+00 0. -1.
         25    2    1    2    0    0  0.32994836042E+02  0.14730601846E+02  0.17332844031E+03  0.21670070284E+03  0.12494317329E+03 0.  0.
          2    1    1    2  501    0 -0.22993609073E+02  0.91443239243E+01 -0.11051562834E+03  0.11325205882E+03  0.00000000000E+00 0. -1.
          1    1    1    2  502    0 -0.10001226969E+02 -0.23874925770E+02  0.61838135975E+03  0.61892288914E+03  0.00000000000E+00 0. -1.
         22    1    3    3    0    0  0.13740562842E+02 -0.55239965391E+02  0.86329853985E+02  0.10340744912E+03  0.00000000000E+00 0.  1.
         22    1    3    3    0    0  0.19254273200E+02  0.69970567237E+02  0.86998586327E+02  0.11329325372E+03  0.00000000000E+00 0.  1.
</event>
<event>
 7    1  0.5854318E-006  0.7729562E+02  0.7818608E-02  0.1431859E+00
          2   -1    0    0  502    0  0.00000000000E+00  0.00000000000E+00  0.70724330409E+03  0.70724330409E+03  0.00000000000E+00 0. -1.
          1   -1    0    0  501    0 -0.00000000000E+00 -0.00000000000E+00 -0.85044331567E+02  0.85044331567E+02  0.00000000000E+00 0. -1.
         25    2    1    2    0    0  0.68619629379E+02 -0.47192269956E+02  0.53049613569E+03  0.55134926820E+03  0.12499640668E+03 0.  0.
          2    1    1    2  501    0 -0.76384208160E+02  0.12265830485E+02 -0.51760076073E+02  0.93081165274E+02  0.00000000000E+00 0. -1.
          1    1    1    2  502    0  0.77645787812E+01  0.34926439471E+02  0.14346291291E+03  0.14785720219E+03  0.00000000000E+00 0. -1.
         22    1    3    3    0    0  0.10039041432E+03 -0.10599115540E+02  0.33099012525E+03  0.34604196213E+03  0.00000000000E+00 0. -1.
         22    1    3    3    0    0 -0.31770784943E+02 -0.36593154416E+02  0.19950601044E+03  0.20530730607E+03  0.00000000000E+00 0. -1.
</event>
<event>
 7    1  0.5854318E-006  0.7329077E+02  0.7818608E-02  0.1396329E+00
          2   -1    0    0  502    0  0.00000000000E+00  0.00000000000E+00  0.49139654038E+03  0.49139654038E+03  0.00000000000E+00 0. -1.
          1   -1    0    0  501    0 -0.00000000000E+00 -0.00000000000E+00 -0.13503896529E+03  0.13503896529E+03  0.00000000000E+00 0. -1.
         25    2    1    2    0    0  0.32374736970E+02  0.39111243136E+02  0.20870941301E+03  0.24852003487E+03  0.12499910288E+03 0.  0.
          2    1    1    2  501    0 -0.74188040066E+02 -0.12227524787E+02 -0.10012023683E+03  0.12520958220E+03  0.00000000000E+00 0. -1.
          1    1    1    2  502    0  0.41813303096E+02 -0.26883718349E+02  0.24776839892E+03  0.25270588860E+03  0.00000000000E+00 0. -1.
         22    1    3    3    0    0 -0.12164764679E+02  0.30016354706E+01 -0.13859745485E+02  0.18683786022E+02  0.00000000000E+00 0. -1.
         22    1    3    3    0    0  0.44539501649E+02  0.36109607666E+02  0.22256915849E+03  0.22983624885E+03  0.00000000000E+00 0. -1.
</event>
<event>
 7    1  0.5854318E-006  0.1150753E+03  0.7818608E-02  0.1352886E+00
          2   -1    0    0  502    0  0.00000000000E+00  0.00000000000E+00  0.10832923243E+04  0.10832923243E+04  0.00000000000E+00 0. -1.
          1   -1    0    0  501    0 -0.00000000000E+00 -0.00000000000E+00 -0.86942328280E+03  0.86942328280E+03  0.00000000000E+00 0. -1.
         25    2    1    2    0    0  0.82648494636E+02 -0.29536639321E+02  0.23554260846E+03  0.28072626543E+03  0.12499491580E+03 0.  0.
          2    1    1    2  501    0 -0.88428062375E+02  0.74419851270E+02 -0.84226163292E+03  0.85015439466E+03  0.00000000000E+00 0. -1.
          1    1    1    2  502    0  0.57795677390E+01 -0.44883211949E+02  0.82058806600E+03  0.82183494704E+03  0.00000000000E+00 0. -1.
         22    1    3    3    0    0  0.10750808072E+03  0.20434550687E+01  0.20000387392E+03  0.22707644684E+03  0.00000000000E+00 0.  1.
         22    1    3    3    0    0 -0.24859586083E+02 -0.31580094390E+02  0.35538734544E+02  0.53649818591E+02  0.00000000000E+00 0.  1.
</event>
<event>
 7    1  0.5854318E-006  0.1654444E+03  0.7818608E-02  0.1201922E+00
          2   -1    0    0  502    0  0.00000000000E+00  0.00000000000E+00  0.36557442214E+04  0.36557442214E+04  0.00000000000E+00 0. -1.
          1   -1    0    0  501    0 -0.00000000000E+00 -0.00000000000E+00 -0.25076032636E+03  0.25076032636E+03  0.00000000000E+00 0. -1.
         25    2    1    2    0    0  0.85495812044E+02 -0.65504609238E+02  0.87054770416E+02  0.18655754192E+03  0.12499918274E+03 0.  0.
          2    1    1    2  501    0 -0.35833887293E+02  0.18983062529E+03 -0.15300303848E+03  0.24643389288E+03  0.00000000000E+00 0. -1.
          1    1    1    2  502    0 -0.49661924751E+02 -0.12432601605E+03  0.34709321631E+04  0.34735131129E+04  0.00000000000E+00 0. -1.
         22    1    3    3    0    0 -0.14750802711E+02 -0.57706663956E+02  0.54867225744E+02  0.80981835657E+02  0.00000000000E+00 0. -1.
         22    1    3    3    0    0  0.10024661476E+03 -0.77979452819E+01  0.32187544672E+02  0.10557570626E+03  0.00000000000E+00 0. -1.
</event>
<event>
 7    1  0.5854318E-006  0.4411006E+02  0.7818608E-02  0.1580593E+00
          2   -1    0    0  502    0  0.00000000000E+00  0.00000000000E+00  0.86469450020E+02  0.86469450020E+02  0.00000000000E+00 0. -1.
          1   -1    0    0  501    0 -0.00000000000E+00 -0.00000000000E+00 -0.37432375438E+03  0.37432375438E+03  0.00000000000E+00 0. -1.
         25    2    1    2    0    0  0.17310655320E+02  0.17140603150E+02 -0.74483564890E+02  0.14753387004E+03  0.12499992923E+03 0.  0.
          2    1    1    2  501    0  0.83622102280E+01  0.21105186994E+02 -0.25207434777E+03  0.25309451254E+03  0.00000000000E+00 0. -1.
          1    1    1    2  502    0 -0.25672865548E+02 -0.38245790144E+02  0.38703608293E+02  0.60164821816E+02  0.00000000000E+00 0. -1.
         22    1    3    3    0    0  0.75075229765E+01 -0.53759535873E+02 -0.43412306312E+02  0.69505963326E+02  0.00000000000E+00 0.  1.
         22    1    3    3    0    0  0.98031323436E+01  0.70900139023E+02 -0.31071258578E+02  0.78027906719E+02  0.00000000000E+00 0.  1.
</event>
<event>
 7    1  0.5854318E-006  0.6110879E+02  0.7818608E-02  0.1430117E+00
          2   -1    0    0  502    0  0.00000000000E+00  0.00000000000E+00  0.18643486190E+03  0.18643486190E+03  0.00000000000E+00 0. -1.
          1   -1    0    0  501    0 -0.00000000000E+00 -0.00000000000E+00 -0.17512780395E+04  0.17512780395E+04  0.00000000000E+00 0. -1.
         25    2    1    2    0    0  0.91695418748E+02  0.43885439771E+02 -0.53343988647E+03  0.55723871757E+03  0.12499157667E+03 0.  0.
          2    1    1    2  501    0 -0.31949171009E+02 -0.32895616920E+02 -0.12002015596E+04  0.12010772893E+04  0.00000000000E+00 0. -1.
          1    1    1    2  502    0 -0.59746247739E+02 -0.10989822850E+02  0.16879826849E+03  0.17939689454E+03  0.00000000000E+00 0. -1.
         22    1    3    3    0    0  0.42487020322E+01  0.69777543323E+02 -0.23369225508E+03  0.24392422410E+03  0.00000000000E+00 0. -1.
         22    1    3    3    0    0  0.87446716716E+02 -0.25892103552E+02 -0.29974763139E+03  0.31331449347E+03  0.00000000000E+00 0. -1.
</event>
<event>
 7    1  0.5854318E-006  0.2635656E+02  0.7818608E-02  0.1664716E+00
          2   -1    0    0  502    0  0.00000000000E+00  0.00000000000E+00  0.85940930069E+03  0.85940930069E+03  0.00000000000E+00 0. -1.
          1   -1    0    0  501    0 -0.00000000000E+00 -0.00000000000E+00 -0.16580728158E+04  0.16580728158E+04  0.00000000000E+00 0. -1.
         25    2    1    2    0    0  0.32838071396E+02 -0.12809389764E+02 -0.25246116116E+02  0.13230572239E+03  0.12500007360E+03 0.  0.
          2    1    1    2  501    0 -0.80579446833E+01  0.21786419659E+02 -0.15789959559E+04  0.15791668079E+04  0.00000000000E+00 0. -1.
          1    1    1    2  502    0 -0.24780126712E+02 -0.89770298947E+01  0.80557855687E+03  0.80600958620E+03  0.00000000000E+00 0. -1.
         22    1    3    3    0    0  0.58890130597E+02  0.38010140372E+02 -0.56842667868E+00  0.70093804018E+02  0.00000000000E+00 0.  1.
         22    1    3    3    0    0 -0.26052059201E+02 -0.50819530136E+02 -0.24677689437E+02  0.62211918374E+02  0.00000000000E+00 0.  1.
</event>
<event>
 7    1  0.5854318E-006  0.1158987E+03  0.7818608E-02  0.1321433E+00
          2   -1    0    0  502    0  0.00000000000E+00  0.00000000000E+00  0.20551474326E+04  0.20551474326E+04  0.00000000000E+00 0. -1.
          1   -1    0    0  501    0 -0.00000000000E+00 -0.00000000000E+00 -0.29726876074E+03  0.29726876074E+03  0.00000000000E+00 0. -1.
         25    2    1    2    0    0 -0.88234810923E+02 -0.23290240384E+02 -0.18235405323E+03  0.23917738471E+03  0.12500001390E+03 0.  0.
          2    1    1    2  501    0 -0.23806462528E+02  0.54068316485E+02 -0.74543488676E+02  0.95114994662E+02  0.00000000000E+00 0. -1.
          1    1    1    2  502    0  0.11204127345E+03 -0.30778076101E+02  0.20147762138E+04  0.20181238139E+04  0.00000000000E+00 0. -1.
         22    1    3    3    0    0  0.16554368075E+02 -0.31543634712E+02 -0.94941762125E+01  0.36867158490E+02  0.00000000000E+00 0. -1.
         22    1    3    3    0    0 -0.10478917900E+03  0.82533943275E+01 -0.17285987701E+03  0.20231022622E+03  0.00000000000E+00 0. -1.
</event>
<event>
 7    1  0.5854318E-006  0.6174150E+02  0.7818608E-02  0.1452765E+00
          2   -1    0    0  502    0  0.00000000000E+00  0.00000000000E+00  0.20025741697E+03  0.20025741697E+03  0.00000000000E+00 0. -1.
          1   -1    0    0  501    0 -0.00000000000E+00 -0.00000000000E+00 -0.32151247687E+03  0.32151247687E+03  0.00000000000E+00 0. -1.
         25    2    1    2    0    0  0.60722614977E+02  0.33509101780E+02  0.11380907815E+03  0.18272286089E+03  0.12500016700E+03 0.  0.
          2    1    1    2  501    0 -0.28787005251E+02 -0.54712221803E+02 -0.27607359701E+03  0.28291120489E+03  0.00000000000E+00 0. -1.
          1    1    1    2  502    0 -0.31935609726E+02  0.21203120023E+02  0.41009458956E+02  0.56135828053E+02  0.00000000000E+00 0. -1.
         22    1    3    3    0    0  0.33155473790E+02  0.40209059422E+02 -0.12229064586E+02  0.53531335894E+02  0.00000000000E+00 0. -1.
         22    1    3    3    0    0  0.27567141187E+02 -0.66999576428E+01  0.12603814274E+03  0.12919152500E+03  0.00000000000E+00 0. -1.
</event>
<event>
 7    1  0.5854318E-006  0.1924200E+03  0.7818608E-02  0.1184887E+00
          2   -1    0    0  502    0  0.00000000000E+00  0.00000000000E+00  0.64370938828E+03  0.64370938828E+03  0.00000000000E+00 0. -1.
          1   -1    0    0  501    0 -0.00000000000E+00 -0.00000000000E+00 -0.11767397414E+04  0.11767397414E+04  0.00000000000E+00 0. -1.
         25    2    1    2    0    0 -0.45301780121E+02  0.59428017410E+02 -0.38360867433E+03  0.41033909167E+03  0.12505444652E+03 0.  0.
          2    1    1    2  501    0 -0.13811345859E+03  0.13721369774E+02 -0.75784277982E+03  0.77044745593E+03  0.00000000000E+00 0. -1.
          1    1    1    2  502    0  0.18341523871E+03 -0.73149387184E+02  0.60842110107E+03  0.63966258204E+03  0.00000000000E+00 0. -1.
         22    1    3    3    0    0 -0.69011827640E+02  0.85727745791E+02 -0.29952805186E+03  0.31910645968E+03  0.00000000000E+00 0.  1.
         22    1    3    3    0    0  0.23710047519E+02 -0.26299728381E+02 -0.84080622468E+02  0.91232631996E+02  0.00000000000E+00 0.  1.
</event>
<event>
 7    1  0.5854318E-006  0.8542940E+02  0.7818608E-02  0.1407123E+00
          2   -1    0    0  502    0  0.00000000000E+00  0.00000000000E+00  0.31558814223E+04  0.31558814223E+04  0.00000000000E+00 0. -1.
          1   -1    0    0  501    0 -0.00000000000E+00 -0.00000000000E+00 -0.19650541213E+02  0.19650541213E+02  0.00000000000E+00 0. -1.
         25    2    1    2    0    0  0.52447516807E+02 -0.39397907106E+02  0.66141144941E+03  0.67630856652E+03  0.12500093855E+03 0.  0.
          2    1    1    2  501    0 -0.47654061015E+02  0.78265099425E+02  0.16236146073E+03  0.18643384684E+03  0.00000000000E+00 0. -1.
          1    1    1    2  502    0 -0.47934557925E+01 -0.38867192318E+02  0.23124579709E+04  0.23127895501E+04  0.00000000000E+00 0. -1.
         22    1    3    3    0    0 -0.10294978469E+02  0.30306397824E+02  0.33974721437E+03  0.34125156996E+03  0.00000000000E+00 0. -1.
         22    1    3    3    0    0  0.62742495277E+02 -0.69704304930E+02  0.32166423504E+03  0.33505699655E+03  0.00000000000E+00 0. -1.
</event>
<event>
 7    1  0.5854318E-006  0.3421360E+02  0.7818608E-02  0.1611644E+00
          2   -1    0    0  502    0  0.00000000000E+00  0.00000000000E+00  0.15738554851E+04  0.15738554851E+04  0.00000000000E+00 0. -1.
          1   -1    0    0  501    0 -0.00000000000E+00 -0.00000000000E+00 -0.20721124734E+04  0.20721124734E+04  0.00000000000E+00 0. -1.
         25    2    1    2    0    0  0.15973279630E+02 -0.20982149048E+02 -0.13542047192E+03  0.18617003799E+03  0.12500073034E+03 0.  0.
          2    1    1    2  501    0 -0.33980035658E+02  0.47285625481E+01 -0.19110682497E+04  0.19113761684E+04  0.00000000000E+00 0. -1.
          1    1    1    2  502    0  0.18006756028E+02  0.16253586500E+02  0.15482317333E+04  0.15484217521E+04  0.00000000000E+00 0. -1.
         22    1    3    3    0    0 -0.88806024174E+01  0.50846549514E+02 -0.58896023502E+02  0.78313333993E+02  0.00000000000E+00 0.  1.
         22    1    3    3    0    0  0.24853882048E+02 -0.71828698561E+02 -0.76524448422E+02  0.10785670399E+03  0.00000000000E+00 0.  1.
</event>
<event>
 7    1  0.5854318E-006  0.1660187E+03  0.7818608E-02  0.1209696E+00
          2   -1    0    0  502    0  0.00000000000E+00  0.00000000000E+00  0.13810928449E+04  0.13810928449E+04  0.00000000000E+00 0. -1.
          1   -1    0    0  501    0 -0.00000000000E+00 -0.00000000000E+00 -0.49830314371E+03  0.49830314371E+03  0.00000000000E+00 0. -1.
         25    2    1    2    0    0  0.18484853007E+02 -0.14256408180E+03 -0.58215695733E+01  0.19059195056E+03  0.12500077493E+03 0.  0.
          2    1    1    2  501    0  0.10421687096E+03  0.14446190431E+03 -0.37715412189E+03  0.41710385955E+03  0.00000000000E+00 0. -1.
          1    1    1    2  502    0 -0.12270172397E+03 -0.18978225014E+01  0.12657653926E+04  0.12717001785E+04  0.00000000000E+00 0. -1.
         22    1    3    3    0    0 -0.88370122559E+01 -0.13578856272E+03 -0.44130469149E+02  0.14305287435E+03  0.00000000000E+00 0. -1.
         22    1    3    3    0    0  0.27321865263E+02 -0.67755190828E+01  0.38308899576E+02  0.47539076211E+02  0.00000000000E+00 0. -1.
</event>
<event>
 7    1  0.5854318E-006  0.1619998E+03  0.7818608E-02  0.1267279E+00
          2   -1    0    0  502    0  0.00000000000E+00  0.00000000000E+00  0.69917133672E+03  0.69917133672E+03  0.00000000000E+00 0. -1.
          1   -1    0    0  501    0 -0.00000000000E+00 -0.00000000000E+00 -0.30034247999E+03  0.30034247999E+03  0.00000000000E+00 0. -1.
         25    2    1    2    0    0  0.82341729990E+02  0.11905590594E+03  0.23007957386E+03  0.29919209353E+03  0.12499931714E+03 0.  0.
          2    1    1    2  501    0  0.65314582253E+02 -0.25054261624E+02 -0.24302245827E+03  0.25289054135E+03  0.00000000000E+00 0. -1.
          1    1    1    2  502    0 -0.14765631224E+03 -0.94001644317E+02  0.41177174113E+03  0.44743118183E+03  0.00000000000E+00 0. -1.
         22    1    3    3    0    0  0.47569790093E+02  0.12994557495E+03  0.11974355526E+03  0.18299523602E+03  0.00000000000E+00 0.  1.
         22    1    3    3    0    0  0.34771939897E+02 -0.10889669006E+02  0.11033601860E+03  0.11619685752E+03  0.00000000000E+00 0.  1.
</event>
<event>
 7    1  0.5854318E-006  0.1031968E+03  0.7818608E-02  0.1314024E+00
          2   -1    0    0  502    0  0.00000000000E+00  0.00000000000E+00  0.44570264891E+03  0.44570264891E+03  0.00000000000E+00 0. -1.
          1   -1    0    0  501    0 -0.00000000000E+00 -0.00000000000E+00 -0.35342445255E+03  0.35342445255E+03  0.00000000000E+00 0. -1.
         25    2    1    2    0    0  0.12659893066E+03  0.13620368334E+02  0.18628661886E+03  0.25795446360E+03  0.12499998898E+03 0.  0.
          2    1    1    2  501    0 -0.49512831783E+02  0.50755261744E+02 -0.30199507106E+03  0.31020741457E+03  0.00000000000E+00 0. -1.
          1    1    1    2  502    0 -0.77086098873E+02 -0.64375630078E+02  0.20798664857E+03  0.23096522329E+03  0.00000000000E+00 0. -1.
         22    1    3    3    0    0  0.18756120180E+02  0.54059629288E+02  0.95370723539E+02  0.11121964966E+03  0.00000000000E+00 0. -1.
         22    1    3    3    0    0  0.10784281048E+03 -0.40439260954E+02  0.90915895323E+02  0.14673481393E+03  0.00000000000E+00 0. -1.
</event>
<event>
 7    1  0.5854318E-006  0.7060844E+02  0.7818608E-02  0.1466284E+00
          2   -1    0    0  502    0  0.00000000000E+00  0.00000000000E+00  0.34772593991E+04  0.34772593991E+04  0.00000000000E+00 0. -1.
          1   -1    0    0  501    0 -0.00000000000E+00 -0.00000000000E+00 -0.56602579759E+03  0.56602579759E+03  0.00000000000E+00 0. -1.
         25    2    1    2    0    0 -0.84565456486E+02 -0.49015188994E+02  0.72053572072E+03  0.73780132396E+03  0.12500105445E+03 0.  0.
          2    1    1    2  501    0  0.20658911312E+02  0.22277760071E+02 -0.55654201470E+03  0.55737070549E+03  0.00000000000E+00 0. -1.
          1    1    1    2  502    0  0.63906545174E+02  0.26737428923E+02  0.27472398955E+04  0.27481131672E+04  0.00000000000E+00 0. -1.
         22    1    3    3    0    0  0.13417375928E+02  0.11572323140E+02  0.15887993917E+02  0.23798592192E+02  0.00000000000E+00 0.  1.
         22    1    3    3    0    0 -0.97982832414E+02 -0.60587512134E+02  0.70464772681E+03  0.71400273177E+03  0.00000000000E+00 0.  1.
</event>
<event>
 7    1  0.5854318E-006  0.9422094E+02  0.7818608E-02  0.1381139E+00
          2   -1    0    0  502    0  0.00000000000E+00  0.00000000000E+00  0.47803630196E+03  0.47803630196E+03  0.00000000000E+00 0. -1.
          1   -1    0    0  501    0 -0.00000000000E+00 -0.00000000000E+00 -0.22244837693E+04  0.22244837693E+04  0.00000000000E+00 0. -1.
         25    2    1    2    0    0 -0.96174754244E+01  0.12240697279E+03  0.20690342649E+03  0.27112658999E+03  0.12499854834E+03 0.  0.
          2    1    1    2  501    0 -0.18902757763E+02 -0.39396892973E+02 -0.21840883338E+04  0.21845254128E+04  0.00000000000E+00 0. -1.
          1    1    1    2  502    0  0.28520233187E+02 -0.83010079818E+02  0.23073743993E+03  0.24686806849E+03  0.00000000000E+00 0. -1.
         22    1    3    3    0    0  0.21356186879E+02  0.13818007048E+03  0.15601769448E+03  0.20950260043E+03  0.00000000000E+00 0. -1.
         22    1    3    3    0    0 -0.30973662303E+02 -0.15773097691E+02  0.50885732016E+02  0.61623989566E+02  0.00000000000E+00 0. -1.
</event>
<event>
 7    1  0.5854318E-006  0.1993846E+03  0.7818608E-02  0.1338638E+00
          2   -1    0    0  502    0  0.00000000000E+00  0.00000000000E+00  0.10421026606E+04  0.10421026606E+04  0.00000000000E+00 0. -1.
          1   -1    0    0  501    0 -0.00000000000E+00 -0.00000000000E+00 -0.36953010169E+03  0.36953010169E+03  0.00000000000E+00 0. -1.
         25    2    1    2    0    0 -0.10487679813E+03 -0.19621319540E+03  0.39384421395E+02  0.25821547786E+03  0.12500135810E+03 0.  0.
          2    1    1    2  501    0  0.24742507448E+02  0.16096617070E+02 -0.24835358017E+03  0.25010156645E+03  0.00000000000E+00 0. -1.
          1    1    1    2  502    0  0.80134290682E+02  0.18011657833E+03  0.88154171763E+03  0.90331571793E+03  0.00000000000E+00 0. -1.
         22    1    3    3    0    0 -0.11729154860E+03 -0.89700314563E+02  0.28991187733E+02  0.15047904429E+03  0.00000000000E+00 0.  1.
         22    1    3    3    0    0  0.12414750469E+02 -0.10651288083E+03  0.10393233662E+02  0.10773643357E+03  0.00000000000E+00 0.  1.
</event>
<event>
 7    1  0.5854318E-006  0.1288626E+03  0.7818608E-02  0.1261636E+00
          2   -1    0    0  502    0  0.00000000000E+00  0.00000000000E+00  0.32699934828E+03  0.32699934828E+03  0.00000000000E+00 0. -1.
          1   -1    0    0  501    0 -0.00000000000E+00 -0.00000000000E+00 -0.25809158100E+03  0.25809158100E+03  0.00000000000E+00 0. -1.
         25    2    1    2    0    0  0.13330147636E+03  0.36725573432E+02 -0.16027231870E+03  0.24582375008E+03  0.12499619442E+03 0.  0.
          2    1    1    2  501    0 -0.73084677522E+02 -0.10749560047E+03  0.53579865976E+02  0.14059685718E+03  0.00000000000E+00 0. -1.
          1    1    1    2  502    0 -0.60216798836E+02  0.70770027042E+02  0.17560022000E+03  0.19867032202E+03  0.00000000000E+00 0. -1.
         22    1    3    3    0    0  0.87638574653E+02  0.77126860167E+02 -0.13836841871E+03  0.18103837058E+03  0.00000000000E+00 0.  1.
         22    1    3    3    0    0  0.45662901705E+02 -0.40401286735E+02 -0.21903899984E+02  0.64785379496E+02  0.00000000000E+00 0.  1.
</event>
<event>
 7    1  0.5854318E-006  0.9776289E+02  0.7818608E-02  0.1416670E+00
          2   -1    0    0  502    0  0.00000000000E+00  0.00000000000E+00  0.32152862963E+04  0.32152862963E+04  0.00000000000E+00 0. -1.
          1   -1    0    0  501    0 -0.00000000000E+00 -0.00000000000E+00 -0.97666717822E+02  0.97666717822E+02  0.00000000000E+00 0. -1.
         25    2    1    2    0    0 -0.10926951763E+03  0.10948855448E+02  0.87893220815E+03  0.89454302551E+03  0.12500277216E+03 0.  0.
          2    1    1    2  501    0  0.90429854922E+02 -0.36531443131E+02 -0.63256073959E+02  0.11624730488E+03  0.00000000000E+00 0. -1.
          1    1    1    2  502    0  0.18839662710E+02  0.25582587683E+02  0.23019434443E+04  0.23021626838E+04  0.00000000000E+00 0. -1.
         22    1    3    3    0    0 -0.11653729592E+03  0.37636052251E+01  0.43096739007E+03  0.44646164155E+03  0.00000000000E+00 0. -1.
         22    1    3    3    0    0  0.72677782878E+01  0.71852502229E+01  0.44796481808E+03  0.44808138397E+03  0.00000000000E+00 0. -1.
</event>
<event>
 7    1  0.5854318E-006  0.6039751E+02  0.7818608E-02  0.1490627E+00
          2   -1    0    0  502    0  0.00000000000E+00  0.00000000000E+00  0.19491656985E+04  0.19491656985E+04  0.00000000000E+00 0. -1.
          1   -1    0    0  501    0 -0.00000000000E+00 -0.00000000000E+00 -0.21408445771E+02  0.21408445771E+02  0.00000000000E+00 0. -1.
         25    2    1    2    0    0 -0.23075695270E+02 -0.70786477437E+02  0.31182594422E+03  0.34409765430E+03  0.12499825240E+03 0.  0.
          2    1    1    2  501    0 -0.16081554679E+02  0.25202831419E+02  0.42854743908E+02  0.52252542405E+02  0.00000000000E+00 0. -1.
          1    1    1    2  502    0  0.39157249949E+02  0.45583646018E+02  0.15730765646E+04  0.15742239476E+04  0.00000000000E+00 0. -1.
         22    1    3    3    0    0  0.33278242189E+02 -0.52958988017E+02  0.25333701457E+03  0.26094393798E+03  0.00000000000E+00 0.  1.
         22    1    3    3    0    0 -0.56353937459E+02 -0.17827489420E+02  0.58488929651E+02  0.83153716320E+02  0.00000000000E+00 0.  1.
</event>
<event>
 7    1  0.5854318E-006  0.5230804E+02  0.7818608E-02  0.1522261E+00
          2   -1    0    0  502    0  0.00000000000E+00  0.00000000000E+00  0.16500104780E+03  0.16500104780E+03  0.00000000000E+00 0. -1.
          1   -1    0    0  501    0 -0.00000000000E+00 -0.00000000000E+00 -0.13886486721E+04  0.13886486721E+04  0.00000000000E+00 0. -1.
         25    2    1    2    0    0  0.15056489496E+02 -0.75930377828E+02 -0.40959586766E+03  0.43518664760E+03  0.12500609301E+03 0.  0.
          2    1    1    2  501    0 -0.28019685770E+01  0.50945395027E+02 -0.96430531243E+03  0.96565419270E+03  0.00000000000E+00 0. -1.
          1    1    1    2  502    0 -0.12254520919E+02  0.24984982801E+02  0.15025355580E+03  0.15280887958E+03  0.00000000000E+00 0. -1.
         22    1    3    3    0    0  0.57168614917E+02 -0.84726911711E+02 -0.31731656762E+03  0.33337172074E+03  0.00000000000E+00 0. -1.
         22    1    3    3    0    0 -0.42112125421E+02  0.87965338827E+01 -0.92279300036E+02  0.10181492686E+03  0.00000000000E+00 0. -1.
</event>
<event>
 7    1  0.5854318E-006  0.9028734E+02  0.7818608E-02  0.1329672E+00
          2   -1    0    0  502    0  0.00000000000E+00  0.00000000000E+00  0.32680577539E+04  0.32680577539E+04  0.00000000000E+00 0. -1.
          1   -1    0    0  501    0 -0.00000000000E+00 -0.00000000000E+00 -0.37656233899E+03  0.37656233899E+03  0.00000000000E+00 0. -1.
         25    2    1    2    0    0  0.42487410954E+02  0.11551847625E+03  0.64581029316E+03  0.66921254929E+03  0.12499921173E+03 0.  0.
          2    1    1    2  501    0  0.22170671881E+02 -0.87422524962E+02 -0.35880342250E+03  0.36996504235E+03  0.00000000000E+00 0. -1.
          1    1    1    2  502    0 -0.64658082835E+02 -0.28095951286E+02  0.26044885443E+04  0.26054425013E+04  0.00000000000E+00 0. -1.
         22    1    3    3    0    0  0.28571917476E+02 -0.51508440240E+00  0.34984186795E+03  0.35100705456E+03  0.00000000000E+00 0.  1.
         22    1    3    3    0    0  0.13915493477E+02  0.11603356065E+03  0.29596842521E+03  0.31820549473E+03  0.00000000000E+00 0.  1.
</event>
<event>
 7    1  0.5854318E-006  0.5967954E+02  0.7818608E-02  0.1415204E+00
          2   -1    0    0  502    0  0.00000000000E+00  0.00000000000E+00  0.18612753346E+04  0.18612753346E+04  0.00000000000E+00 0. -1.
          1   -1    0    0  501    0 -0.00000000000E+00 -0.00000000000E+00 -0.62780588361E+03  0.62780588361E+03  0.00000000000E+00 0. -1.
         25    2    1    2    0    0  0.38234371230E+02  0.17254019017E+02  0.10996863090E+04  0.11075622478E+04  0.12499834441E+03 0.  0.
          2    1    1    2  501    0 -0.14288015938E+02  0.50662501996E+02 -0.62104075458E+03  0.62326756322E+03  0.00000000000E+00 0. -1.
          1    1    1    2  502    0 -0.23946355292E+02 -0.67916521013E+02  0.75482389658E+03  0.75825140725E+03  0.00000000000E+00 0. -1.
         22    1    3    3    0    0 -0.92358652459E+01  0.11045351952E+02  0.95603465625E+03  0.95614306720E+03  0.00000000000E+00 0. -1.
         22    1    3    3    0    0  0.47470236476E+02  0.62086670654E+01  0.14365165277E+03  0.15141918056E+03  0.00000000000E+00 0. -1.
</event>
<event>
 7    1  0.5854318E-006  0.7201258E+02  0.7818608E-02  0.1404784E+00
          2   -1    0    0  502    0  0.00000000000E+00  0.00000000000E+00  0.82317187079E+03  0.82317187079E+03  0.00000000000E+00 0. -1.
          1   -1    0    0  501    0 -0.00000000000E+00 -0.00000000000E+00 -0.27912525568E+02  0.27912525568E+02  0.00000000000E+00 0. -1.
         25    2    1    2    0    0  0.18064184234E+02 -0.26571455426E+02  0.48877507085E+03  0.50552908994E+03  0.12500493550E+03 0.  0.
          2    1    1    2  501    0 -0.47613818624E+02  0.63529193564E+02  0.74766072802E+02  0.10905503107E+03  0.00000000000E+00 0. -1.
          1    1    1    2  502    0  0.29549634391E+02 -0.36957738137E+02  0.23171820157E+03  0.23650027535E+03  0.00000000000E+00 0. -1.
         22    1    3    3    0    0  0.29700605284E+02  0.54366586705E+01  0.21625183926E+02  0.37139356370E+02  0.00000000000E+00 0.  1.
         22    1    3    3    0    0 -0.11636421051E+02 -0.32008114097E+02  0.46714988692E+03  0.46838973357E+03  0.00000000000E+00 0.  1.
</event>
<event>
 7    1  0.5854318E-006  0.1223050E+03  0.7818608E-02  0.1410800E+00
          2   -1    0    0  502    0  0.00000000000E+00  0.00000000000E+00  0.15856834108E+04  0.15856834108E+04  0.00000000000E+00 0. -1.
          1   -1    0    0  501    0 -0.00000000000E+00 -0.00000000000E+00 -0.45421378923E+02  0.45421378923E+02  0.00000000000E+00 0. -1.
         25    2    1    2    0    0 -0.75218375868E+02 -0.92078861520E+02  0.87544301448E+03  0.89227896988E+03  0.12499987071E+03 0.  0.
          2    1    1    2  501    0  0.55414100958E+02  0.10980616687E+03  0.66320406576E+02  0.13973730066E+03  0.00000000000E+00 0. -1.
          1    1    1    2  502    0  0.19804274910E+02 -0.17727305353E+02  0.59849861081E+03  0.59908851917E+03  0.00000000000E+00 0. -1.
         22    1    3    3    0    0  0.75350117628E+01 -0.53383783353E+02  0.12281829725E+03  0.13413030555E+03  0.00000000000E+00 0. -1.
         22    1    3    3    0    0 -0.82753387631E+02 -0.38695078167E+02  0.75262471723E+03  0.75814866433E+03  0.00000000000E+00 0. -1.
</event>
<event>
 7    1  0.5854318E-006  0.1012223E+03  0.7818608E-02  0.1405179E+00
          2   -1    0    0  502    0  0.00000000000E+00  0.00000000000E+00  0.20402075424E+04  0.20402075424E+04  0.00000000000E+00 0. -1.
          1   -1    0    0  501    0 -0.00000000000E+00 -0.00000000000E+00 -0.34995346970E+03  0.34995346970E+03  0.00000000000E+00 0. -1.
         25    2    1    2    0    0 -0.11772544155E+03 -0.98438898916E+01  0.99564383370E+03  0.10103896181E+04  0.12499741987E+03 0.  0.
          2    1    1    2  501    0  0.99455998528E+02 -0.18307034739E+02 -0.33483823406E+03  0.34977605142E+03  0.00000000000E+00 0. -1.
          1    1    1    2  502    0  0.18269443017E+02  0.28150924631E+02  0.10294484730E+04  0.10299953426E+04  0.00000000000E+00 0. -1.
         22    1    3    3    0    0 -0.14459756343E+03 -0.49996161691E+01  0.83861570363E+03  0.85100514093E+03  0.00000000000E+00 0. -1.
         22    1    3    3    0    0  0.26872121882E+02 -0.48442737225E+01  0.15702813007E+03  0.15938447714E+03  0.00000000000E+00 0. -1.
</event>
<event>
 7    1  0.5854318E-006  0.1445213E+03  0.7818608E-02  0.1305427E+00
          2   -1    0    0  502    0  0.00000000000E+00  0.00000000000E+00  0.31423940913E+04  0.31423940913E+04  0.00000000000E+00 0. -1.
          1   -1    0    0  501    0 -0.00000000000E+00 -0.00000000000E+00 -0.11125111892E+03  0.11125111892E+03  0.00000000000E+00 0. -1.
         25    2    1    2    0    0  0.44084363869E+02  0.16845069452E+03  0.17924593096E+04  0.18052283152E+04  0.12497930167E+03 0.  0.
          2    1    1    2  501    0 -0.74635974142E+02 -0.12302870918E+03 -0.54649471853E+02  0.15392581555E+03  0.00000000000E+00 0. -1.
          1    1    1    2  502    0  0.30551610273E+02 -0.45421985340E+02  0.12933331346E+04  0.12944910795E+04  0.00000000000E+00 0. -1.
         22    1    3    3    0    0 -0.33293017588E+02  0.59695984707E+02  0.35034205517E+03  0.35694760292E+03  0.00000000000E+00 0. -1.
         22    1    3    3    0    0  0.77377381457E+02  0.10875470982E+03  0.14421172544E+04  0.14482807123E+04  0.00000000000E+00 0. -1.
</event>
<event>
 7    1  0.5854318E-006  0.7361867E+02  0.7818608E-02  0.1413397E+00
          2   -1    0    0  502    0  0.00000000000E+00  0.00000000000E+00  0.64810772600E+02  0.64810772600E+02  0.00000000000E+00 0. -1.
          1   -1    0    0  501    0 -0.00000000000E+00 -0.00000000000E+00 -0.17219728756E+04  0.17219728756E+04  0.00000000000E+00 0. -1.
         25    2    1    2    0    0 -0.44209490120E+02  0.34350844709E+02 -0.37041902518E+03  0.39492962679E+03  0.12499878541E+03 0.  0.
          2    1    1    2  501    0  0.23404715545E+02 -0.72295453414E+02 -0.13291175932E+04  0.13312880943E+04  0.00000000000E+00 0. -1.
          1    1    1    2  502    0  0.20804774575E+02  0.37944608706E+02  0.42374515408E+02  0.60565927146E+02  0.00000000000E+00 0. -1.
         22    1    3    3    0    0 -0.91725444265E+01 -0.36330724903E+02 -0.38344205591E+02  0.53612827249E+02  0.00000000000E+00 0. -1.
         22    1    3    3    0    0 -0.35036945694E+02  0.70681569611E+02 -0.33207481959E+03  0.34131679955E+03  0.00000000000E+00 0. -1.
</event>
<event>
 7    1  0.5854318E-006  0.5501897E+02  0.7818608E-02  0.1524146E+00
          2   -1    0    0  502    0  0.00000000000E+00  0.00000000000E+00  0.55431209869E+03  0.55431209869E+03  0.00000000000E+00 0. -1.
          1   -1    0    0  501    0 -0.00000000000E+00 -0.00000000000E+00 -0.88645421080E+03  0.88645421080E+03  0.00000000000E+00 0. -1.
         25    2    1    2    0    0 -0.44904870727E+02  0.17224921201E+02 -0.13391359318E+03  0.18939488961E+03  0.12499771377E+03 0.  0.
          2    1    1    2  501    0  0.55070774819E+02  0.68434924812E+01 -0.72341251181E+03  0.72553792863E+03  0.00000000000E+00 0. -1.
          1    1    1    2  502    0 -0.10165904092E+02 -0.24068413682E+02  0.52518399288E+03  0.52583349125E+03  0.00000000000E+00 0. -1.
         22    1    3    3    0    0  0.25772654297E+02  0.35885814131E+02 -0.98946618210E+02  0.10836260711E+03  0.00000000000E+00 0. -1.
         22    1    3    3    0    0 -0.70677525024E+02 -0.18660892930E+02 -0.34966974969E+02  0.81032282499E+02  0.00000000000E+00 0. -1.
</event>
<event>
 7    1  0.5854318E-006  0.1867391E+03  0.7818608E-02  0.1309348E+00
          2   -1    0    0  502    0  0.00000000000E+00  0.00000000000E+00  0.61801601072E+03  0.61801601072E+03  0.00000000000E+00 0. -1.
          1   -1    0    0  501    0 -0.00000000000E+00 -0.00000000000E+00 -0.82478135093E+03  0.82478135093E+03  0.00000000000E+00 0. -1.
         25    2    1    2    0    0  0.22531162369E+03 -0.57556170444E+01  0.21486538489E+03  0.33554611857E+03  0.12500243665E+03 0.  0.
          2    1    1    2  501    0 -0.18481895612E+03  0.11355997492E+02 -0.75194947797E+03  0.77441269530E+03  0.00000000000E+00 0. -1.
          1    1    1    2  502    0 -0.40492667580E+02 -0.56003804474E+01  0.33031875287E+03  0.33283854778E+03  0.00000000000E+00 0. -1.
         22    1    3    3    0    0  0.63903778387E+02 -0.48641309985E+02  0.28301025186E+02  0.85150560514E+02  0.00000000000E+00 0. -1.
         22    1    3    3    0    0  0.16140784531E+03  0.42885692940E+02  0.18656435970E+03  0.25039555806E+03  0.00000000000E+00 0. -1.
</event>
<event>
 7    1  0.5854318E-006  0.7627686E+02  0.7818608E-02  0.1427348E+00
          2   -1    0    0  502    0  0.00000000000E+00  0.00000000000E+00  0.52497802807E+03  0.52497802807E+03  0.00000000000E+00 0. -1.
          1   -1    0    0  501    0 -0.00000000000E+00 -0.00000000000E+00 -0.39325967426E+03  0.39325967426E+03  0.00000000000E+00 0. -1.
         25    2    1    2    0    0  0.42007433960E+02 -0.68831026055E+02  0.89234960596E+02  0.17349266092E+03  0.12503795642E+03 0.  0.
          2    1    1    2  501    0 -0.52271519617E+01  0.76239233039E+02 -0.34605864699E+03  0.35439572646E+03  0.00000000000E+00 0. -1.
          1    1    1    2  502    0 -0.36780281998E+02 -0.74082069844E+01  0.38854204021E+03  0.39034931495E+03  0.00000000000E+00 0. -1.
         22    1    3    3    0    0  0.41400048137E+02 -0.19232468641E+02  0.11047444860E+03  0.11953432824E+03  0.00000000000E+00 0. -1.
         22    1    3    3    0    0  0.60738582296E+00 -0.49598557413E+02 -0.21239488002E+02  0.53958332680E+02  0.00000000000E+00 0. -1.
</event>
<event>
 7    1  0.5854318E-006  0.4072234E+02  0.7818608E-02  0.1563910E+00
          2   -1    0    0  502    0  0.00000000000E+00  0.00000000000E+00  0.31089764487E+02  0.31089764487E+02  0.00000000000E+00 0. -1.
          1   -1    0    0  501    0 -0.00000000000E+00 -0.00000000000E+00 -0.71646226177E+03  0.71646226177E+03  0.00000000000E+00 0. -1.
         25    2    1    2    0    0 -0.43976071485E+02 -0.89582885864E+01 -0.48525711217E+03  0.50310381541E+03  0.12499935348E+03 0.  0.
          2    1    1    2  501    0  0.16738076736E+02 -0.21549837814E+02 -0.20168260249E+03  0.20352009942E+03  0.00000000000E+00 0. -1.
          1    1    1    2  502    0  0.27237994749E+02  0.30508126401E+02  0.15672173761E+01  0.40928111424E+02  0.00000000000E+00 0. -1.
         22    1    3    3    0    0 -0.26961447166E+02 -0.48681501948E+02 -0.92302080739E+02  0.10777978648E+03  0.00000000000E+00 0.  1.
         22    1    3    3    0    0 -0.17014624318E+02  0.39723213362E+02 -0.39295503144E+03  0.39532402893E+03  0.00000000000E+00 0.  1.
</event>
<event>
 7    1  0.5854318E-006  0.7411881E+02  0.7818608E-02  0.1379538E+00
          2   -1    0    0  502    0  0.00000000000E+00  0.00000000000E+00  0.15047923750E+04  0.15047923750E+04  0.00000000000E+00 0. -1.
          1   -1    0    0  501    0 -0.00000000000E+00 -0.00000000000E+00 -0.20885362635E+03  0.20885362635E+03  0.00000000000E+00 0. -1.
         25    2    1    2    0    0  0.27207403080E+02  0.28635111479E+02  0.20286439773E+03  0.24153543932E+03  0.12500076876E+03 0.  0.
          2    1    1    2  501    0 -0.29050587922E+02  0.48200810926E+02 -0.18415924957E+03  0.19256657040E+03  0.00000000000E+00 0. -1.
          1    1    1    2  502    0  0.18431848420E+01 -0.76835922405E+02  0.12772336005E+04  0.12795439917E+04  0.00000000000E+00 0. -1.
         22    1    3    3    0    0  0.67146702083E+02  0.50678184441E+02  0.14744367175E+03  0.16975451192E+03  0.00000000000E+00 0.  1.
         22    1    3    3    0    0 -0.39939299003E+02 -0.22043072962E+02  0.55420725974E+02  0.71780927397E+02  0.00000000000E+00 0.  1.
</event>
<event>
 7    1  0.5854318E-006  0.8829998E+02  0.7818608E-02  0.1386874E+00
          2   -1    0    0  502    0  0.00000000000E+00  0.00000000000E+00  0.26303789495E+04  0.26303789495E+04  0.00000000000E+00 0. -1.
          1   -1    0    0  501    0 -0.00000000000E+00 -0.00000000000E+00 -0.23722930091E+03  0.23722930091E+03  0.00000000000E+00 0. -1.
         25    2    1    2    0    0 -0.48406394888E+02 -0.38417356603E+02  0.56936467232E+02  0.15061807803E+03  0.12499988709E+03 0.  0.
          2    1    1    2  501    0 -0.38864285124E+02  0.21694211277E+02 -0.18699433281E+03  0.19221850058E+03  0.00000000000E+00 0. -1.
          1    1    1    2  502    0  0.87270680012E+02  0.16723145326E+02  0.25232075141E+04  0.25247716718E+04  0.00000000000E+00 0. -1.
         22    1    3    3    0    0 -0.57614467509E+02 -0.52526001861E+02 -0.12683051810E+02  0.78989034309E+02  0.00000000000E+00 0.  1.
         22    1    3    3    0    0  0.92080726214E+01  0.14108645257E+02  0.69619519042E+02  0.71629043719E+02  0.00000000000E+00 0.  1.
</event>
<event>
 7    1  0.5854318E-006  0.2377493E+03  0.7818608E-02  0.1297250E+00
          2   -1    0    0  502    0  0.00000000000E+00  0.00000000000E+00  0.52481013478E+03  0.52481013478E+03  0.00000000000E+00 0. -1.
          1   -1    0    0  501    0 -0.00000000000E+00 -0.00000000000E+00 -0.33214452932E+03  0.33214452932E+03  0.00000000000E+00 0. -1.
         25    2    1    2    0    0  0.21594613862E+03 -0.49058484360E+02 -0.38769642142E+02  0.25723095896E+03  0.12500084570E+03 0.  0.
          2    1    1    2  501    0  0.24933723060E+02  0.25793472660E+02 -0.14656601306E+03  0.15089264383E+03  0.00000000000E+00 0. -1.
          1    1    1    2  502    0 -0.24087986168E+03  0.23265011700E+02  0.37800126066E+03  0.44883106130E+03  0.00000000000E+00 0. -1.
         22    1    3    3    0    0  0.33961780701E+02  0.39297033789E+02 -0.57834202749E+01  0.52259997733E+02  0.00000000000E+00 0.  1.
         22    1    3    3    0    0  0.18198435792E+03 -0.88355518149E+02 -0.32986221867E+02  0.20497096123E+03  0.00000000000E+00 0.  1.
</event>
<event>
 7    1  0.5854318E-006  0.7854929E+02  0.7818608E-02  0.1483632E+00
          2   -1    0    0  502    0  0.00000000000E+00  0.00000000000E+00  0.19207537010E+03  0.19207537010E+03  0.00000000000E+00 0. -1.
          1   -1    0    0  501    0 -0.00000000000E+00 -0.00000000000E+00 -0.14152462725E+04  0.14152462725E+04  0.00000000000E+00 0. -1.
         25    2    1    2    0    0  0.32109198502E+02 -0.51718711850E+02 -0.10793885284E+03  0.17604840278E+03  0.12504566520E+03 0.  0.
          2    1    1    2  501    0 -0.53021122348E+01 -0.23550828446E+02 -0.12630297846E+04  0.12632604604E+04  0.00000000000E+00 0. -1.
          1    1    1    2  502    0 -0.26807086268E+02  0.75269540295E+02  0.14779773505E+03  0.16801277944E+03  0.00000000000E+00 0. -1.
         22    1    3    3    0    0 -0.33744075281E+02 -0.41933248025E+02 -0.58118205457E+01  0.54137206841E+02  0.00000000000E+00 0. -1.
         22    1    3    3    0    0  0.65853273784E+02 -0.97854638246E+01 -0.10212703230E+03  0.12191119594E+03  0.00000000000E+00 0. -1.
</event>
<event>
 7    1  0.5854318E-006  0.6969407E+02  0.7818608E-02  0.1373369E+00
          2   -1    0    0  502    0  0.00000000000E+00  0.00000000000E+00  0.15951808868E+03  0.15951808868E+03  0.00000000000E+00 0. -1.
          1   -1    0    0  501    0 -0.00000000000E+00 -0.00000000000E+00 -0.26129643180E+04  0.26129643180E+04  0.00000000000E+00 0. -1.
         25    2    1    2    0    0  0.24606921498E+02 -0.10792563261E-01 -0.13446306254E+04  0.13506524374E+04  0.12499994850E+03 0.  0.
          2    1    1    2  501    0  0.68582944828E+01  0.62581351166E+02 -0.12566598210E+04  0.12582358156E+04  0.00000000000E+00 0. -1.
          1    1    1    2  502    0 -0.31465215981E+02 -0.62570558603E+02  0.14784421709E+03  0.16359415377E+03  0.00000000000E+00 0. -1.
         22    1    3    3    0    0 -0.27677628242E+02  0.20053290886E+02 -0.10607587835E+04  0.10613092774E+04  0.00000000000E+00 0. -1.
         22    1    3    3    0    0  0.52284549740E+02 -0.20064083449E+02 -0.28387184193E+03  0.28934315998E+03  0.00000000000E+00 0. -1.
</event>
<event>
 7    1  0.5854318E-006  0.4346153E+02  0.7818608E-02  0.1527172E+00
          2   -1    0    0  502    0  0.00000000000E+00  0.00000000000E+00  0.24144267667E+02  0.24144267667E+02  0.00000000000E+00 0. -1.
          1   -1    0    0  501    0 -0.00000000000E+00 -0.00000000000E+00 -0.14286718855E+04  0.14286718855E+04  0.00000000000E+00 0. -1.
         25    2    1    2    0    0 -0.15581158779E+02 -0.43029154822E+02 -0.32142447367E+03  0.34789650515E+03  0.12499602132E+03 0.  0.
          2    1    1    2  501    0  0.38753907633E+02  0.20359410024E+02 -0.10684463153E+04  0.10693427418E+04  0.00000000000E+00 0. -1.
          1    1    1    2  502    0 -0.23172748855E+02  0.22669744798E+02 -0.14656828874E+02  0.35576906152E+02  0.00000000000E+00 0. -1.
         22    1    3    3    0    0  0.50285172964E+02 -0.13749872408E+02 -0.76411168544E+02  0.92500401564E+02  0.00000000000E+00 0. -1.
         22    1    3    3    0    0 -0.65866331743E+02 -0.29279282413E+02 -0.24501330513E+03  0.25539610358E+03  0.00000000000E+00 0. -1.
</event>
<event>
 7    1  0.5854318E-006  0.1737071E+03  0.7818608E-02  0.1369123E+00
          2   -1    0    0  502    0  0.00000000000E+00  0.00000000000E+00  0.26063062618E+04  0.26063062618E+04  0.00000000000E+00 0. -1.
          1   -1    0    0  501    0 -0.00000000000E+00 -0.00000000000E+00 -0.10605863515E+04  0.10605863515E+04  0.00000000000E+00 0. -1.
         25    2    1    2    0    0  0.31847683148E+02 -0.15388743039E+03  0.13110773337E+04  0.13263653012E+04  0.12500208533E+03 0.  0.
          2    1    1    2  501    0 -0.14223303003E+02  0.17322050777E+03 -0.10456356326E+04  0.10599818502E+04  0.00000000000E+00 0. -1.
          1    1    1    2  502    0 -0.17624380145E+02 -0.19333077383E+02  0.12802782093E+04  0.12805454618E+04  0.00000000000E+00 0. -1.
         22    1    3    3    0    0  0.58330436035E+02 -0.11898842059E+03  0.62517515479E+03  0.63906545687E+03  0.00000000000E+00 0. -1.
         22    1    3    3    0    0 -0.26482752888E+02 -0.34899009805E+02  0.68590217887E+03  0.68729984437E+03  0.00000000000E+00 0. -1.
</event>
<event>
 7    1  0.5854318E-006  0.8041670E+02  0.7818608E-02  0.1380575E+00
          2   -1    0    0  502    0  0.00000000000E+00  0.00000000000E+00  0.74012495578E+03  0.74012495578E+03  0.00000000000E+00 0. -1.
          1   -1    0    0  501    0 -0.00000000000E+00 -0.00000000000E+00 -0.21047319046E+04  0.21047319046E+04  0.00000000000E+00 0. -1.
         25    2    1    2    0    0 -0.31546636108E+02  0.23190674503E+02  0.23290305103E+03  0.26720969953E+03  0.12499677880E+03 0.  0.
          2    1    1    2  501    0 -0.38303290819E+02  0.34326215497E+02 -0.20830818707E+04  0.20837167541E+04  0.00000000000E+00 0. -1.
          1    1    1    2  502    0  0.69849926928E+02 -0.57516890000E+02  0.48557187088E+03  0.49393040675E+03  0.00000000000E+00 0. -1.
         22    1    3    3    0    0  0.33629078128E+02 -0.35276131166E+01  0.12875746584E+02  0.36182092258E+02  0.00000000000E+00 0. -1.
         22    1    3    3    0    0 -0.65175714237E+02  0.26718287619E+02  0.22002730444E+03  0.23102760727E+03  0.00000000000E+00 0. -1.
</event>
<event>
 7    1  0.5854318E-006  0.5440138E+02  0.7818608E-02  0.1510666E+00
          2   -1    0    0  502    0  0.00000000000E+00  0.00000000000E+00  0.14008011309E+04  0.14008011309E+04  0.00000000000E+00 0. -1.
          1   -1    0    0  501    0 -0.00000000000E+00 -0.00000000000E+00 -0.34236506542E+03  0.34236506542E+03  0.00000000000E+00 0. -1.
         25    2    1    2    0    0 -0.16048258344E+02  0.34352758474E+02  0.14378186373E+03  0.19425690614E+03  0.12499945053E+03 0.  0.
          2    1    1    2  501    0  0.44818551495E+02 -0.31362095064E+02 -0.31459724636E+03  0.31931757074E+03  0.00000000000E+00 0. -1.
          1    1    1    2  502    0 -0.28770293150E+02 -0.29906634100E+01  0.12292514481E+04  0.12295917194E+04  0.00000000000E+00 0. -1.
         22    1    3    3    0    0  0.69815875410E+01 -0.30939916622E+02 -0.31063121296E+01  0.31869580797E+02  0.00000000000E+00 0. -1.
         22    1    3    3    0    0 -0.23029845885E+02  0.65292675096E+02  0.14688817586E+03  0.16238732534E+03  0.00000000000E+00 0. -1.
</event>
<event>
 7    1  0.5854318E-006  0.3529334E+02  0.7818608E-02  0.1560254E+00
          2   -1    0    0  502    0  0.00000000000E+00  0.00000000000E+00  0.37312938809E+03  0.37312938809E+03  0.00000000000E+00 0. -1.
          1   -1    0    0  501    0 -0.00000000000E+00 -0.00000000000E+00 -0.12396802847E+03  0.12396802847E+03  0.00000000000E+00 0. -1.
         25    2    1    2    0    0 -0.31115732004E+02 -0.57996683643E+02  0.15305502398E+03  0.20827655901E+03  0.12498592151E+03 0.  0.
          2    1    1    2  501    0  0.16354077206E+02  0.27761144898E+02 -0.92129713949E+02  0.97601338104E+02  0.00000000000E+00 0. -1.
          1    1    1    2  502    0  0.14761654797E+02  0.30235538746E+02  0.18823604958E+03  0.19121951945E+03  0.00000000000E+00 0. -1.
         22    1    3    3    0    0 -0.18612058260E+02 -0.97779142811E+02  0.10624926615E+03  0.14558872223E+03  0.00000000000E+00 0. -1.
         22    1    3    3    0    0 -0.12503673743E+02  0.39782459168E+02  0.46805757826E+02  0.62687836780E+02  0.00000000000E+00 0. -1.
</event>
<event>
 7    1  0.5854318E-006  0.5144082E+02  0.7818608E-02  0.1447296E+00
          2   -1    0    0  502    0  0.00000000000E+00  0.00000000000E+00  0.19878098312E+04  0.19878098312E+04  0.00000000000E+00 0. -1.
          1   -1    0    0  501    0 -0.00000000000E+00 -0.00000000000E+00 -0.27045155504E+03  0.27045155504E+03  0.00000000000E+00 0. -1.
         25    2    1    2    0    0 -0.49290689402E+01  0.20489440074E+01  0.32709632649E+03  0.35020726392E+03  0.12499850803E+03 0.  0.
          2    1    1    2  501    0 -0.46886488806E+02  0.98076418406E+01 -0.25624782956E+03  0.26068656050E+03  0.00000000000E+00 0. -1.
          1    1    1    2  502    0  0.51815557746E+02 -0.11856585848E+02  0.16465097793E+04  0.16473675618E+04  0.00000000000E+00 0. -1.
         22    1    3    3    0    0  0.11930647342E+02  0.36721058413E+02  0.25760978346E+02  0.46415562932E+02  0.00000000000E+00 0. -1.
         22    1    3    3    0    0 -0.16859716282E+02 -0.34672114405E+02  0.30133534814E+03  0.30379170099E+03  0.00000000000E+00 0. -1.
</event>
<event>
 7    1  0.5854318E-006  0.1066678E+03  0.7818608E-02  0.1325018E+00
          2   -1    0    0  502    0  0.00000000000E+00  0.00000000000E+00  0.13063230475E+04  0.13063230475E+04  0.00000000000E+00 0. -1.
          1   -1    0    0  501    0 -0.00000000000E+00 -0.00000000000E+00 -0.28375072390E+03  0.28375072390E+03  0.00000000000E+00 0. -1.
         25    2    1    2    0    0 -0.10230819231E+03 -0.35341525917E+02  0.31700812715E+03  0.35754159287E+03  0.12500339310E+03 0.  0.
          2    1    1    2  501    0  0.10377543536E+03 -0.26817748249E+02 -0.25153275702E+03  0.27341773984E+03  0.00000000000E+00 0. -1.
          1    1    1    2  502    0 -0.14672430587E+01  0.62159274166E+02  0.95709695346E+03  0.95911443868E+03  0.00000000000E+00 0. -1.
         22    1    3    3    0    0 -0.48854625735E+02 -0.80209355652E+02  0.20631576469E+03  0.22668592799E+03  0.00000000000E+00 0. -1.
         22    1    3    3    0    0 -0.53453566571E+02  0.44867829734E+02  0.11069236246E+03  0.13085566488E+03  0.00000000000E+00 0. -1.
</event>
<event>
 7    1  0.5854318E-006  0.1821867E+03  0.7818608E-02  0.1222209E+00
          2   -1    0    0  502    0  0.00000000000E+00  0.00000000000E+00  0.10981988991E+04  0.10981988991E+04  0.00000000000E+00 0. -1.
          1   -1    0    0  501    0 -0.00000000000E+00 -0.00000000000E+00 -0.12837351321E+03  0.12837351321E+03  0.00000000000E+00 0. -1.
         25    2    1    2    0    0  0.11965270429E+03 -0.55970772944E+02  0.93768502597E+02  0.20461475970E+03  0.12500068296E+03 0.  0.
          2    1    1    2  501    0 -0.15828414666E+01 -0.97958304340E+02 -0.24298610845E+02  0.10093937421E+03  0.00000000000E+00 0. -1.
          1    1    1    2  502    0 -0.11806986283E+03  0.15392907728E+03  0.90035549416E+03  0.92101827843E+03  0.00000000000E+00 0. -1.
         22    1    3    3    0    0  0.13835805052E+03 -0.18228108990E+02  0.75894103788E+02  0.15885568637E+03  0.00000000000E+00 0. -1.
         22    1    3    3    0    0 -0.18705346227E+02 -0.37742663955E+02  0.17874398808E+02  0.45759073336E+02  0.00000000000E+00 0. -1.
</event>
<event>
 7    1  0.5854318E-006  0.1212885E+03  0.7818608E-02  0.1296191E+00
          2   -1    0    0  502    0  0.00000000000E+00  0.00000000000E+00  0.32088049087E+04  0.32088049087E+04  0.00000000000E+00 0. -1.
          1   -1    0    0  501    0 -0.00000000000E+00 -0.00000000000E+00 -0.17831476358E+04  0.17831476358E+04  0.00000000000E+00 0. -1.
         25    2    1    2    0    0  0.10301449962E+03 -0.71174701733E+02  0.81137032271E+02  0.19464403745E+03  0.12500103205E+03 0.  0.
          2    1    1    2  501    0 -0.45430390341E+02  0.11273440930E+03 -0.17238435001E+04  0.17281230802E+04  0.00000000000E+00 0. -1.
          1    1    1    2  502    0 -0.57584109278E+02 -0.41559707563E+02  0.30683637407E+04  0.30691854268E+04  0.00000000000E+00 0. -1.
         22    1    3    3    0    0  0.70069561629E+02 -0.99658629850E+02  0.26327430341E+02  0.12463835509E+03  0.00000000000E+00 0.  1.
         22    1    3    3    0    0  0.32944937990E+02  0.28483928116E+02  0.54809601930E+02  0.70005682368E+02  0.00000000000E+00 0.  1.
</event>
<event>
 7    1  0.5854318E-006  0.2269655E+03  0.7818608E-02  0.1210959E+00
          2   -1    0    0  502    0  0.00000000000E+00  0.00000000000E+00  0.32153609192E+04  0.32153609192E+04  0.00000000000E+00 0. -1.
          1   -1    0    0  501    0 -0.00000000000E+00 -0.00000000000E+00 -0.49703675108E+03  0.49703675108E+03  0.00000000000E+00 0. -1.
         25    2    1    2    0    0  0.24788693167E+03  0.17736897780E+03 -0.24938185680E+03  0.41318736062E+03  0.12499919718E+03 0.  0.
          2    1    1    2  501    0 -0.86473093663E+02 -0.19118355738E+02 -0.14953046706E+03  0.17378857279E+03  0.00000000000E+00 0. -1.
          1    1    1    2  502    0 -0.16141383801E+03 -0.15825062206E+03  0.31172364919E+04  0.31254217369E+04  0.00000000000E+00 0. -1.
         22    1    3    3    0    0  0.43976300892E+02  0.28133906695E+01  0.37639502748E+01  0.44226660838E+02  0.00000000000E+00 0. -1.
         22    1    3    3    0    0  0.20391063078E+03  0.17455558713E+03 -0.25314580707E+03  0.36896069978E+03  0.00000000000E+00 0. -1.
</event>
<event>
 7    1  0.5854318E-006  0.6930290E+02  0.7818608E-02  0.1442665E+00
          2   -1    0    0  502    0  0.00000000000E+00  0.00000000000E+00  0.10870620219E+04  0.10870620219E+04  0.00000000000E+00 0. -1.
          1   -1    0    0  501    0 -0.00000000000E+00 -0.00000000000E+00 -0.92204383945E+03  0.92204383945E+03  0.00000000000E+00 0. -1.
         25    2    1    2    0    0  0.62473565962E+02 -0.13457422103E+02 -0.11227921424E+03  0.17976454119E+03  0.12499847865E+03 0.  0.
          2    1    1    2  501    0 -0.50637273607E+02  0.48299969635E+02 -0.77412183214E+03  0.77727834881E+03  0.00000000000E+00 0. -1.
          1    1    1    2  502    0 -0.11836292355E+02 -0.34842547532E+02  0.10514192288E+04  0.10520629713E+04  0.00000000000E+00 0. -1.
         22    1    3    3    0    0 -0.32942873664E+01  0.46838929204E+02 -0.60571228474E+02  0.76639489410E+02  0.00000000000E+00 0.  1.
         22    1    3    3    0    0  0.65767853329E+02 -0.60296351306E+02 -0.51707985769E+02  0.10312505178E+03  0.00000000000E+00 0.  1.
</event>
<event>
 7    1  0.5854318E-006  0.9821949E+02  0.7818608E-02  0.1380671E+00
          2   -1    0    0  502    0  0.00000000000E+00  0.00000000000E+00  0.92269889176E+02  0.92269889176E+02  0.00000000000E+00 0. -1.
          1   -1    0    0  501    0 -0.00000000000E+00 -0.00000000000E+00 -0.15338669236E+04  0.15338669236E+04  0.00000000000E+00 0. -1.
         25    2    1    2    0    0  0.78663049674E+02  0.28312287937E+02 -0.47901239593E+02  0.15782689892E+03  0.12500136093E+03 0.  0.
          2    1    1    2  501    0  0.10108422511E+02  0.40845945997E+02 -0.13450606604E+04  0.13457186748E+04  0.00000000000E+00 0. -1.
          1    1    1    2  502    0 -0.88771472184E+02 -0.69158233934E+02 -0.48635134419E+02  0.12259123906E+03  0.00000000000E+00 0. -1.
         22    1    3    3    0    0  0.46937753479E+02  0.49196797708E+02 -0.82180254085E+02  0.10666335719E+03  0.00000000000E+00 0. -1.
         22    1    3    3    0    0  0.31725296194E+02 -0.20884509771E+02  0.34279014492E+02  0.51163541722E+02  0.00000000000E+00 0. -1.
</event>
<event>
 7    1  0.5854318E-006  0.4963253E+02  0.7818608E-02  0.1470506E+00
          2   -1    0    0  502    0  0.00000000000E+00  0.00000000000E+00  0.69384566857E+03  0.69384566857E+03  0.00000000000E+00 0. -1.
          1   -1    0    0  501    0 -0.00000000000E+00 -0.00000000000E+00 -0.17252308718E+03  0.17252308718E+03  0.00000000000E+00 0. -1.
         25    2    1    2    0    0 -0.29133034511E+02  0.45751062728E+02  0.11213729524E+02  0.13671870873E+03  0.12499745656E+03 0.  0.
          2    1    1    2  501    0 -0.12679121566E+02 -0.48925868767E+02 -0.10319868167E+03  0.11491069862E+03  0.00000000000E+00 0. -1.
          1    1    1    2  502    0  0.41812156077E+02  0.31748060392E+01  0.61330753353E+03  0.61473934840E+03  0.00000000000E+00 0. -1.
         22    1    3    3    0    0 -0.66335229505E+02  0.56709825825E+02  0.31708669194E+02  0.92853684475E+02  0.00000000000E+00 0. -1.
         22    1    3    3    0    0  0.37202194993E+02 -0.10958763097E+02 -0.20494939670E+02  0.43865024256E+02  0.00000000000E+00 0. -1.
</event>
<event>
 7    1  0.5854318E-006  0.2342580E+03  0.7818608E-02  0.1184237E+00
          2   -1    0    0  502    0  0.00000000000E+00  0.00000000000E+00  0.31780037009E+04  0.31780037009E+04  0.00000000000E+00 0. -1.
          1   -1    0    0  501    0 -0.00000000000E+00 -0.00000000000E+00 -0.43016337873E+03  0.43016337873E+03  0.00000000000E+00 0. -1.
         25    2    1    2    0    0 -0.33386710615E+03 -0.81120070956E+02 -0.96896802054E+02  0.37823452290E+03  0.12499861434E+03 0.  0.
          2    1    1    2  501    0  0.11476030142E+03  0.41459060809E+01 -0.17060912098E+03  0.20565647931E+03  0.00000000000E+00 0. -1.
          1    1    1    2  502    0  0.21910680473E+03  0.76974164875E+02  0.30153462452E+04  0.30242760774E+04  0.00000000000E+00 0. -1.
         22    1    3    3    0    0 -0.17939568003E+02  0.21395098473E+02  0.94562978932E+01  0.29478804396E+02  0.00000000000E+00 0. -1.
         22    1    3    3    0    0 -0.31592753815E+03 -0.10251516943E+03 -0.10635309995E+03  0.34875571851E+03  0.00000000000E+00 0. -1.
</event>
<event>
 7    1  0.5854318E-006  0.8243885E+02  0.7818608E-02  0.1334824E+00
          2   -1    0    0  502    0  0.00000000000E+00  0.00000000000E+00  0.31609609386E+04  0.31609609386E+04  0.00000000000E+00 0. -1.
          1   -1    0    0  501    0 -0.00000000000E+00 -0.00000000000E+00 -0.56865289592E+02  0.56865289592E+02  0.00000000000E+00 0. -1.
         25    2    1    2    0    0 -0.80615460629E+02 -0.18581836232E+02  0.38482907130E+03  0.41299239348E+03  0.12500066329E+03 0.  0.
          2    1    1    2  501    0  0.16008891447E+02  0.72043682413E+02 -0.98268912152E+01  0.74452297291E+02  0.00000000000E+00 0. -1.
          1    1    1    2  502    0  0.64606569182E+02 -0.53461846181E+02  0.27290934689E+04  0.27303815374E+04  0.00000000000E+00 0. -1.
         22    1    3    3    0    0  0.18544158293E+02 -0.17498545834E+02  0.21363424154E+03  0.21515035224E+03  0.00000000000E+00 0.  1.
         22    1    3    3    0    0 -0.99159618923E+02 -0.10832903980E+01  0.17119482977E+03  0.19784204124E+03  0.00000000000E+00 0.  1.
</event>
<event>
 7    1  0.5854318E-006  0.1027111E+03  0.7818608E-02  0.1464167E+00
          2   -1    0    0  502    0  0.00000000000E+00  0.00000000000E+00  0.11984061374E+04  0.11984061374E+04  0.00000000000E+00 0. -1.
          1   -1    0    0  501    0 -0.00000000000E+00 -0.00000000000E+00 -0.25671198032E+03  0.25671198032E+03  0.00000000000E+00 0. -1.
         25    2    1    2    0    0 -0.70550468096E+02 -0.80348737185E+02  0.10439276714E+03  0.19482380643E+03  0.12500071042E+03 0.  0.
          2    1    1    2  501    0  0.51127144207E+02  0.88863198772E+02 -0.19895744167E+03  0.22381849022E+03  0.00000000000E+00 0. -1.
          1    1    1    2  502    0  0.19423323889E+02 -0.85144615869E+01  0.10362588316E+04  0.10364758211E+04  0.00000000000E+00 0. -1.
         22    1    3    3    0    0 -0.83583035679E+02 -0.93726421920E+02  0.46369711685E+02  0.13386902622E+03  0.00000000000E+00 0.  1.
         22    1    3    3    0    0  0.13032567582E+02  0.13377684734E+02  0.58023055455E+02  0.60954780214E+02  0.00000000000E+00 0.  1.
</event>
<event>
 7    1  0.5854318E-006  0.8856599E+02  0.7818608E-02  0.1443623E+00
          2   -1    0    0  502    0  0.00000000000E+00  0.00000000000E+00  0.10952954796E+04  0.10952954796E+04  0.00000000000E+00 0. -1.
          1   -1    0    0  501    0 -0.00000000000E+00 -0.00000000000E+00 -0.19203753472E+02  0.19203753472E+02  0.00000000000E+00 0. -1.
         25    2    1    2    0    0 -0.71338908623E+02 -0.22885259686E+02  0.63849523490E+03  0.65491526076E+03  0.12499943520E+03 0.  0.
          2    1    1    2  501    0 -0.26914446690E+02  0.96435260517E+01  0.36217296706E+02  0.46141929045E+02  0.00000000000E+00 0. -1.
          1    1    1    2  502    0  0.98253355313E+02  0.13241733634E+02  0.40137919450E+03  0.41344204324E+03  0.00000000000E+00 0. -1.
         22    1    3    3    0    0 -0.83996337949E+02  0.30704221879E+02  0.35254422717E+03  0.36371082764E+03  0.00000000000E+00 0. -1.
         22    1    3    3    0    0  0.12657429326E+02 -0.53589481566E+02  0.28595100773E+03  0.29120443313E+03  0.00000000000E+00 0. -1.
</event>
<event>
 7    1  0.5854318E-006  0.4628733E+02  0.7818608E-02  0.1477887E+00
          2   -1    0    0  502    0  0.00000000000E+00  0.00000000000E+00  0.18115910147E+03  0.18115910147E+03  0.00000000000E+00 0. -1.
          1   -1    0    0  501    0 -0.00000000000E+00 -0.00000000000E+00 -0.18057162557E+04  0.18057162557E+04  0.00000000000E+00 0. -1.
         25    2    1    2    0    0 -0.28620272338E+02  0.46924328303E+02  0.56933119200E+02  0.14794548087E+03  0.12500189067E+03 0.  0.
          2    1    1    2  501    0  0.42631200713E+02 -0.15859480266E+01 -0.17527753261E+04  0.17532944072E+04  0.00000000000E+00 0. -1.
          1    1    1    2  502    0 -0.14010928374E+02 -0.45338380276E+02  0.71285052656E+02  0.85635469125E+02  0.00000000000E+00 0. -1.
         22    1    3    3    0    0 -0.19762625607E+02  0.24550490926E+02  0.96566266963E+02  0.10157919024E+03  0.00000000000E+00 0. -1.
         22    1    3    3    0    0 -0.88576467313E+01  0.22373837377E+02 -0.39633147763E+02  0.46366290623E+02  0.00000000000E+00 0. -1.
</event>
<event>
 7    1  0.5854318E-006  0.5737370E+02  0.7818608E-02  0.1508266E+00
          2   -1    0    0  502    0  0.00000000000E+00  0.00000000000E+00  0.65164604925E+03  0.65164604925E+03  0.00000000000E+00 0. -1.
          1   -1    0    0  501    0 -0.00000000000E+00 -0.00000000000E+00 -0.75834111338E+03  0.75834111338E+03  0.00000000000E+00 0. -1.
         25    2    1    2    0    0 -0.44634409695E+01 -0.35208250262E+02 -0.62377445230E+02  0.14413411400E+03  0.12499661577E+03 0.  0.
          2    1    1    2  501    0  0.18656796770E+02 -0.20713522202E+02 -0.65342497278E+03  0.65401935837E+03  0.00000000000E+00 0. -1.
          1    1    1    2  502    0 -0.14193355801E+02  0.55921772463E+02  0.60910735388E+03  0.61183369025E+03  0.00000000000E+00 0. -1.
         22    1    3    3    0    0 -0.47097150457E+01 -0.11657874872E+02  0.38522232359E+02  0.40522214256E+02  0.00000000000E+00 0. -1.
         22    1    3    3    0    0  0.24627407621E+00 -0.23550375389E+02 -0.10089967759E+03  0.10361189975E+03  0.00000000000E+00 0. -1.
</event>
<event>
 7    1  0.5854318E-006  0.5621740E+02  0.7818608E-02  0.1507617E+00
          2   -1    0    0  502    0  0.00000000000E+00  0.00000000000E+00  0.19909090220E+04  0.19909090220E+04  0.00000000000E+00 0. -1.
          1   -1    0    0  501    0 -0.00000000000E+00 -0.00000000000E+00 -0.10603004241E+04  0.10603004241E+04  0.00000000000E+00 0. -1.
         25    2    1    2    0    0 -0.36991563442E+02  0.99701939987E+01  0.31018622400E+03  0.33661242416E+03  0.12499860003E+03 0.  0.
          2    1    1    2  501    0  0.41297453230E+02 -0.38220131784E+02 -0.10462087840E+04  0.10477208969E+04  0.00000000000E+00 0. -1.
          1    1    1    2  502    0 -0.43058897884E+01  0.28249937786E+02  0.16666311579E+04  0.16668761250E+04  0.00000000000E+00 0. -1.
         22    1    3    3    0    0 -0.11072471002E+02  0.19336399080E+02 -0.27622905839E+01  0.22452754680E+02  0.00000000000E+00 0.  1.
         22    1    3    3    0    0 -0.25919092439E+02 -0.93662050810E+01  0.31294851458E+03  0.31415966948E+03  0.00000000000E+00 0.  1.
</event>
<event>
 7    1  0.5854318E-006  0.8653041E+02  0.7818608E-02  0.1328898E+00
          2   -1    0    0  502    0  0.00000000000E+00  0.00000000000E+00  0.25127352164E+04  0.25127352164E+04  0.00000000000E+00 0. -1.
          1   -1    0    0  501    0 -0.00000000000E+00 -0.00000000000E+00 -0.54186513709E+03  0.54186513709E+03  0.00000000000E+00 0. -1.
         25    2    1    2    0    0 -0.68807854027E+02  0.21655563376E+02  0.26070893871E+03  0.29798915012E+03  0.12499959467E+03 0.  0.
          2    1    1    2  501    0  0.27026812008E+02 -0.82807592657E+02 -0.51898038813E+03  0.52623966900E+03  0.00000000000E+00 0. -1.
          1    1    1    2  502    0  0.41781042019E+02  0.61152029281E+02  0.22291415288E+04  0.22303715344E+04  0.00000000000E+00 0. -1.
         22    1    3    3    0    0  0.18101986781E+02 -0.32253237842E+02  0.38568062550E+02  0.53436398883E+02  0.00000000000E+00 0.  1.
         22    1    3    3    0    0 -0.86909840808E+02  0.53908801218E+02  0.22214087616E+03  0.24455275124E+03  0.00000000000E+00 0.  1.
</event>
<event>
 7    1  0.5854318E-006  0.6096242E+02  0.7818608E-02  0.1437132E+00
          2   -1    0    0  502    0  0.00000000000E+00  0.00000000000E+00  0.83080026230E+03  0.83080026230E+03  0.00000000000E+00 0. -1.
          1   -1    0    0  501    0 -0.00000000000E+00 -0.00000000000E+00 -0.70419109536E+03  0.70419109536E+03  0.00000000000E+00 0. -1.
         25    2    1    2    0    0  0.66086501432E+02 -0.42983669691E+02  0.22969535873E+02  0.14955822464E+03  0.12500016579E+03 0.  0.
          2    1    1    2  501    0 -0.24404726627E+02  0.55769827746E+02 -0.63881021802E+03  0.64170426133E+03  0.00000000000E+00 0. -1.
          1    1    1    2  502    0 -0.41681774804E+02 -0.12786158055E+02  0.74244984908E+03  0.74372887169E+03  0.00000000000E+00 0. -1.
         22    1    3    3    0    0 -0.23177256078E+02  0.26008917285E+02  0.27871150027E+01  0.34948776626E+02  0.00000000000E+00 0. -1.
         22    1    3    3    0    0  0.89263757509E+02 -0.68992586975E+02  0.20182420870E+02  0.11460944802E+03  0.00000000000E+00 0. -1.
</event>
<event>
 7    1  0.5854318E-006  0.1187125E+03  0.7818608E-02  0.1396321E+00
          2   -1    0    0  502    0  0.00000000000E+00  0.00000000000E+00  0.10198382695E+04  0.10198382695E+04  0.00000000000E+00 0. -1.
          1   -1    0    0  501    0 -0.00000000000E+00 -0.00000000000E+00 -0.12694981726E+04  0.12694981726E+04  0.00000000000E+00 0. -1.
         25    2    1    2    0    0  0.78439910639E+01  0.88408342628E+02 -0.21593324150E+03  0.26481242464E+03  0.12498356780E+03 0.  0.
          2    1    1    2  501    0  0.75295696046E+01  0.29753913823E+02 -0.10253288132E+04  0.10257880702E+04  0.00000000000E+00 0. -1.
          1    1    1    2  502    0 -0.15373560668E+02 -0.11816225645E+03  0.99160215162E+03  0.99873594725E+03  0.00000000000E+00 0. -1.
         22    1    3    3    0    0  0.16855855095E+02  0.97964640798E+02 -0.78260309139E+02  0.12651429439E+03  0.00000000000E+00 0.  1.
         22    1    3    3    0    0 -0.90118640310E+01 -0.95562981699E+01 -0.13767293236E+03  0.13829813026E+03  0.00000000000E+00 0.  1.
</event>
<event>
 7    1  0.5854318E-006  0.1020225E+03  0.7818608E-02  0.1386182E+00
          2   -1    0    0  502    0  0.00000000000E+00  0.00000000000E+00  0.56734949809E+03  0.56734949809E+03  0.00000000000E+00 0. -1.
          1   -1    0    0  501    0 -0.00000000000E+00 -0.00000000000E+00 -0.26540883280E+03  0.26540883280E+03  0.00000000000E+00 0. -1.
         25    2    1    2    0    0  0.15953542125E+02  0.12560663886E+03 -0.14274481630E+03  0.22811071093E+03  0.12500748228E+03 0.  0.
          2    1    1    2  501    0 -0.13250138874E+02 -0.86962932709E+02 -0.54814839915E+02  0.10364740479E+03  0.00000000000E+00 0. -1.
          1    1    1    2  502    0 -0.27034032509E+01 -0.38643706153E+02  0.49950032151E+03  0.50100021517E+03  0.00000000000E+00 0. -1.
         22    1    3    3    0    0 -0.24159242297E+02  0.56169889018E+02  0.35835353312E+01  0.61250037928E+02  0.00000000000E+00 0.  1.
         22    1    3    3    0    0  0.40112784423E+02  0.69436749844E+02 -0.14632835163E+03  0.16686067300E+03  0.00000000000E+00 0.  1.
</event>
<event>
 7    1  0.5854318E-006  0.6304811E+02  0.7818608E-02  0.1399834E+00
          2   -1    0    0  502    0  0.00000000000E+00  0.00000000000E+00  0.32175911359E+03  0.32175911359E+03  0.00000000000E+00 0. -1.
          1   -1    0    0  501    0 -0.00000000000E+00 -0.00000000000E+00 -0.39980988629E+03  0.39980988629E+03  0.00000000000E+00 0. -1.
         25    2    1    2    0    0 -0.91554654238E+02 -0.42748960028E+02 -0.15481007654E+02  0.16147483803E+03  0.12499893369E+03 0.  0.
          2    1    1    2  501    0  0.35891758182E+02  0.50498389549E+02 -0.30500327572E+03  0.31123191330E+03  0.00000000000E+00 0. -1.
          1    1    1    2  502    0  0.55662896056E+02 -0.77494295218E+01  0.24243351067E+03  0.24886224855E+03  0.00000000000E+00 0. -1.
         22    1    3    3    0    0 -0.10825084109E+03 -0.95741832865E+00  0.11723381264E+02  0.10888801089E+03  0.00000000000E+00 0.  1.
         22    1    3    3    0    0  0.16696186851E+02 -0.41791541699E+02 -0.27204388918E+02  0.52586827146E+02  0.00000000000E+00 0.  1.
</event>
<event>
 7    1  0.5854318E-006  0.5886485E+02  0.7818608E-02  0.1432143E+00
          2   -1    0    0  502    0  0.00000000000E+00  0.00000000000E+00  0.12026325804E+03  0.12026325804E+03  0.00000000000E+00 0. -1.
          1   -1    0    0  501    0 -0.00000000000E+00 -0.00000000000E+00 -0.16550198568E+04  0.16550198568E+04  0.00000000000E+00 0. -1.
         25    2    1    2    0    0  0.62178843065E+02  0.35372895303E+02 -0.92047230112E+03  0.93167253577E+03  0.12500802584E+03 0.  0.
          2    1    1    2  501    0 -0.42356474357E+02  0.20093148470E+02 -0.72057078485E+03  0.72209421928E+03  0.00000000000E+00 0. -1.
          1    1    1    2  502    0 -0.19822368707E+02 -0.55466043773E+02  0.10628648726E+03  0.12151635975E+03  0.00000000000E+00 0. -1.
         22    1    3    3    0    0  0.37560597187E+02 -0.22330031855E+02 -0.10417914072E+03  0.11297221846E+03  0.00000000000E+00 0.  1.
         22    1    3    3    0    0  0.24618245877E+02  0.57702927158E+02 -0.81629316040E+03  0.81870031731E+03  0.00000000000E+00 0.  1.
</event>
<event>
 7    1  0.5854318E-006  0.9921901E+02  0.7818608E-02  0.1360691E+00
          2   -1    0    0  502    0  0.00000000000E+00  0.00000000000E+00  0.12464659589E+04  0.12464659589E+04  0.00000000000E+00 0. -1.
          1   -1    0    0  501    0 -0.00000000000E+00 -0.00000000000E+00 -0.18506444565E+03  0.18506444565E+03  0.00000000000E+00 0. -1.
         25    2    1    2    0    0 -0.25534397604E+02 -0.73289769965E+02 -0.38886983351E+02  0.15214225812E+03  0.12494668219E+03 0.  0.
          2    1    1    2  501    0  0.42172649604E+02 -0.25219810142E+02 -0.80536986783E+02  0.94343931646E+02  0.00000000000E+00 0. -1.
          1    1    1    2  502    0 -0.16638252000E+02  0.98509580108E+02  0.11808254834E+04  0.11850442148E+04  0.00000000000E+00 0. -1.
         22    1    3    3    0    0  0.34053333261E+02  0.28500441500E+01  0.19352244722E+02  0.39271639049E+02  0.00000000000E+00 0.  1.
         22    1    3    3    0    0 -0.59587730865E+02 -0.76139814115E+02 -0.58239228073E+02  0.11287061907E+03  0.00000000000E+00 0.  1.
</event>
<event>
 7    1  0.5854318E-006  0.6253735E+02  0.7818608E-02  0.1424591E+00
          2   -1    0    0  502    0  0.00000000000E+00  0.00000000000E+00  0.32646596229E+04  0.32646596229E+04  0.00000000000E+00 0. -1.
          1   -1    0    0  501    0 -0.00000000000E+00 -0.00000000000E+00 -0.11133321332E+04  0.11133321332E+04  0.00000000000E+00 0. -1.
         25    2    1    2    0    0 -0.35321000315E+02 -0.10242118265E+03  0.28198574931E+02  0.16780367580E+03  0.12500096905E+03 0.  0.
          2    1    1    2  501    0  0.25066417915E+02  0.56825902876E+02 -0.10424328021E+04  0.10442814062E+04  0.00000000000E+00 0. -1.
          1    1    1    2  502    0  0.10254582400E+02  0.45595279773E+02  0.31655617168E+04  0.31659066740E+04  0.00000000000E+00 0. -1.
         22    1    3    3    0    0  0.25190315490E+02  0.11115522335E+02 -0.15906666899E+02  0.31798252831E+02  0.00000000000E+00 0.  1.
         22    1    3    3    0    0 -0.60511315805E+02 -0.11353670499E+03  0.44105241830E+02  0.13600542297E+03  0.00000000000E+00 0.  1.
</event>
<event>
 7    1  0.5854318E-006  0.1600664E+03  0.7818608E-02  0.1327983E+00
          2   -1    0    0  502    0  0.00000000000E+00  0.00000000000E+00  0.13045497194E+04  0.13045497194E+04  0.00000000000E+00 0. -1.
          1   -1    0    0  501    0 -0.00000000000E+00 -0.00000000000E+00 -0.49637269287E+02  0.49637269287E+02  0.00000000000E+00 0. -1.
         25    2    1    2    0    0  0.16591054130E+03  0.14326380610E+02  0.79026108624E+03  0.81723272845E+03  0.12500078052E+03 0.  0.
          2    1    1    2  501    0 -0.11511993563E+02 -0.38685194055E+02 -0.62008166849E+01  0.40835283303E+02  0.00000000000E+00 0. -1.
          1    1    1    2  502    0 -0.15439854774E+03  0.24358813445E+02  0.47085218053E+03  0.49611897691E+03  0.00000000000E+00 0. -1.
         22    1    3    3    0    0  0.26676713955E+02 -0.48471832548E+02  0.19650512629E+03  0.20414561047E+03  0.00000000000E+00 0.  1.
         22    1    3    3    0    0  0.13923382734E+03  0.62798213158E+02  0.59375595995E+03  0.61308711798E+03  0.00000000000E+00 0.  1.
</event>
<event>
 7    1  0.5854318E-006  0.6023403E+02  0.7818608E-02  0.1436459E+00
          2   -1    0    0  502    0  0.00000000000E+00  0.00000000000E+00  0.92066799415E+02  0.92066799415E+02  0.00000000000E+00 0. -1.
          1   -1    0    0  501    0 -0.00000000000E+00 -0.00000000000E+00 -0.11644758636E+04  0.11644758636E+04  0.00000000000E+00 0. -1.
         25    2    1    2    0    0 -0.22192714061E+02 -0.86892551536E+02 -0.24059888716E+03  0.28557627635E+03  0.12499261194E+03 0.  0.
          2    1    1    2  501    0  0.33712454933E+02  0.28815638679E+02 -0.88813797384E+03  0.88924458459E+03  0.00000000000E+00 0. -1.
          1    1    1    2  502    0 -0.11519740872E+02  0.58076912858E+02  0.56327796827E+02  0.81721802062E+02  0.00000000000E+00 0. -1.
         22    1    3    3    0    0 -0.21280198232E+02 -0.83729418579E+02 -0.25581461157E+03  0.27000847739E+03  0.00000000000E+00 0. -1.
         22    1    3    3    0    0 -0.91251582899E+00 -0.31631329573E+01  0.15215724405E+02  0.15567798958E+02  0.00000000000E+00 0. -1.
</event>
<event>
 7    1  0.5854318E-006  0.8099485E+02  0.7818608E-02  0.1357170E+00
          2   -1    0    0  502    0  0.00000000000E+00  0.00000000000E+00  0.43630704740E+03  0.43630704740E+03  0.00000000000E+00 0. -1.
          1   -1    0    0  501    0 -0.00000000000E+00 -0.00000000000E+00 -0.57134282308E+03  0.57134282308E+03  0.00000000000E+00 0. -1.
         25    2    1    2    0    0  0.12915123463E+02  0.11830098329E+03 -0.20944879214E+03  0.27139583367E+03  0.12499991576E+03 0.  0.
          2    1    1    2  501    0  0.33326560699E+02 -0.52287816394E+02 -0.32394424480E+03  0.32982502806E+03  0.00000000000E+00 0. -1.
          1    1    1    2  502    0 -0.46241684161E+02 -0.66013166893E+02  0.39835726126E+03  0.40642900876E+03  0.00000000000E+00 0. -1.
         22    1    3    3    0    0  0.46952252062E+02  0.23349606268E+01 -0.32651198155E+02  0.57236935241E+02  0.00000000000E+00 0.  1.
         22    1    3    3    0    0 -0.34037128599E+02  0.11596602266E+03 -0.17679759399E+03  0.21415889843E+03  0.00000000000E+00 0.  1.
</event>
<event>
 7    1  0.5854318E-006  0.4950314E+02  0.7818608E-02  0.1504099E+00
          2   -1    0    0  502    0  0.00000000000E+00  0.00000000000E+00  0.46802783854E+03  0.46802783854E+03  0.00000000000E+00 0. -1.
          1   -1    0    0  501    0 -0.00000000000E+00 -0.00000000000E+00 -0.33193044916E+02  0.33193044916E+02  0.00000000000E+00 0. -1.
         25    2    1    2    0    0 -0.68834462376E+02  0.33814816725E+02  0.21758958001E+03  0.26239876162E+03  0.12500503883E+03 0.  0.
          2    1    1    2  501    0  0.37843412888E+02 -0.21796828825E+02  0.42481367700E+02  0.60925300553E+02  0.00000000000E+00 0. -1.
          1    1    1    2  502    0  0.30991049488E+02 -0.12017987900E+02  0.17476384591E+03  0.17789682128E+03  0.00000000000E+00 0. -1.
         22    1    3    3    0    0 -0.40356094037E+02  0.75715935446E+02  0.17970845001E+03  0.19913976050E+03  0.00000000000E+00 0. -1.
         22    1    3    3    0    0 -0.28478368338E+02 -0.41901118721E+02  0.37881129994E+02  0.63259001122E+02  0.00000000000E+00 0. -1.
</event>
<event>
 7    1  0.5854318E-006  0.1601266E+03  0.7818608E-02  0.1195211E+00
          2   -1    0    0  502    0  0.00000000000E+00  0.00000000000E+00  0.20719867118E+04  0.20719867118E+04  0.00000000000E+00 0. -1.
          1   -1    0    0  501    0 -0.00000000000E+00 -0.00000000000E+00 -0.22440834282E+03  0.22440834282E+03  0.00000000000E+00 0. -1.
         25    2    1    2    0    0 -0.22943375696E+03 -0.87452415594E+02  0.17918312504E+03  0.32866368968E+03  0.12500181913E+03 0.  0.
          2    1    1    2  501    0  0.14204839089E+03 -0.44343533936E+02 -0.10827887475E+03  0.18403371722E+03  0.00000000000E+00 0. -1.
          1    1    1    2  502    0  0.87385366072E+02  0.13179594953E+03  0.17766741187E+04  0.17836976478E+04  0.00000000000E+00 0. -1.
         22    1    3    3    0    0 -0.17693023428E+03 -0.14775636566E+02  0.15529122417E+03  0.23587706871E+03  0.00000000000E+00 0.  1.
         22    1    3    3    0    0 -0.52503522680E+02 -0.72676779028E+02  0.23891900879E+02  0.92786620972E+02  0.00000000000E+00 0.  1.
</event>
<event>
 7    1  0.5854318E-006  0.5045486E+02  0.7818608E-02  0.1486170E+00
          2   -1    0    0  502    0  0.00000000000E+00  0.00000000000E+00  0.82554381351E+03  0.82554381351E+03  0.00000000000E+00 0. -1.
          1   -1    0    0  501    0 -0.00000000000E+00 -0.00000000000E+00 -0.16746722696E+03  0.16746722696E+03  0.00000000000E+00 0. -1.
         25    2    1    2    0    0  0.84434628168E+02 -0.32109563696E+01 -0.18079180324E+01  0.15088485997E+03  0.12499382275E+03 0.  0.
          2    1    1    2  501    0 -0.47596488560E+02  0.77110418101E+00 -0.84414856196E+02  0.96911755074E+02  0.00000000000E+00 0. -1.
          1    1    1    2  502    0 -0.36838139608E+02  0.24398521886E+01  0.74429936077E+03  0.74521442542E+03  0.00000000000E+00 0. -1.
         22    1    3    3    0    0  0.26523851984E+02  0.56505812615E+02  0.18789045148E+02  0.65187804082E+02  0.00000000000E+00 0. -1.
         22    1    3    3    0    0  0.57910776184E+02 -0.59716768985E+02 -0.20596963180E+02  0.85697055891E+02  0.00000000000E+00 0. -1.
</event>
<event>
 7    1  0.5854318E-006  0.5872101E+02  0.7818608E-02  0.1452190E+00
          2   -1    0    0  502    0  0.00000000000E+00  0.00000000000E+00  0.51808048362E+03  0.51808048362E+03  0.00000000000E+00 0. -1.
          1   -1    0    0  501    0 -0.00000000000E+00 -0.00000000000E+00 -0.12339247477E+04  0.12339247477E+04  0.00000000000E+00 0. -1.
         25    2    1    2    0    0 -0.38835367513E+02 -0.12831228743E+02  0.12336330691E+02  0.13209566839E+03  0.12499701737E+03 0.  0.
          2    1    1    2  501    0  0.97697399404E+01 -0.39278983682E+02 -0.11716977813E+04  0.11723966808E+04  0.00000000000E+00 0. -1.
          1    1    1    2  502    0  0.29065627572E+02  0.52110212426E+02  0.44351718653E+03  0.44751288216E+03  0.00000000000E+00 0. -1.
         22    1    3    3    0    0 -0.21126052192E+02 -0.62098534516E+02  0.35796976796E+02  0.74725909951E+02  0.00000000000E+00 0.  1.
         22    1    3    3    0    0 -0.17709315321E+02  0.49267305773E+02 -0.23460646105E+02  0.57369758435E+02  0.00000000000E+00 0.  1.
</event>
<event>
 7    1  0.5854318E-006  0.8032661E+02  0.7818608E-02  0.1393134E+00
          2   -1    0    0  502    0  0.00000000000E+00  0.00000000000E+00  0.10253935372E+04  0.10253935372E+04  0.00000000000E+00 0. -1.
          1   -1    0    0  501    0 -0.00000000000E+00 -0.00000000000E+00 -0.20556921954E+03  0.20556921954E+03  0.00000000000E+00 0. -1.
         25    2    1    2    0    0 -0.86077964343E+02  0.33525612364E+02  0.70247609884E+03  0.71946618312E+03  0.12500214632E+03 0.  0.
          2    1    1    2  501    0  0.79350406796E+02  0.12512476922E+02 -0.18704635917E+03  0.20356667119E+03  0.00000000000E+00 0. -1.
          1    1    1    2  502    0  0.67275575476E+01 -0.46038089286E+02  0.30439457796E+03  0.30792990239E+03  0.00000000000E+00 0. -1.
         22    1    3    3    0    0 -0.72750386563E+02 -0.34358826150E+02  0.47282507295E+03  0.47962141038E+03  0.00000000000E+00 0. -1.
         22    1    3    3    0    0 -0.13327577781E+02  0.67884438514E+02  0.22965102589E+03  0.23984477275E+03  0.00000000000E+00 0. -1.
</event>
<event>
 7    1  0.5854318E-006  0.3348786E+03  0.7818608E-02  0.1179106E+00
          2   -1    0    0  502    0  0.00000000000E+00  0.00000000000E+00  0.15126166504E+04  0.15126166504E+04  0.00000000000E+00 0. -1.
          1   -1    0    0  501    0 -0.00000000000E+00 -0.00000000000E+00 -0.37710970808E+03  0.37710970808E+03  0.00000000000E+00 0. -1.
         25    2    1    2    0    0 -0.16095519329E+03 -0.31248366848E+03  0.99188684191E+02  0.38602444845E+03  0.12499544958E+03 0.  0.
          2    1    1    2  501    0 -0.58873542496E+02  0.61428074490E+02 -0.20307105082E+03  0.22017573441E+03  0.00000000000E+00 0. -1.
          1    1    1    2  502    0  0.21982873578E+03  0.25105559399E+03  0.12393893089E+04  0.12835261756E+04  0.00000000000E+00 0. -1.
         22    1    3    3    0    0 -0.81321516390E+02 -0.10012637089E+03 -0.18830299081E+02  0.13035742917E+03  0.00000000000E+00 0. -1.
         22    1    3    3    0    0 -0.79633676899E+02 -0.21235729758E+03  0.11801898327E+03  0.25566701928E+03  0.00000000000E+00 0. -1.
</event>
<event>
 7    1  0.5854318E-006  0.6645857E+02  0.7818608E-02  0.1399057E+00
          2   -1    0    0  502    0  0.00000000000E+00  0.00000000000E+00  0.14833559792E+04  0.14833559792E+04  0.00000000000E+00 0. -1.
          1   -1    0    0  501    0 -0.00000000000E+00 -0.00000000000E+00 -0.31565632079E+02  0.31565632079E+02  0.00000000000E+00 0. -1.
         25    2    1    2    0    0  0.10480913163E+03 -0.21218026311E+02  0.39654093193E+03  0.42930749751E+03  0.12500023203E+03 0.  0.
          2    1    1    2  501    0 -0.52159726018E+02  0.31504670518E+02  0.49697301302E+02  0.78632073860E+02  0.00000000000E+00 0. -1.
          1    1    1    2  502    0 -0.52649405607E+02 -0.10286644207E+02  0.10055521139E+04  0.10069820399E+04  0.00000000000E+00 0. -1.
         22    1    3    3    0    0 -0.27179437163E+02 -0.14423584462E+02  0.10050113754E+03  0.10510585255E+03  0.00000000000E+00 0. -1.
         22    1    3    3    0    0  0.13198856879E+03 -0.67944418493E+01  0.29603979439E+03  0.32420164496E+03  0.00000000000E+00 0. -1.
</event>
<event>
 7    1  0.5854318E-006  0.6326753E+02  0.7818608E-02  0.1470258E+00
          2   -1    0    0  502    0  0.00000000000E+00  0.00000000000E+00  0.18344925753E+04  0.18344925753E+04  0.00000000000E+00 0. -1.
          1   -1    0    0  501    0 -0.00000000000E+00 -0.00000000000E+00 -0.33282527399E+02  0.33282527399E+02  0.00000000000E+00 0. -1.
         25    2    1    2    0    0  0.38866246606E+02 -0.38868154198E+02  0.47471284892E+03  0.49396181790E+03  0.12499868029E+03 0.  0.
          2    1    1    2  501    0 -0.16067481312E+02  0.62662714941E+02  0.21163595998E+02  0.68063775939E+02  0.00000000000E+00 0. -1.
          1    1    1    2  502    0 -0.22798765294E+02 -0.23794560743E+02  0.13053336029E+04  0.13057495088E+04  0.00000000000E+00 0. -1.
         22    1    3    3    0    0  0.38658019932E+02 -0.72712012221E+02  0.43037546943E+03  0.43818320816E+03  0.00000000000E+00 0.  1.
         22    1    3    3    0    0  0.20822667418E+00  0.33843858023E+02  0.44337379492E+02  0.55778609739E+02  0.00000000000E+00 0.  1.
</event>
<event>
 7    1  0.5854318E-006  0.6578338E+02  0.7818608E-02  0.1492485E+00
          2   -1    0    0  502    0  0.00000000000E+00  0.00000000000E+00  0.48814303685E+03  0.48814303685E+03  0.00000000000E+00 0. -1.
          1   -1    0    0  501    0 -0.00000000000E+00 -0.00000000000E+00 -0.60685363049E+03  0.60685363049E+03  0.00000000000E+00 0. -1.
         25    2    1    2    0    0 -0.45189025497E+02 -0.46847551636E+02  0.15030773031E+03  0.20604608113E+03  0.12500333051E+03 0.  0.
          2    1    1    2  501    0  0.22190144094E+02 -0.15550455571E+02 -0.57509489481E+03  0.57573288703E+03  0.00000000000E+00 0. -1.
          1    1    1    2  502    0  0.22998881403E+02  0.62398007207E+02  0.30607657087E+03  0.31321769918E+03  0.00000000000E+00 0. -1.
         22    1    3    3    0    0 -0.71581765334E+01  0.25212075581E+02 -0.85026672844E+01  0.27553286507E+02  0.00000000000E+00 0. -1.
         22    1    3    3    0    0 -0.38030848964E+02 -0.72059627217E+02  0.15881039760E+03  0.17849279462E+03  0.00000000000E+00 0. -1.
</event>
<event>
 7    1  0.5854318E-006  0.7219137E+02  0.7818608E-02  0.1421219E+00
          2   -1    0    0  502    0  0.00000000000E+00  0.00000000000E+00  0.16064155190E+03  0.16064155190E+03  0.00000000000E+00 0. -1.
          1   -1    0    0  501    0 -0.00000000000E+00 -0.00000000000E+00 -0.14043023902E+04  0.14043023902E+04  0.00000000000E+00 0. -1.
         25    2    1    2    0    0  0.53102730873E+02  0.94348529577E+02 -0.10864011777E+04  0.10989148043E+04  0.12499873237E+03 0.  0.
          2    1    1    2  501    0 -0.32955735728E+02 -0.25293760085E+02 -0.30176418181E+03  0.30461036791E+03  0.00000000000E+00 0. -1.
          1    1    1    2  502    0 -0.20146995145E+02 -0.69054769491E+02  0.14450452125E+03  0.16141876987E+03  0.00000000000E+00 0. -1.
         22    1    3    3    0    0  0.33104797349E+02  0.11963854619E+03 -0.97721884133E+03  0.98507155740E+03  0.00000000000E+00 0.  1.
         22    1    3    3    0    0  0.19997933525E+02 -0.25290016609E+02 -0.10918233637E+03  0.11384324688E+03  0.00000000000E+00 0.  1.
</event>
<event>
 7    1  0.5854318E-006  0.4626132E+02  0.7818608E-02  0.1514100E+00
          2   -1    0    0  502    0  0.00000000000E+00  0.00000000000E+00  0.36988534770E+03  0.36988534770E+03  0.00000000000E+00 0. -1.
          1   -1    0    0  501    0 -0.00000000000E+00 -0.00000000000E+00 -0.11504047824E+04  0.11504047824E+04  0.00000000000E+00 0. -1.
         25    2    1    2    0    0  0.14443012541E+02  0.27833941493E+00  0.27875508023E+03  0.30584056638E+03  0.12500151680E+03 0.  0.
          2    1    1    2  501    0  0.26743128602E+01 -0.46183952358E+02 -0.11286063920E+04  0.11295541145E+04  0.00000000000E+00 0. -1.
          1    1    1    2  502    0 -0.17117325401E+02  0.45905612943E+02  0.69331877072E+02  0.84895449271E+02  0.00000000000E+00 0. -1.
         22    1    3    3    0    0  0.24979509856E+01 -0.60285641225E+02  0.17500707715E+03  0.18511638326E+03  0.00000000000E+00 0. -1.
         22    1    3    3    0    0  0.11945061555E+02  0.60563980640E+02  0.10374800308E+03  0.12072418312E+03  0.00000000000E+00 0. -1.
</event>
<event>
 7    1  0.5854318E-006  0.7033864E+02  0.7818608E-02  0.1519215E+00
          2   -1    0    0  502    0  0.00000000000E+00  0.00000000000E+00  0.56212569753E+03  0.56212569753E+03  0.00000000000E+00 0. -1.
          1   -1    0    0  501    0 -0.00000000000E+00 -0.00000000000E+00 -0.18219684590E+03  0.18219684590E+03  0.00000000000E+00 0. -1.
         25    2    1    2    0    0 -0.54736333552E+02  0.23298014259E+02 -0.85066296958E+02  0.16248015013E+03  0.12499864250E+03 0.  0.
          2    1    1    2  501    0 -0.15310797319E+02 -0.14548025641E+02 -0.54044294589E+02  0.58024575330E+02  0.00000000000E+00 0. -1.
          1    1    1    2  502    0  0.70047130870E+02 -0.87499886180E+01  0.51903944318E+03  0.52381781797E+03  0.00000000000E+00 0. -1.
         22    1    3    3    0    0 -0.24613347969E+02 -0.43221494491E+02 -0.73200954379E+02  0.88500249753E+02  0.00000000000E+00 0. -1.
         22    1    3    3    0    0 -0.30122985583E+02  0.66519508750E+02 -0.11865342579E+02  0.73979900374E+02  0.00000000000E+00 0. -1.
</event>
<event>
 7    1  0.5854318E-006  0.3770566E+02  0.7818608E-02  0.1571780E+00
          2   -1    0    0  502    0  0.00000000000E+00  0.00000000000E+00  0.70965530895E+01  0.70965530895E+01  0.00000000000E+00 0. -1.
          1   -1    0    0  501    0 -0.00000000000E+00 -0.00000000000E+00 -0.14554983789E+04  0.14554983789E+04  0.00000000000E+00 0. -1.
         25    2    1    2    0    0  0.13460483024E+02 -0.46707749164E+02 -0.11132661842E+04  0.11213161711E+04  0.12500224085E+03 0.  0.
          2    1    1    2  501    0  0.11013670568E+02  0.33002860079E+02 -0.14685395750E+03  0.15091909934E+03  0.00000000000E+00 0. -1.
          1    1    1    2  502    0 -0.24474153592E+02  0.13704889086E+02 -0.18828168407E+03  0.19035966152E+03  0.00000000000E+00 0. -1.
         22    1    3    3    0    0 -0.47406269776E+02 -0.44389140237E+02 -0.76603149214E+03  0.76877955042E+03  0.00000000000E+00 0. -1.
         22    1    3    3    0    0  0.60866752800E+02 -0.23186089279E+01 -0.34723469209E+03  0.35253662070E+03  0.00000000000E+00 0. -1.
</event>
<event>
 7    1  0.5854318E-006  0.8398032E+02  0.7818608E-02  0.1429504E+00
          2   -1    0    0  502    0  0.00000000000E+00  0.00000000000E+00  0.38356595038E+02  0.38356595038E+02  0.00000000000E+00 0. -1.
          1   -1    0    0  501    0 -0.00000000000E+00 -0.00000000000E+00 -0.56540870832E+03  0.56540870832E+03  0.00000000000E+00 0. -1.
         25    2    1    2    0    0  0.45560688835E+01  0.76802760298E+02 -0.35915079714E+03  0.38797571749E+03  0.12496575739E+03 0.  0.
          2    1    1    2  501    0  0.26748597737E+02 -0.88796972346E+02 -0.15342168122E+03  0.17927242412E+03  0.00000000000E+00 0. -1.
          1    1    1    2  502    0 -0.31304666621E+02  0.11994212048E+02 -0.14479634909E+02  0.36517161746E+02  0.00000000000E+00 0. -1.
         22    1    3    3    0    0  0.60275832641E+02  0.20767967033E+02 -0.20599750639E+03  0.21563732769E+03  0.00000000000E+00 0.  1.
         22    1    3    3    0    0 -0.55719763757E+02  0.56034793265E+02 -0.15315329075E+03  0.17233838980E+03  0.00000000000E+00 0.  1.
</event>
<event>
 7    1  0.5854318E-006  0.7289527E+02  0.7818608E-02  0.1417512E+00
          2   -1    0    0  502    0  0.00000000000E+00  0.00000000000E+00  0.28625420003E+02  0.28625420003E+02  0.00000000000E+00 0. -1.
          1   -1    0    0  501    0 -0.00000000000E+00 -0.00000000000E+00 -0.95576432372E+03  0.95576432372E+03  0.00000000000E+00 0. -1.
         25    2    1    2    0    0  0.35584426423E+02  0.82449237869E+02 -0.44342455232E+03  0.46937719500E+03  0.12500195740E+03 0.  0.
          2    1    1    2  501    0  0.51331926673E+01 -0.70865393027E+02 -0.46200648760E+03  0.46743796185E+03  0.00000000000E+00 0. -1.
          1    1    1    2  502    0 -0.40717619090E+02 -0.11583844843E+02 -0.21707863797E+02  0.47574586875E+02  0.00000000000E+00 0. -1.
         22    1    3    3    0    0  0.42069473976E+02  0.89322979705E+01 -0.38312766817E+02  0.57597696905E+02  0.00000000000E+00 0.  1.
         22    1    3    3    0    0 -0.64850475528E+01  0.73516939899E+02 -0.40511178551E+03  0.41177949809E+03  0.00000000000E+00 0.  1.
</event>
<event>
 7    1  0.5854318E-006  0.1351230E+03  0.7818608E-02  0.1267601E+00
          2   -1    0    0  502    0  0.00000000000E+00  0.00000000000E+00  0.83913278596E+03  0.83913278596E+03  0.00000000000E+00 0. -1.
          1   -1    0    0  501    0 -0.00000000000E+00 -0.00000000000E+00 -0.45278856245E+03  0.45278856245E+03  0.00000000000E+00 0. -1.
         25    2    1    2    0    0  0.88045828673E+02  0.21507467549E+02  0.37824402960E+02  0.15896594415E+03  0.12499938733E+03 0.  0.
          2    1    1    2  501    0  0.74442161329E+01  0.83275097889E+02 -0.38085856453E+03  0.38992743486E+03  0.00000000000E+00 0. -1.
          1    1    1    2  502    0 -0.95490044806E+02 -0.10478256544E+03  0.72937838509E+03  0.74302796940E+03  0.00000000000E+00 0. -1.
         22    1    3    3    0    0  0.40749404113E+02 -0.32090102808E+02 -0.30426405321E+02  0.60133640955E+02  0.00000000000E+00 0. -1.
         22    1    3    3    0    0  0.47296424560E+02  0.53597570357E+02  0.68250808281E+02  0.98832303198E+02  0.00000000000E+00 0. -1.
</event>
<event>
 7    1  0.5854318E-006  0.5454661E+02  0.7818608E-02  0.1528775E+00
          2   -1    0    0  502    0  0.00000000000E+00  0.00000000000E+00  0.46611163906E+03  0.46611163906E+03  0.00000000000E+00 0. -1.
          1   -1    0    0  501    0 -0.00000000000E+00 -0.00000000000E+00 -0.36101007649E+03  0.36101007649E+03  0.00000000000E+00 0. -1.
         25    2    1    2    0    0  0.32549953418E+02  0.34202642309E+02 -0.71066040219E+02  0.15134361022E+03  0.12500074429E+03 0.  0.
          2    1    1    2  501    0 -0.15535342059E+02 -0.53272797750E+02 -0.24633260506E+03  0.25250562400E+03  0.00000000000E+00 0. -1.
          1    1    1    2  502    0 -0.17014611359E+02  0.19070155440E+02  0.42250020785E+03  0.42327248134E+03  0.00000000000E+00 0. -1.
         22    1    3    3    0    0  0.67973087017E+02  0.12906869178E+02 -0.83255843900E+02  0.10825185160E+03  0.00000000000E+00 0. -1.
         22    1    3    3    0    0 -0.35423133599E+02  0.21295773131E+02  0.12189803680E+02  0.43091758620E+02  0.00000000000E+00 0. -1.
</event>
<event>
 7    1  0.5854318E-006  0.1445577E+03  0.7818608E-02  0.1404256E+00
          2   -1    0    0  502    0  0.00000000000E+00  0.00000000000E+00  0.38440884099E+03  0.38440884099E+03  0.00000000000E+00 0. -1.
          1   -1    0    0  501    0 -0.00000000000E+00 -0.00000000000E+00 -0.20862026650E+04  0.20862026650E+04  0.00000000000E+00 0. -1.
         25    2    1    2    0    0  0.78417951086E+02  0.92948021150E+02  0.96379254361E+02  0.19925381072E+03  0.12499764289E+03 0.  0.
          2    1    1    2  501    0 -0.96670037960E+02 -0.10801935619E+03 -0.20315842769E+04  0.20367493591E+04  0.00000000000E+00 0. -1.
          1    1    1    2  502    0  0.18252086874E+02  0.15071335040E+02  0.23341119853E+03  0.23460833620E+03  0.00000000000E+00 0. -1.
         22    1    3    3    0    0  0.63321497520E+02  0.12423727289E+03  0.73185404981E+02  0.15748211176E+03  0.00000000000E+00 0.  1.
         22    1    3    3    0    0  0.15096453566E+02 -0.31289251741E+02  0.23193849380E+02  0.41771698958E+02  0.00000000000E+00 0.  1.
</event>
<event>
 7    1  0.5854318E-006  0.1457261E+03  0.7818608E-02  0.1270941E+00
          2   -1    0    0  502    0  0.00000000000E+00  0.00000000000E+00  0.20808349865E+04  0.20808349865E+04  0.00000000000E+00 0. -1.
          1   -1    0    0  501    0 -0.00000000000E+00 -0.00000000000E+00 -0.35192168531E+03  0.35192168531E+03  0.00000000000E+00 0. -1.
         25    2    1    2    0    0 -0.34820114417E+02  0.18989970029E+03  0.49751696451E+03  0.54810748552E+03  0.12499739664E+03 0.  0.
          2    1    1    2  501    0  0.72617133830E+02 -0.12505307424E+03 -0.30966246279E+03  0.34176360304E+03  0.00000000000E+00 0. -1.
          1    1    1    2  502    0 -0.37797019413E+02 -0.64846626050E+02  0.15410587995E+04  0.15428855833E+04  0.00000000000E+00 0. -1.
         22    1    3    3    0    0  0.34538915747E+01  0.16467973853E+03  0.46087556098E+03  0.48942581497E+03  0.00000000000E+00 0.  1.
         22    1    3    3    0    0 -0.38274005992E+02  0.25219961756E+02  0.36641403530E+02  0.58681670548E+02  0.00000000000E+00 0.  1.
</event>
<event>
 7    1  0.5854318E-006  0.4287680E+02  0.7818608E-02  0.1497149E+00
          2   -1    0    0  502    0  0.00000000000E+00  0.00000000000E+00  0.17611494479E+03  0.17611494479E+03  0.00000000000E+00 0. -1.
          1   -1    0    0  501    0 -0.00000000000E+00 -0.00000000000E+00 -0.33038529235E+03  0.33038529235E+03  0.00000000000E+00 0. -1.
         25    2    1    2    0    0 -0.88394930176E+01  0.22828087249E+02 -0.95046624300E+02  0.15892693717E+03  0.12499860945E+03 0.  0.
          2    1    1    2  501    0 -0.29758779160E+02 -0.34247453642E+02 -0.19797192558E+03  0.20310429916E+03  0.00000000000E+00 0. -1.
          1    1    1    2  502    0  0.38598272177E+02  0.11419366392E+02  0.13874820233E+03  0.14446900080E+03  0.00000000000E+00 0. -1.
         22    1    3    3    0    0 -0.67635143095E+01  0.74041111087E+02 -0.68997776559E+02  0.10143236380E+03  0.00000000000E+00 0. -1.
         22    1    3    3    0    0 -0.20759787081E+01 -0.51213023838E+02 -0.26048847741E+02  0.57494573369E+02  0.00000000000E+00 0. -1.
</event>
<event>
 7    1  0.5854318E-006  0.1073533E+03  0.7818608E-02  0.1354240E+00
          2   -1    0    0  502    0  0.00000000000E+00  0.00000000000E+00  0.61261981569E+02  0.61261981569E+02  0.00000000000E+00 0. -1.
          1   -1    0    0  501    0 -0.00000000000E+00 -0.00000000000E+00 -0.13075215859E+04  0.13075215859E+04  0.00000000000E+00 0. -1.
         25    2    1    2    0    0 -0.33674766824E+02  0.11924656000E+03 -0.81985863791E+03  0.83853848607E+03  0.12499949789E+03 0.  0.
          2    1    1    2  501    0 -0.32424147367E+02 -0.35332097602E+02 -0.42053802903E+03  0.42326341244E+03  0.00000000000E+00 0. -1.
          1    1    1    2  502    0  0.66098914191E+02 -0.83914462401E+02 -0.58629373922E+01  0.10698166895E+03  0.00000000000E+00 0. -1.
         22    1    3    3    0    0 -0.57627954796E+02  0.13330599186E+03 -0.73626121793E+03  0.75044789937E+03  0.00000000000E+00 0. -1.
         22    1    3    3    0    0  0.23953187971E+02 -0.14059431859E+02 -0.83597419985E+02  0.88090586707E+02  0.00000000000E+00 0. -1.
</event>
<event>
 7    1  0.5854318E-006  0.9498520E+02  0.7818608E-02  0.1334099E+00
          2   -1    0    0  502    0  0.00000000000E+00  0.00000000000E+00  0.48453235606E+03  0.48453235606E+03  0.00000000000E+00 0. -1.
          1   -1    0    0  501    0 -0.00000000000E+00 -0.00000000000E+00 -0.10696043059E+04  0.10696043059E+04  0.00000000000E+00 0. -1.
         25    2    1    2    0    0  0.30292095039E+02  0.57854406971E+02  0.18573509049E+03  0.23320935145E+03  0.12499733731E+03 0.  0.
          2    1    1    2  501    0  0.64371392561E+02  0.33673084061E+01 -0.10332691516E+04  0.10352778152E+04  0.00000000000E+00 0. -1.
          1    1    1    2  502    0 -0.94663487600E+02 -0.61221715377E+02  0.26246211128E+03  0.28564949532E+03  0.00000000000E+00 0. -1.
         22    1    3    3    0    0 -0.45837691772E+02  0.14203517048E+01  0.69019203493E+02  0.82865926875E+02  0.00000000000E+00 0.  1.
         22    1    3    3    0    0  0.76129786811E+02  0.56434055266E+02  0.11671588700E+03  0.15034342457E+03  0.00000000000E+00 0.  1.
</event>
<event>
 7    1  0.5854318E-006  0.7072260E+02  0.7818608E-02  0.1445010E+00
          2   -1    0    0  502    0  0.00000000000E+00  0.00000000000E+00  0.23143868741E+04  0.23143868741E+04  0.00000000000E+00 0. -1.
          1   -1    0    0  501    0 -0.00000000000E+00 -0.00000000000E+00 -0.27956344289E+03  0.27956344289E+03  0.00000000000E+00 0. -1.
         25    2    1    2    0    0  0.15588359002E+02  0.91337714255E+02  0.54458587790E+02  0.16484432006E+03  0.12498934790E+03 0.  0.
          2    1    1    2  501    0  0.11817359480E+02 -0.68873002894E+02 -0.21878343737E+03  0.22967222944E+03  0.00000000000E+00 0. -1.
          1    1    1    2  502    0 -0.27405718482E+02 -0.22464711361E+02  0.21991482808E+04  0.21994337675E+04  0.00000000000E+00 0. -1.
         22    1    3    3    0    0  0.53506617519E+02  0.10665377835E+02 -0.91710976745E+01  0.55324654859E+02  0.00000000000E+00 0. -1.
         22    1    3    3    0    0 -0.37918258517E+02  0.80672336420E+02  0.63629685465E+02  0.10951966520E+03  0.00000000000E+00 0. -1.
</event>
<event>
 7    1  0.5854318E-006  0.8492951E+02  0.7818608E-02  0.1316718E+00
          2   -1    0    0  502    0  0.00000000000E+00  0.00000000000E+00  0.15882750934E+03  0.15882750934E+03  0.00000000000E+00 0. -1.
          1   -1    0    0  501    0 -0.00000000000E+00 -0.00000000000E+00 -0.24477523317E+04  0.24477523317E+04  0.00000000000E+00 0. -1.
         25    2    1    2    0    0  0.99557932204E+02  0.31549426952E+02 -0.97113443519E+02  0.18964123154E+03  0.12500251030E+03 0.  0.
          2    1    1    2  501    0 -0.70814480390E+02  0.47478991090E+02 -0.22877634036E+04  0.22893515100E+04  0.00000000000E+00 0. -1.
          1    1    1    2  502    0 -0.28743451814E+02 -0.79028418042E+02  0.95952024841E+02  0.12758709947E+03  0.00000000000E+00 0. -1.
         22    1    3    3    0    0  0.38839031662E+02  0.56877102617E+02  0.40220485083E+01  0.68990231604E+02  0.00000000000E+00 0.  1.
         22    1    3    3    0    0  0.60718900542E+02 -0.25327675665E+02 -0.10113549203E+03  0.12065099993E+03  0.00000000000E+00 0.  1.
</event>
<event>
 7    1  0.5854318E-006  0.1263466E+03  0.7818608E-02  0.1392621E+00
          2   -1    0    0  502    0  0.00000000000E+00  0.00000000000E+00  0.11436027253E+04  0.11436027253E+04  0.00000000000E+00 0. -1.
          1   -1    0    0  501    0 -0.00000000000E+00 -0.00000000000E+00 -0.42674345513E+03  0.42674345513E+03  0.00000000000E+00 0. -1.
         25    2    1    2    0    0  0.47667342949E+02 -0.12570002627E+03 -0.24456156339E+02  0.18518583626E+03  0.12499207246E+03 0.  0.
          2    1    1    2  501    0  0.21682033032E+02  0.20299860094E+02 -0.31748391633E+03  0.31887024321E+03  0.00000000000E+00 0. -1.
          1    1    1    2  502    0 -0.69349375982E+02  0.10540016618E+03  0.10587993429E+04  0.10662901010E+04  0.00000000000E+00 0. -1.
         22    1    3    3    0    0  0.40757600694E+02 -0.12521000031E+03  0.26031609313E+02  0.13422507543E+03  0.00000000000E+00 0. -1.
         22    1    3    3    0    0  0.69097422556E+01 -0.49002596675E+00 -0.50487765652E+02  0.50960760826E+02  0.00000000000E+00 0. -1.
</event>
<event>
 7    1  0.5854318E-006  0.7607914E+02  0.7818608E-02  0.1385425E+00
          2   -1    0    0  502    0  0.00000000000E+00  0.00000000000E+00  0.38953074725E+03  0.38953074725E+03  0.00000000000E+00 0. -1.
          1   -1    0    0  501    0 -0.00000000000E+00 -0.00000000000E+00 -0.41946557009E+03  0.41946557009E+03  0.00000000000E+00 0. -1.
         25    2    1    2    0    0  0.30866792586E+02 -0.60807294612E+01  0.67870867448E+02  0.14568467311E+03  0.12501134019E+03 0.  0.
          2    1    1    2  501    0  0.52227390471E+02  0.20406362718E+01 -0.37257550097E+03  0.37622382758E+03  0.00000000000E+00 0. -1.
          1    1    1    2  502    0 -0.83094183057E+02  0.40400931895E+01  0.27476981068E+03  0.28708781665E+03  0.00000000000E+00 0. -1.
         22    1    3    3    0    0 -0.13508345793E+02  0.51322302895E+02  0.12788129220E+02  0.54589288596E+02  0.00000000000E+00 0.  1.
         22    1    3    3    0    0  0.44375138378E+02 -0.57403032356E+02  0.55082738228E+02  0.91095384518E+02  0.00000000000E+00 0.  1.
</event>
<event>
 7    1  0.5854318E-006  0.6704737E+02  0.7818608E-02  0.1505865E+00
          2   -1    0    0  502    0  0.00000000000E+00  0.00000000000E+00  0.95588573326E+03  0.95588573326E+03  0.00000000000E+00 0. -1.
          1   -1    0    0  501    0 -0.00000000000E+00 -0.00000000000E+00 -0.11197207677E+03  0.11197207677E+03  0.00000000000E+00 0. -1.
         25    2    1    2    0    0  0.48968291886E+02 -0.60914137570E+02  0.54926026960E+03  0.56869824057E+03  0.12498967678E+03 0.  0.
          2    1    1    2  501    0 -0.24751880266E+02  0.62147656604E+02 -0.90890353508E+02  0.11285407905E+03  0.00000000000E+00 0. -1.
          1    1    1    2  502    0 -0.24216411620E+02 -0.12335190339E+01  0.38554374040E+03  0.38630549041E+03  0.00000000000E+00 0. -1.
         22    1    3    3    0    0  0.86766916589E+02 -0.61106523094E+02  0.34440721990E+03  0.36038706705E+03  0.00000000000E+00 0. -1.
         22    1    3    3    0    0 -0.37798624703E+02  0.19238552412E+00  0.20485304970E+03  0.20831117351E+03  0.00000000000E+00 0. -1.
</event>
<event>
 7    1  0.5854318E-006  0.3741901E+02  0.7818608E-02  0.1600243E+00
          2   -1    0    0  502    0  0.00000000000E+00  0.00000000000E+00  0.64656637401E+03  0.64656637401E+03  0.00000000000E+00 0. -1.
          1   -1    0    0  501    0 -0.00000000000E+00 -0.00000000000E+00 -0.76571097816E+03  0.76571097816E+03  0.00000000000E+00 0. -1.
         25    2    1    2    0    0 -0.14765287490E+02  0.86001566695E+01  0.29457566274E+02  0.12955848756E+03  0.12500270829E+03 0.  0.
          2    1    1    2  501    0 -0.22866296722E+02 -0.63880982028E+01 -0.71483672807E+03  0.71523088798E+03  0.00000000000E+00 0. -1.
          1    1    1    2  502    0  0.37631584213E+02 -0.22120584667E+01  0.56623455765E+03  0.56748797662E+03  0.00000000000E+00 0. -1.
         22    1    3    3    0    0  0.91812333580E+00  0.25064368995E+01 -0.49123649582E+02  0.49196119000E+02  0.00000000000E+00 0.  1.
         22    1    3    3    0    0 -0.15683410826E+02  0.60937197700E+01  0.78581215855E+02  0.80362368563E+02  0.00000000000E+00 0.  1.
</event>
<event>
 7    1  0.5854318E-006  0.5460573E+02  0.7818608E-02  0.1450145E+00
          2   -1    0    0  502    0  0.00000000000E+00  0.00000000000E+00  0.16516457935E+04  0.16516457935E+04  0.00000000000E+00 0. -1.
          1   -1    0    0  501    0 -0.00000000000E+00 -0.00000000000E+00 -0.13861373400E+03  0.13861373400E+03  0.00000000000E+00 0. -1.
         25    2    1    2    0    0 -0.11081689545E+02 -0.63898565576E+01  0.33611238584E+03  0.35883118530E+03  0.12499859806E+03 0.  0.
          2    1    1    2  501    0 -0.35226269953E+02 -0.26673951633E+02 -0.12277740376E+03  0.13048632367E+03  0.00000000000E+00 0. -1.
          1    1    1    2  502    0  0.46307959499E+02  0.33063808191E+02  0.12996970774E+04  0.13009420185E+04  0.00000000000E+00 0. -1.
         22    1    3    3    0    0  0.56941072788E+02 -0.85243119769E+01  0.15088330040E+03  0.16149526311E+03  0.00000000000E+00 0.  1.
         22    1    3    3    0    0 -0.68022762334E+02  0.21344554194E+01  0.18522908543E+03  0.19733592219E+03  0.00000000000E+00 0.  1.
</event>
<event>
 7    1  0.5854318E-006  0.5733867E+02  0.7818608E-02  0.1512673E+00
          2   -1    0    0  502    0  0.00000000000E+00  0.00000000000E+00  0.10412824599E+04  0.10412824599E+04  0.00000000000E+00 0. -1.
          1   -1    0    0  501    0 -0.00000000000E+00 -0.00000000000E+00 -0.56445683260E+03  0.56445683260E+03  0.00000000000E+00 0. -1.
         25    2    1    2    0    0  0.51698508182E+02 -0.18833810237E+02  0.56711751830E+03  0.58333076132E+03  0.12500019756E+03 0.  0.
          2    1    1    2  501    0 -0.56835211367E+02 -0.77480254212E+01 -0.55447622162E+03  0.55743533571E+03  0.00000000000E+00 0. -1.
          1    1    1    2  502    0  0.51367031843E+01  0.26581835658E+02  0.46418433064E+03  0.46497319548E+03  0.00000000000E+00 0. -1.
         22    1    3    3    0    0  0.90304657064E+01  0.51177054411E+02  0.27786971756E+03  0.28268749556E+03  0.00000000000E+00 0. -1.
         22    1    3    3    0    0  0.42668042476E+02 -0.70010864648E+02  0.28924780073E+03  0.30064326576E+03  0.00000000000E+00 0. -1.
</event>
<event>
 7    1  0.5854318E-006  0.8710803E+02  0.7818608E-02  0.1386307E+00
          2   -1    0    0  502    0  0.00000000000E+00  0.00000000000E+00  0.39644214912E+04  0.39644214912E+04  0.00000000000E+00 0. -1.
          1   -1    0    0  501    0 -0.00000000000E+00 -0.00000000000E+00 -0.18291678406E+04  0.18291678406E+04  0.00000000000E+00 0. -1.
         25    2    1    2    0    0  0.80441635285E+02  0.88602361639E+02 -0.22232837182E+02  0.17447067194E+03  0.12499792455E+03 0.  0.
          2    1    1    2  501    0 -0.44322329019E+02 -0.94821160492E+01 -0.17300328597E+04  0.17306264978E+04  0.00000000000E+00 0. -1.
          1    1    1    2  502    0 -0.36119306265E+02 -0.79120245590E+02  0.38875193474E+04  0.38884921620E+04  0.00000000000E+00 0. -1.
         22    1    3    3    0    0  0.10126133594E+03  0.55570687083E+02 -0.50705037297E+02  0.12614658231E+03  0.00000000000E+00 0. -1.
         22    1    3    3    0    0 -0.20819700659E+02  0.33031674556E+02  0.28472200115E+02  0.48324089633E+02  0.00000000000E+00 0. -1.
</event>
<event>
 7    1  0.5854318E-006  0.7646632E+02  0.7818608E-02  0.1413838E+00
          2   -1    0    0  502    0  0.00000000000E+00  0.00000000000E+00  0.10024859186E+04  0.10024859186E+04  0.00000000000E+00 0. -1.
          1   -1    0    0  501    0 -0.00000000000E+00 -0.00000000000E+00 -0.94575109906E+03  0.94575109906E+03  0.00000000000E+00 0. -1.
         25    2    1    2    0    0 -0.10986761190E+03  0.30634372215E+02  0.30279520217E+03  0.34687223254E+03  0.12500421731E+03 0.  0.
          2    1    1    2  501    0  0.68459113149E+02 -0.33675136325E+02 -0.92149868145E+03  0.92465154783E+03  0.00000000000E+00 0. -1.
          1    1    1    2  502    0  0.41408498747E+02  0.30407641095E+01  0.67543829882E+03  0.67671323729E+03  0.00000000000E+00 0. -1.
         22    1    3    3    0    0 -0.12399724885E+03 -0.11125503503E+02  0.23631753737E+03  0.26710498502E+03  0.00000000000E+00 0.  1.
         22    1    3    3    0    0  0.14129636953E+02  0.41759875719E+02  0.66477664801E+02  0.79767247526E+02  0.00000000000E+00 0.  1.
</event>
<event>
 7    1  0.5854318E-006  0.1390579E+03  0.7818608E-02  0.1323360E+00
          2   -1    0    0  502    0  0.00000000000E+00  0.00000000000E+00  0.25952116638E+03  0.25952116638E+03  0.00000000000E+00 0. -1.
          1   -1    0    0  501    0 -0.00000000000E+00 -0.00000000000E+00 -0.83690179367E+03  0.83690179367E+03  0.00000000000E+00 0. -1.
         25    2    1    2    0    0 -0.95070252442E+02 -0.12775709777E+03 -0.54140112529E+02  0.20956143834E+03  0.12499846288E+03 0.  0.
          2    1    1    2  501    0  0.48400600301E+02 -0.18678839903E+00 -0.67856336735E+03  0.68028736318E+03  0.00000000000E+00 0. -1.
          1    1    1    2  502    0  0.46669652141E+02  0.12794388617E+03  0.15532285258E+03  0.20657415853E+03  0.00000000000E+00 0. -1.
         22    1    3    3    0    0 -0.24517910042E+02 -0.22738846578E+01  0.33083851993E+02  0.41241238185E+02  0.00000000000E+00 0. -1.
         22    1    3    3    0    0 -0.70552342400E+02 -0.12548321312E+03 -0.87223964522E+02  0.16832020015E+03  0.00000000000E+00 0. -1.
</event>
<event>
 7    1  0.5854318E-006  0.6789413E+02  0.7818608E-02  0.1476222E+00
          2   -1    0    0  502    0  0.00000000000E+00  0.00000000000E+00  0.33556898176E+03  0.33556898176E+03  0.00000000000E+00 0. -1.
          1   -1    0    0  501    0 -0.00000000000E+00 -0.00000000000E+00 -0.43739599190E+03  0.43739599190E+03  0.00000000000E+00 0. -1.
         25    2    1    2    0    0 -0.60779915366E+02  0.50135110055E+02 -0.54723404964E+02  0.15756792597E+03  0.12500109148E+03 0.  0.
          2    1    1    2  501    0 -0.35839952645E+01 -0.29210623168E+02 -0.32654909579E+03  0.32787256288E+03  0.00000000000E+00 0. -1.
          1    1    1    2  502    0  0.64363910630E+02 -0.20924486887E+02  0.27944549061E+03  0.28752448481E+03  0.00000000000E+00 0. -1.
         22    1    3    3    0    0 -0.80147268982E+01 -0.27660194724E+02  0.21992557184E+02  0.36235269986E+02  0.00000000000E+00 0.  1.
         22    1    3    3    0    0 -0.52765188468E+02  0.77795304780E+02 -0.76715962149E+02  0.12133265598E+03  0.00000000000E+00 0.  1.
</event>
<event>
 7    1  0.5854318E-006  0.1428633E+03  0.7818608E-02  0.1352880E+00
          2   -1    0    0  502    0  0.00000000000E+00  0.00000000000E+00  0.78353837838E+03  0.78353837838E+03  0.00000000000E+00 0. -1.
          1   -1    0    0  501    0 -0.00000000000E+00 -0.00000000000E+00 -0.77629563133E+03  0.77629563133E+03  0.00000000000E+00 0. -1.
         25    2    1    2    0    0 -0.81001969093E+02 -0.13340627635E+03  0.72131550235E+03  0.74851847021E+03  0.12500117098E+03 0.  0.
          2    1    1    2  501    0  0.44616359967E+02  0.13562860137E+03 -0.74800717522E+03  0.76151196397E+03  0.00000000000E+00 0. -1.
          1    1    1    2  502    0  0.36385609126E+02 -0.22223250264E+01  0.33934419924E+02  0.49803575530E+02  0.00000000000E+00 0. -1.
         22    1    3    3    0    0 -0.75959882761E+02 -0.46102271024E+02  0.18632140801E+03  0.20642429669E+03  0.00000000000E+00 0. -1.
         22    1    3    3    0    0 -0.50420863327E+01 -0.87304005324E+02  0.53499409434E+03  0.54209417352E+03  0.00000000000E+00 0. -1.
</event>
<event>
 7    1  0.5854318E-006  0.1231773E+03  0.7818608E-02  0.1284759E+00
          2   -1    0    0  502    0  0.00000000000E+00  0.00000000000E+00  0.24209177101E+03  0.24209177101E+03  0.00000000000E+00 0. -1.
          1   -1    0    0  501    0 -0.00000000000E+00 -0.00000000000E+00 -0.97029427473E+03  0.97029427473E+03  0.00000000000E+00 0. -1.
         25    2    1    2    0    0  0.10687414047E+02 -0.91102490102E+02  0.87377057428E+02  0.17797077003E+03  0.12499984120E+03 0.  0.
          2    1    1    2  501    0  0.63776817864E+01 -0.77560080854E+02 -0.85649555511E+03  0.86002376531E+03  0.00000000000E+00 0. -1.
          1    1    1    2  502    0 -0.17065095834E+02  0.16866257096E+03  0.40915993970E+02  0.17439151040E+03  0.00000000000E+00 0. -1.
         22    1    3    3    0    0  0.66189267247E+01  0.31223244181E+02  0.11290732449E+02  0.33855306931E+02  0.00000000000E+00 0.  1.
         22    1    3    3    0    0  0.40684873227E+01 -0.12232573428E+03  0.76086324978E+02  0.14411546310E+03  0.00000000000E+00 0.  1.
</event>
<event>
 7    1  0.5854318E-006  0.1151685E+03  0.7818608E-02  0.1260337E+00
          2   -1    0    0  502    0  0.00000000000E+00  0.00000000000E+00  0.44208258034E+03  0.44208258034E+03  0.00000000000E+00 0. -1.
          1   -1    0    0  501    0 -0.00000000000E+00 -0.00000000000E+00 -0.27256595339E+03  0.27256595339E+03  0.00000000000E+00 0. -1.
         25    2    1    2    0    0 -0.53901527363E+02 -0.11966190696E+03  0.29030706789E+03  0.34224089030E+03  0.12500514667E+03 0.  0.
          2    1    1    2  501    0  0.10477638107E+03  0.10532582009E+02 -0.20156725913E+03  0.22741676558E+03  0.00000000000E+00 0. -1.
          1    1    1    2  502    0 -0.50874853704E+02  0.10912932495E+03  0.80776818184E+02  0.14499087785E+03  0.00000000000E+00 0. -1.
         22    1    3    3    0    0 -0.50780008594E+01 -0.80492524671E+02  0.26090318656E+03  0.27308479522E+03  0.00000000000E+00 0.  1.
         22    1    3    3    0    0 -0.48823526503E+02 -0.39169382290E+02  0.29403881327E+02  0.69156095077E+02  0.00000000000E+00 0.  1.
</event>
<event>
 7    1  0.5854318E-006  0.8493253E+02  0.7818608E-02  0.1442340E+00
          2   -1    0    0  502    0  0.00000000000E+00  0.00000000000E+00  0.25241356512E+04  0.25241356512E+04  0.00000000000E+00 0. -1.
          1   -1    0    0  501    0 -0.00000000000E+00 -0.00000000000E+00 -0.12075447354E+02  0.12075447354E+02  0.00000000000E+00 0. -1.
         25    2    1    2    0    0 -0.71661585487E+02  0.13122828365E+02  0.16052328050E+04  0.16117396511E+04  0.12499901357E+03 0.  0.
          2    1    1    2  501    0 -0.23782125274E+02 -0.18449071699E+02  0.30166716946E+02  0.42614417049E+02  0.00000000000E+00 0. -1.
          1    1    1    2  502    0  0.95443710761E+02  0.53262433337E+01  0.87666068191E+03  0.88185703037E+03  0.00000000000E+00 0. -1.
         22    1    3    3    0    0 -0.45149875337E+02 -0.37336404597E+02  0.32500103049E+03  0.33023959207E+03  0.00000000000E+00 0.  1.
         22    1    3    3    0    0 -0.26511710150E+02  0.50459232962E+02  0.12802317745E+04  0.12815000590E+04  0.00000000000E+00 0.  1.
</event>
<event>
 7    1  0.5854318E-006  0.7596956E+02  0.7818608E-02  0.1400058E+00
          2   -1    0    0  502    0  0.00000000000E+00  0.00000000000E+00  0.78533425332E+03  0.78533425332E+03  0.00000000000E+00 0. -1.
          1   -1    0    0  501    0 -0.00000000000E+00 -0.00000000000E+00 -0.49805334051E+03  0.49805334051E+03  0.00000000000E+00 0. -1.
         25    2    1    2    0    0  0.48449726250E+02 -0.44920383746E+02  0.15289221547E+03  0.20824707024E+03  0.12500238342E+03 0.  0.
          2    1    1    2  501    0 -0.13112779266E+02  0.75234738685E+02 -0.46636950421E+03  0.47258091935E+03  0.00000000000E+00 0. -1.
          1    1    1    2  502    0 -0.35336946984E+02 -0.30314354939E+02  0.60075820154E+03  0.60255960423E+03  0.00000000000E+00 0. -1.
         22    1    3    3    0    0  0.37462864812E+01 -0.40036669302E+02 -0.81628308913E+01  0.41031711630E+02  0.00000000000E+00 0.  1.
         22    1    3    3    0    0  0.44703439769E+02 -0.48837144444E+01  0.16105504636E+03  0.16721535860E+03  0.00000000000E+00 0.  1.
</event>
<event>
 7    1  0.5854318E-006  0.4714027E+02  0.7818608E-02  0.1516205E+00
          2   -1    0    0  502    0  0.00000000000E+00  0.00000000000E+00  0.82472305288E+02  0.82472305288E+02  0.00000000000E+00 0. -1.
          1   -1    0    0  501    0 -0.00000000000E+00 -0.00000000000E+00 -0.42756285280E+03  0.42756285280E+03  0.00000000000E+00 0. -1.
         25    2    1    2    0    0 -0.30042785816E+02  0.71707532532E+02 -0.90169315343E+02  0.17262929218E+03  0.12500331151E+03 0.  0.
          2    1    1    2  501    0  0.20272327414E+02 -0.41071373774E+02 -0.28779671063E+03  0.29141855063E+03  0.00000000000E+00 0. -1.
          1    1    1    2  502    0  0.97704584020E+01 -0.30636158758E+02  0.32875478468E+02  0.45987315266E+02  0.00000000000E+00 0. -1.
         22    1    3    3    0    0 -0.47951734376E+02  0.67458188791E+01 -0.93357382648E+02  0.10516879669E+03  0.00000000000E+00 0.  1.
         22    1    3    3    0    0  0.17908948560E+02  0.64961713653E+02  0.31880673048E+01  0.67460495495E+02  0.00000000000E+00 0.  1.
</event>
<event>
 7    1  0.5854318E-006  0.7725338E+02  0.7818608E-02  0.1510166E+00
          2   -1    0    0  502    0  0.00000000000E+00  0.00000000000E+00  0.13147231018E+04  0.13147231018E+04  0.00000000000E+00 0. -1.
          1   -1    0    0  501    0 -0.00000000000E+00 -0.00000000000E+00 -0.40365700634E+02  0.40365700634E+02  0.00000000000E+00 0. -1.
         25    2    1    2    0    0  0.59756071545E+02 -0.40703492395E+02  0.80741000729E+03  0.82022188985E+03  0.12500186537E+03 0.  0.
          2    1    1    2  501    0 -0.50549988355E+02  0.58950837054E+02  0.10964891172E+02  0.78426598488E+02  0.00000000000E+00 0. -1.
          1    1    1    2  502    0 -0.92060831899E+01 -0.18247344659E+02  0.45598250267E+03  0.45644031406E+03  0.00000000000E+00 0. -1.
         22    1    3    3    0    0 -0.16167815482E+02 -0.27678407650E+02  0.56406773646E+03  0.56497779056E+03  0.00000000000E+00 0.  1.
         22    1    3    3    0    0  0.75923887026E+02 -0.13025084745E+02  0.24334227083E+03  0.25524409929E+03  0.00000000000E+00 0.  1.
</event>
<event>
 7    1  0.5854318E-006  0.5342832E+02  0.7818608E-02  0.1446380E+00
          2   -1    0    0  502    0  0.00000000000E+00  0.00000000000E+00  0.71273570834E+03  0.71273570834E+03  0.00000000000E+00 0. -1.
          1   -1    0    0  501    0 -0.00000000000E+00 -0.00000000000E+00 -0.41338199500E+03  0.41338199500E+03  0.00000000000E+00 0. -1.
         25    2    1    2    0    0  0.15428707115E+02 -0.95527541789E+02  0.29244707436E+02  0.16075989664E+03  0.12499974084E+03 0.  0.
          2    1    1    2  501    0  0.34503852273E+01  0.46304630504E+02 -0.34494116971E+03  0.34805234452E+03  0.00000000000E+00 0. -1.
          1    1    1    2  502    0 -0.18879092342E+02  0.49222911285E+02  0.61505017562E+03  0.61730546219E+03  0.00000000000E+00 0. -1.
         22    1    3    3    0    0 -0.46166676185E+02 -0.82649765135E+02  0.11413781757E+02  0.95355231009E+02  0.00000000000E+00 0.  1.
         22    1    3    3    0    0  0.61595383299E+02 -0.12877776654E+02  0.17830925680E+02  0.65404665628E+02  0.00000000000E+00 0.  1.
</event>
<event>
 7    1  0.5854318E-006  0.5779129E+02  0.7818608E-02  0.1531938E+00
          2   -1    0    0  502    0  0.00000000000E+00  0.00000000000E+00  0.40580207585E+03  0.40580207585E+03  0.00000000000E+00 0. -1.
          1   -1    0    0  501    0 -0.00000000000E+00 -0.00000000000E+00 -0.94827881104E+02  0.94827881104E+02  0.00000000000E+00 0. -1.
         25    2    1    2    0    0  0.69374740681E+02 -0.36415922789E+02  0.10732942385E+03  0.18242350780E+03  0.12497902584E+03 0.  0.
          2    1    1    2  501    0 -0.52030451519E+02  0.20375771122E+02 -0.42953352138E+02  0.70479290533E+02  0.00000000000E+00 0. -1.
          1    1    1    2  502    0 -0.17344289161E+02  0.16040151667E+02  0.24659812303E+03  0.24772715862E+03  0.00000000000E+00 0. -1.
         22    1    3    3    0    0  0.26609531320E+01  0.30117618033E+02 -0.10091074643E+02  0.31874462741E+02  0.00000000000E+00 0. -1.
         22    1    3    3    0    0  0.66713787549E+02 -0.66533540822E+02  0.11742049849E+03  0.15054904506E+03  0.00000000000E+00 0. -1.
</event>
<event>
 7    1  0.5854318E-006  0.1307342E+03  0.7818608E-02  0.1315896E+00
          2   -1    0    0  502    0  0.00000000000E+00  0.00000000000E+00  0.17984359518E+04  0.17984359518E+04  0.00000000000E+00 0. -1.
          1   -1    0    0  501    0 -0.00000000000E+00 -0.00000000000E+00 -0.47455636865E+03  0.47455636865E+03  0.00000000000E+00 0. -1.
         25    2    1    2    0    0  0.11438508674E+03  0.82711951898E+02 -0.17659999741E+03  0.25833692577E+03  0.12500077229E+03 0.  0.
          2    1    1    2  501    0 -0.12641456942E+03 -0.29007791087E+02 -0.24026699465E+03  0.27303905219E+03  0.00000000000E+00 0. -1.
          1    1    1    2  502    0  0.12029482681E+02 -0.53704160811E+02  0.17407465752E+04  0.17416163425E+04  0.00000000000E+00 0. -1.
         22    1    3    3    0    0  0.27056919474E+02  0.78093305653E+02 -0.14198024718E+03  0.16428338890E+03  0.00000000000E+00 0. -1.
         22    1    3    3    0    0  0.87328167268E+02  0.46186462456E+01 -0.34619750231E+02  0.94053536869E+02  0.00000000000E+00 0. -1.
</event>
<event>
 7    1  0.5854318E-006  0.5499548E+02  0.7818608E-02  0.1431911E+00
          2   -1    0    0  502    0  0.00000000000E+00  0.00000000000E+00  0.22498545405E+03  0.22498545405E+03  0.00000000000E+00 0. -1.
          1   -1    0    0  501    0 -0.00000000000E+00 -0.00000000000E+00 -0.34157861236E+03  0.34157861236E+03  0.00000000000E+00 0. -1.
         25    2    1    2    0    0 -0.84231142963E+02 -0.60426928467E+02  0.59137619536E+01  0.16249159330E+03  0.12498898425E+03 0.  0.
          2    1    1    2  501    0  0.43713169158E+02  0.30676009160E+02 -0.25595719932E+03  0.26146882526E+03  0.00000000000E+00 0. -1.
          1    1    1    2  502    0  0.40517973805E+02  0.29750919308E+02  0.13345027905E+03  0.14260364785E+03  0.00000000000E+00 0. -1.
         22    1    3    3    0    0 -0.50299332672E+01  0.35256765153E+02 -0.10673096256E+02  0.37178686117E+02  0.00000000000E+00 0. -1.
         22    1    3    3    0    0 -0.79201209696E+02 -0.95683693620E+02  0.16586858210E+02  0.12531290719E+03  0.00000000000E+00 0. -1.
</event>
<event>
 7    1  0.5854318E-006  0.2006965E+03  0.7818608E-02  0.1274172E+00
          2   -1    0    0  502    0  0.00000000000E+00  0.00000000000E+00  0.18286214500E+04  0.18286214500E+04  0.00000000000E+00 0. -1.
          1   -1    0    0  501    0 -0.00000000000E+00 -0.00000000000E+00 -0.16965039728E+03  0.16965039728E+03  0.00000000000E+00 0. -1.
         25    2    1    2    0    0  0.84618217674E+02 -0.13357746855E+03  0.13881216718E+04  0.14026790733E+04  0.12499449609E+03 0.  0.
          2    1    1    2  501    0 -0.13411898066E+03  0.15203487707E+03 -0.96451880995E+02  0.22451162591E+03  0.00000000000E+00 0. -1.
          1    1    1    2  502    0  0.49500762987E+02 -0.18457408523E+02  0.36730126188E+03  0.37108114806E+03  0.00000000000E+00 0. -1.
         22    1    3    3    0    0  0.74077706403E+02 -0.56653150900E+02  0.36893686735E+03  0.38054105978E+03  0.00000000000E+00 0.  1.
         22    1    3    3    0    0  0.10540511270E+02 -0.76924317650E+02  0.10191848045E+04  0.10221380135E+04  0.00000000000E+00 0.  1.
</event>
<event>
 7    1  0.5854318E-006  0.1328133E+03  0.7818608E-02  0.1223538E+00
          2   -1    0    0  502    0  0.00000000000E+00  0.00000000000E+00  0.73636003500E+03  0.73636003500E+03  0.00000000000E+00 0. -1.
          1   -1    0    0  501    0 -0.00000000000E+00 -0.00000000000E+00 -0.37384195312E+03  0.37384195312E+03  0.00000000000E+00 0. -1.
         25    2    1    2    0    0 -0.51889711730E+02 -0.16887147416E+02  0.18909053654E+03  0.23314712107E+03  0.12499852447E+03 0.  0.
          2    1    1    2  501    0  0.27014442850E+01  0.14025604103E+03 -0.32884651802E+03  0.35751795375E+03  0.00000000000E+00 0. -1.
          1    1    1    2  502    0  0.49188267445E+02 -0.12336889361E+03  0.50227406335E+03  0.51953691330E+03  0.00000000000E+00 0. -1.
         22    1    3    3    0    0 -0.81929125898E+02 -0.43488995416E+02  0.15432888102E+03  0.18005854023E+03  0.00000000000E+00 0. -1.
         22    1    3    3    0    0  0.30039414168E+02  0.26601848000E+02  0.34761655522E+02  0.53088580836E+02  0.00000000000E+00 0. -1.
</event>
<event>
 7    1  0.5854318E-006  0.9022928E+02  0.7818608E-02  0.1319996E+00
          2   -1    0    0  502    0  0.00000000000E+00  0.00000000000E+00  0.16000033404E+04  0.16000033404E+04  0.00000000000E+00 0. -1.
          1   -1    0    0  501    0 -0.00000000000E+00 -0.00000000000E+00 -0.80857556618E+02  0.80857556618E+02  0.00000000000E+00 0. -1.
         25    2    1    2    0    0 -0.18480803484E+02 -0.10060364329E+03  0.14033413909E+03  0.21396670854E+03  0.12500179450E+03 0.  0.
          2    1    1    2  501    0 -0.54456583444E+02  0.76350626903E+02  0.82111631407E+01  0.94140113177E+02  0.00000000000E+00 0. -1.
          1    1    1    2  502    0  0.72937386927E+02  0.24253016389E+02  0.13706004815E+04  0.13727540753E+04  0.00000000000E+00 0. -1.
         22    1    3    3    0    0  0.35521165327E+02 -0.36735917214E+02  0.11616327406E+03  0.12690621356E+03  0.00000000000E+00 0. -1.
         22    1    3    3    0    0 -0.54001968810E+02 -0.63867726078E+02  0.24170865023E+02  0.87060494978E+02  0.00000000000E+00 0. -1.
</event>
<event>
 7    1  0.5854318E-006  0.3200001E+02  0.7818608E-02  0.1626515E+00
          2   -1    0    0  502    0  0.00000000000E+00  0.00000000000E+00  0.69683711113E+03  0.69683711113E+03  0.00000000000E+00 0. -1.
          1   -1    0    0  501    0 -0.00000000000E+00 -0.00000000000E+00 -0.44049196233E+03  0.44049196233E+03  0.00000000000E+00 0. -1.
         25    2    1    2    0    0 -0.14805944823E+02  0.44105987426E+01 -0.13396152130E+03  0.18387572196E+03  0.12500369015E+03 0.  0.
          2    1    1    2  501    0 -0.13401709400E+02 -0.19628197309E+02 -0.28068861210E+03  0.28169304022E+03  0.00000000000E+00 0. -1.
          1    1    1    2  502    0  0.28207654223E+02  0.15217598566E+02  0.67099528221E+03  0.67176031128E+03  0.00000000000E+00 0. -1.
         22    1    3    3    0    0 -0.61010071043E+02  0.12070569379E+01 -0.25869495437E+02  0.66279080782E+02  0.00000000000E+00 0.  1.
         22    1    3    3    0    0  0.46204126220E+02  0.32035418047E+01 -0.10809202587E+03  0.11759664117E+03  0.00000000000E+00 0.  1.
</event>
<event>
 7    1  0.5854318E-006  0.1098118E+03  0.7818608E-02  0.1370439E+00
          2   -1    0    0  502    0  0.00000000000E+00  0.00000000000E+00  0.71455028300E+03  0.71455028300E+03  0.00000000000E+00 0. -1.
          1   -1    0    0  501    0 -0.00000000000E+00 -0.00000000000E+00 -0.68654468468E+03  0.68654468468E+03  0.00000000000E+00 0. -1.
         25    2    1    2    0    0 -0.89858288576E+02  0.78070052589E+02  0.91789235758E+02  0.19549575391E+03  0.12499552335E+03 0.  0.
          2    1    1    2  501    0 -0.12471743529E+02 -0.38988126807E+02 -0.62876548656E+03  0.63009654460E+03  0.00000000000E+00 0. -1.
          1    1    1    2  502    0  0.10233003211E+03 -0.39081925782E+02  0.56498184912E+03  0.57550266918E+03  0.00000000000E+00 0. -1.
         22    1    3    3    0    0 -0.53275211980E+02 -0.24181920645E+02  0.56428664227E+02  0.81284731924E+02  0.00000000000E+00 0.  1.
         22    1    3    3    0    0 -0.36583076597E+02  0.10225197323E+03  0.35360571531E+02  0.11421102198E+03  0.00000000000E+00 0.  1.
</event>
<event>
 7    1  0.5854318E-006  0.3369090E+02  0.7818608E-02  0.1572700E+00
          2   -1    0    0  502    0  0.00000000000E+00  0.00000000000E+00  0.10954868927E+03  0.10954868927E+03  0.00000000000E+00 0. -1.
          1   -1    0    0  501    0 -0.00000000000E+00 -0.00000000000E+00 -0.11779699460E+04  0.11779699460E+04  0.00000000000E+00 0. -1.
         25    2    1    2    0    0  0.66403878695E+01 -0.27950027810E+01  0.41071888658E+02  0.13176755110E+03  0.12499552269E+03 0.  0.
          2    1    1    2  501    0  0.31620828415E+02 -0.11627563517E+02 -0.11140944498E+04  0.11146037502E+04  0.00000000000E+00 0. -1.
          1    1    1    2  502    0 -0.38261216285E+02  0.14422566298E+02  0.46013043566E+01  0.41147333960E+02  0.00000000000E+00 0. -1.
         22    1    3    3    0    0 -0.38508515556E+02  0.44177928290E+02  0.29440934051E+02  0.65584782657E+02  0.00000000000E+00 0. -1.
         22    1    3    3    0    0  0.45148903426E+02 -0.46972931071E+02  0.11630954607E+02  0.66182768445E+02  0.00000000000E+00 0. -1.
</event>
<event>
 7    1  0.5854318E-006  0.1080683E+03  0.7818608E-02  0.1333258E+00
          2   -1    0    0  502    0  0.00000000000E+00  0.00000000000E+00  0.29131623156E+04  0.29131623156E+04  0.00000000000E+00 0. -1.
          1   -1    0    0  501    0 -0.00000000000E+00 -0.00000000000E+00 -0.26030408312E+02  0.26030408312E+02  0.00000000000E+00 0. -1.
         25    2    1    2    0    0 -0.31223521468E+01 -0.14697775566E+03  0.94142379905E+03  0.96099709783E+03  0.12499777152E+03 0.  0.
          2    1    1    2  501    0 -0.27024392124E+02  0.98514742786E+02  0.14942698684E+03  0.18100800179E+03  0.00000000000E+00 0. -1.
          1    1    1    2  502    0  0.30146744271E+02  0.48463012870E+02  0.17962811214E+04  0.17971876243E+04  0.00000000000E+00 0. -1.
         22    1    3    3    0    0  0.31009142746E+02 -0.69519790629E+01  0.60277439367E+02  0.68141519233E+02  0.00000000000E+00 0. -1.
         22    1    3    3    0    0 -0.34131494893E+02 -0.14002577659E+03  0.88114635968E+03  0.89285557860E+03  0.00000000000E+00 0. -1.
</event>
<event>
 7    1  0.5854318E-006  0.2794276E+02  0.7818608E-02  0.1651490E+00
          2   -1    0    0  502    0  0.00000000000E+00  0.00000000000E+00  0.31977392019E+03  0.31977392019E+03  0.00000000000E+00 0. -1.
          1   -1    0    0  501    0 -0.00000000000E+00 -0.00000000000E+00 -0.21305211731E+03  0.21305211731E+03  0.00000000000E+00 0. -1.
         25    2    1    2    0    0  0.34175170987E+02 -0.14907525193E+02 -0.76067347118E+02  0.15100409820E+03  0.12500327898E+03 0.  0.
          2    1    1    2  501    0 -0.12748703838E+02  0.24780162153E+02 -0.97059397307E+02  0.10098075307E+03  0.00000000000E+00 0. -1.
          1    1    1    2  502    0 -0.21426467148E+02 -0.98726369605E+01  0.27984854730E+03  0.28084118623E+03  0.00000000000E+00 0. -1.
         22    1    3    3    0    0  0.71997549668E+02  0.23353801193E+02 -0.53358137913E+02  0.92607440683E+02  0.00000000000E+00 0. -1.
         22    1    3    3    0    0 -0.37822378681E+02 -0.38261326386E+02 -0.22709209205E+02  0.58396657512E+02  0.00000000000E+00 0. -1.
</event>
<event>
 7    1  0.5854318E-006  0.5850741E+02  0.7818608E-02  0.1441600E+00
          2   -1    0    0  502    0  0.00000000000E+00  0.00000000000E+00  0.93092672976E+03  0.93092672976E+03  0.00000000000E+00 0. -1.
          1   -1    0    0  501    0 -0.00000000000E+00 -0.00000000000E+00 -0.30673521634E+03  0.30673521634E+03  0.00000000000E+00 0. -1.
         25    2    1    2    0    0 -0.82542097380E+02 -0.36423430710E+02 -0.21717018602E+03  0.26633048798E+03  0.12501669883E+03 0.  0.
          2    1    1    2  501    0  0.39958090954E+02  0.25611247522E+02 -0.55709160855E+02  0.73185351236E+02  0.00000000000E+00 0. -1.
          1    1    1    2  502    0  0.42584006426E+02  0.10812183187E+02  0.89707086029E+03  0.89814610688E+03  0.00000000000E+00 0. -1.
         22    1    3    3    0    0  0.24655984610E+02 -0.26758399269E+01 -0.36880703981E+01  0.25073483198E+02  0.00000000000E+00 0.  1.
         22    1    3    3    0    0 -0.10719808199E+03 -0.33747590783E+02 -0.21348211563E+03  0.24125700479E+03  0.00000000000E+00 0.  1.
</event>
<event>
 7    1  0.5854318E-006  0.7524482E+02  0.7818608E-02  0.1350200E+00
          2   -1    0    0  502    0  0.00000000000E+00  0.00000000000E+00  0.15042999896E+04  0.15042999896E+04  0.00000000000E+00 0. -1.
          1   -1    0    0  501    0 -0.00000000000E+00 -0.00000000000E+00 -0.10887663688E+04  0.10887663688E+04  0.00000000000E+00 0. -1.
         25    2    1    2    0    0  0.82801633286E+02 -0.90677339365E+02  0.66877518907E+02  0.18755290757E+03  0.12500000102E+03 0.  0.
          2    1    1    2  501    0 -0.72011577758E+02  0.20694722988E+02 -0.10261516174E+04  0.10288834145E+04  0.00000000000E+00 0. -1.
          1    1    1    2  502    0 -0.10790055528E+02  0.69982616377E+02  0.13748077192E+04  0.13766300362E+04  0.00000000000E+00 0. -1.
         22    1    3    3    0    0  0.39256662054E+02 -0.97345133291E+01  0.84761428747E+02  0.93916697497E+02  0.00000000000E+00 0.  1.
         22    1    3    3    0    0  0.43544971231E+02 -0.80942826036E+02 -0.17883909840E+02  0.93636210076E+02  0.00000000000E+00 0.  1.
</event>
<event>
 7    1  0.5854318E-006  0.2106000E+03  0.7818608E-02  0.1283109E+00
          2   -1    0    0  502    0  0.00000000000E+00  0.00000000000E+00  0.26202916528E+04  0.26202916528E+04  0.00000000000E+00 0. -1.
          1   -1    0    0  501    0 -0.00000000000E+00 -0.00000000000E+00 -0.14868203703E+03  0.14868203703E+03  0.00000000000E+00 0. -1.
         25    2    1    2    0    0 -0.16431880133E+03  0.96510395011E+02  0.54834929805E+03  0.59382354999E+03  0.12499812415E+03 0.  0.
          2    1    1    2  501    0 -0.39513581330E+02 -0.24002508467E+02 -0.11577758257E+03  0.12466712537E+03  0.00000000000E+00 0. -1.
          1    1    1    2  502    0  0.20383238266E+03 -0.72507886545E+02  0.20390379003E+04  0.20504830144E+04  0.00000000000E+00 0. -1.
         22    1    3    3    0    0 -0.80777574676E+02  0.10764565803E+03  0.25154180788E+03  0.28528211541E+03  0.00000000000E+00 0. -1.
         22    1    3    3    0    0 -0.83541226656E+02 -0.11135263014E+02  0.29680749017E+03  0.30854143458E+03  0.00000000000E+00 0. -1.
</event>
<event>
 7    1  0.5854318E-006  0.1109322E+03  0.7818608E-02  0.1318442E+00
          2   -1    0    0  502    0  0.00000000000E+00  0.00000000000E+00  0.67926031815E+03  0.67926031815E+03  0.00000000000E+00 0. -1.
          1   -1    0    0  501    0 -0.00000000000E+00 -0.00000000000E+00 -0.43510257130E+03  0.43510257130E+03  0.00000000000E+00 0. -1.
         25    2    1    2    0    0 -0.21313405183E+00 -0.14267483196E+03  0.37060598691E+02  0.19327426371E+03  0.12500119975E+03 0.  0.
          2    1    1    2  501    0  0.46355995159E+02  0.99204553357E+02 -0.34674808481E+03  0.36362708372E+03  0.00000000000E+00 0. -1.
          1    1    1    2  502    0 -0.46142861107E+02  0.43470278599E+02  0.55384523296E+03  0.55746154202E+03  0.00000000000E+00 0. -1.
         22    1    3    3    0    0 -0.60564404860E+02 -0.95144498996E+02  0.19254891415E+02  0.11441710392E+03  0.00000000000E+00 0.  1.
         22    1    3    3    0    0  0.60351270808E+02 -0.47530332960E+02  0.17805707276E+02  0.78857159796E+02  0.00000000000E+00 0.  1.
</event>
<event>
 7    1  0.5854318E-006  0.1448492E+03  0.7818608E-02  0.1278953E+00
          2   -1    0    0  502    0  0.00000000000E+00  0.00000000000E+00  0.35007038614E+03  0.35007038614E+03  0.00000000000E+00 0. -1.
          1   -1    0    0  501    0 -0.00000000000E+00 -0.00000000000E+00 -0.22961461034E+04  0.22961461034E+04  0.00000000000E+00 0. -1.
         25    2    1    2    0    0  0.12259534481E+03 -0.16951647319E+03 -0.29787124831E+03  0.38486068345E+03  0.12500004738E+03 0.  0.
          2    1    1    2  501    0 -0.27563974124E+02  0.64263704036E+02 -0.19377175372E+04  0.19389788163E+04  0.00000000000E+00 0. -1.
          1    1    1    2  502    0 -0.95031370691E+02  0.10525276915E+03  0.28951306824E+03  0.32237698974E+03  0.00000000000E+00 0. -1.
         22    1    3    3    0    0  0.13970169049E+03 -0.17597930847E+03 -0.28259113757E+03  0.36103051168E+03  0.00000000000E+00 0.  1.
         22    1    3    3    0    0 -0.17106345676E+02  0.64628352778E+01 -0.15280110737E+02  0.23830171765E+02  0.00000000000E+00 0.  1.
</event>
<event>
 7    1  0.5854318E-006  0.9889783E+02  0.7818608E-02  0.1464832E+00
          2   -1    0    0  502    0  0.00000000000E+00  0.00000000000E+00  0.46447559044E+03  0.46447559044E+03  0.00000000000E+00 0. -1.
          1   -1    0    0  501    0 -0.00000000000E+00 -0.00000000000E+00 -0.83080918804E+03  0.83080918804E+03  0.00000000000E+00 0. -1.
         25    2    1    2    0    0 -0.65398254788E+02  0.66055635964E+02 -0.98969203616E+02  0.18455635601E+03  0.12500346599E+03 0.  0.
          2    1    1    2  501    0  0.12580119856E+02  0.17950448992E+02 -0.68303035781E+03  0.68338199253E+03  0.00000000000E+00 0. -1.
          1    1    1    2  502    0  0.52818134932E+02 -0.84006084956E+02  0.41566596383E+03  0.42734642993E+03  0.00000000000E+00 0. -1.
         22    1    3    3    0    0 -0.98280595245E+02  0.55909366423E+02 -0.98783621619E+02  0.15014371967E+03  0.00000000000E+00 0. -1.
         22    1    3    3    0    0  0.32882340458E+02  0.10146269540E+02 -0.18558199718E+00  0.34412636345E+02  0.00000000000E+00 0. -1.
</event>
<event>
 7    1  0.5854318E-006  0.2044632E+03  0.7818608E-02  0.1345793E+00
          2   -1    0    0  502    0  0.00000000000E+00  0.00000000000E+00  0.22239314587E+04  0.22239314587E+04  0.00000000000E+00 0. -1.
          1   -1    0    0  501    0 -0.00000000000E+00 -0.00000000000E+00 -0.64930240158E+03  0.64930240158E+03  0.00000000000E+00 0. -1.
         25    2    1    2    0    0 -0.71368049743E+02  0.16494572999E+03  0.20022486451E+03  0.29667416317E+03  0.12500028144E+03 0.  0.
          2    1    1    2  501    0  0.76507313294E+02 -0.19151332991E+03 -0.58329213480E+03  0.61867636050E+03  0.00000000000E+00 0. -1.
          1    1    1    2  502    0 -0.51392635513E+01  0.26567599924E+02  0.19576963274E+04  0.19578833366E+04  0.00000000000E+00 0. -1.
         22    1    3    3    0    0 -0.39503401075E+02  0.10362321356E+03  0.19869763065E+03  0.22755007693E+03  0.00000000000E+00 0.  1.
         22    1    3    3    0    0 -0.31864648669E+02  0.61322516425E+02  0.15272338631E+01  0.69124086242E+02  0.00000000000E+00 0.  1.
</event>
<event>
 7    1  0.5854318E-006  0.1396850E+03  0.7818608E-02  0.1226187E+00
          2   -1    0    0  502    0  0.00000000000E+00  0.00000000000E+00  0.21385719030E+03  0.21385719030E+03  0.00000000000E+00 0. -1.
          1   -1    0    0  501    0 -0.00000000000E+00 -0.00000000000E+00 -0.11764974229E+04  0.11764974229E+04  0.00000000000E+00 0. -1.
         25    2    1    2    0    0 -0.25166766872E+02  0.37092390750E+02 -0.11632222577E+03  0.17653539759E+03  0.12499869915E+03 0.  0.
          2    1    1    2  501    0 -0.21687944799E+02  0.12065706386E+03 -0.98866410438E+03  0.99623551698E+03  0.00000000000E+00 0. -1.
          1    1    1    2  502    0  0.46854711671E+02 -0.15774945461E+03  0.14234609752E+03  0.21758369865E+03  0.00000000000E+00 0. -1.
         22    1    3    3    0    0  0.37162056132E+02  0.41576488691E+02 -0.15431683404E+02  0.57859827864E+02  0.00000000000E+00 0. -1.
         22    1    3    3    0    0 -0.62328823003E+02 -0.44840979405E+01 -0.10089054236E+03  0.11867556972E+03  0.00000000000E+00 0. -1.
</event>
<event>
 7    1  0.5854318E-006  0.7275846E+02  0.7818608E-02  0.1391784E+00
          2   -1    0    0  502    0  0.00000000000E+00  0.00000000000E+00  0.95377214429E+03  0.95377214429E+03  0.00000000000E+00 0. -1.
          1   -1    0    0  501    0 -0.00000000000E+00 -0.00000000000E+00 -0.45108855753E+03  0.45108855753E+03  0.00000000000E+00 0. -1.
         25    2    1    2    0    0  0.78979495752E+01  0.23707545471E+02 -0.38307157085E+03  0.40372483104E+03  0.12500194191E+03 0.  0.
          2    1    1    2  501    0  0.44040835316E+02  0.27506292390E+02 -0.44281926985E+02  0.68242804411E+02  0.00000000000E+00 0. -1.
          1    1    1    2  502    0 -0.51938784891E+02 -0.51213837862E+02  0.93003708460E+03  0.93289306637E+03  0.00000000000E+00 0. -1.
         22    1    3    3    0    0 -0.25115520905E+02 -0.38674436958E+02 -0.78145323567E+02  0.90736944293E+02  0.00000000000E+00 0.  1.
         22    1    3    3    0    0  0.33013470480E+02  0.62381982429E+02 -0.30492624729E+03  0.31298788674E+03  0.00000000000E+00 0.  1.
</event>
<event>
 7    1  0.5854318E-006  0.1177057E+03  0.7818608E-02  0.1424950E+00
          2   -1    0    0  502    0  0.00000000000E+00  0.00000000000E+00  0.74891383845E+03  0.74891383845E+03  0.00000000000E+00 0. -1.
          1   -1    0    0  501    0 -0.00000000000E+00 -0.00000000000E+00 -0.13211083797E+04  0.13211083797E+04  0.00000000000E+00 0. -1.
         25    2    1    2    0    0  0.11739038833E+03 -0.54463827378E+02 -0.37327780341E+03  0.41437487407E+03  0.12499362373E+03 0.  0.
          2    1    1    2  501    0 -0.21077328174E+02 -0.12996239180E+02 -0.92236887321E+03  0.92270119446E+03  0.00000000000E+00 0. -1.
          1    1    1    2  502    0 -0.96313060155E+02  0.67460066558E+02  0.72345213535E+03  0.73294614964E+03  0.00000000000E+00 0. -1.
         22    1    3    3    0    0  0.10519573812E+03  0.78705108487E+01 -0.29663495577E+03  0.31483390104E+03  0.00000000000E+00 0. -1.
         22    1    3    3    0    0  0.12194650206E+02 -0.62334338227E+02 -0.76642847638E+02  0.99540973020E+02  0.00000000000E+00 0. -1.
</event>
<event>
 7    1  0.5854318E-006  0.1472136E+03  0.7818608E-02  0.1306817E+00
          2   -1    0    0  502    0  0.00000000000E+00  0.00000000000E+00  0.62600993687E+03  0.62600993687E+03  0.00000000000E+00 0. -1.
          1   -1    0    0  501    0 -0.00000000000E+00 -0.00000000000E+00 -0.74158751520E+03  0.74158751520E+03  0.00000000000E+00 0. -1.
         25    2    1    2    0    0  0.86891535219E+02 -0.69380403652E+02 -0.36769606985E+03  0.40396710622E+03  0.12500097527E+03 0.  0.
          2    1    1    2  501    0 -0.32976429203E+01 -0.52959492261E+02 -0.34466596347E+03  0.34872655283E+03  0.00000000000E+00 0. -1.
          1    1    1    2  502    0 -0.83593892299E+02  0.12233989591E+03  0.59678445499E+03  0.61490379303E+03  0.00000000000E+00 0. -1.
         22    1    3    3    0    0  0.84547987005E+02 -0.72923627589E+02 -0.37729569423E+03  0.39346951400E+03  0.00000000000E+00 0. -1.
         22    1    3    3    0    0  0.23435482142E+01  0.35432239376E+01  0.95996243772E+01  0.10497592214E+02  0.00000000000E+00 0. -1.
</event>
<event>
 7    1  0.5854318E-006  0.1280401E+03  0.7818608E-02  0.1282168E+00
          2   -1    0    0  502    0  0.00000000000E+00  0.00000000000E+00  0.39007836781E+03  0.39007836781E+03  0.00000000000E+00 0. -1.
          1   -1    0    0  501    0 -0.00000000000E+00 -0.00000000000E+00 -0.74150570991E+03  0.74150570991E+03  0.00000000000E+00 0. -1.
         25    2    1    2    0    0  0.69307523356E+02 -0.57225241754E+02 -0.11043798381E+03  0.18946265372E+03  0.12498515032E+03 0.  0.
          2    1    1    2  501    0  0.62549517268E+02  0.44432067688E+02 -0.57640658692E+03  0.58149050224E+03  0.00000000000E+00 0. -1.
          1    1    1    2  502    0 -0.13185704062E+03  0.12793174066E+02  0.33541722862E+03  0.36063092175E+03  0.00000000000E+00 0. -1.
         22    1    3    3    0    0 -0.32492495765E+02 -0.29968508215E+02 -0.13357113421E+02  0.46176685076E+02  0.00000000000E+00 0.  1.
         22    1    3    3    0    0  0.10180001912E+03 -0.27256733539E+02 -0.97080870384E+02  0.14328596865E+03  0.00000000000E+00 0.  1.
</event>
<event>
 7    1  0.5854318E-006  0.5104987E+02  0.7818608E-02  0.1457600E+00
          2   -1    0    0  502    0  0.00000000000E+00  0.00000000000E+00  0.23867926251E+03  0.23867926251E+03  0.00000000000E+00 0. -1.
          1   -1    0    0  501    0 -0.00000000000E+00 -0.00000000000E+00 -0.57890296842E+03  0.57890296842E+03  0.00000000000E+00 0. -1.
         25    2    1    2    0    0 -0.90687537833E+02 -0.24721319116E+02 -0.12746812951E+03  0.20176266552E+03  0.12499870407E+03 0.  0.
          2    1    1    2  501    0  0.48128023884E+02  0.10887640314E+02 -0.41030666234E+03  0.41326311783E+03  0.00000000000E+00 0. -1.
          1    1    1    2  502    0  0.42559513949E+02  0.13833678802E+02  0.19755108595E+03  0.20255644758E+03  0.00000000000E+00 0. -1.
         22    1    3    3    0    0 -0.22719035841E+02  0.50272400311E+02 -0.46431605645E+02  0.72106607363E+02  0.00000000000E+00 0. -1.
         22    1    3    3    0    0 -0.67968501993E+02 -0.74993719428E+02 -0.81036523870E+02  0.12965605816E+03  0.00000000000E+00 0. -1.
</event>
<event>
 7    1  0.5854318E-006  0.1282109E+03  0.7818608E-02  0.1249014E+00
          2   -1    0    0  502    0  0.00000000000E+00  0.00000000000E+00  0.43529934668E+03  0.43529934668E+03  0.00000000000E+00 0. -1.
          1   -1    0    0  501    0 -0.00000000000E+00 -0.00000000000E+00 -0.16893454528E+04  0.16893454528E+04  0.00000000000E+00 0. -1.
         25    2    1    2    0    0  0.73912253211E+02 -0.11483706237E+03 -0.59107558902E+03  0.61939260518E+03  0.12500510128E+03 0.  0.
          2    1    1    2  501    0  0.30510242836E+02  0.13203079153E+03 -0.10731340099E+04  0.10816559564E+04  0.00000000000E+00 0. -1.
          1    1    1    2  502    0 -0.10442249605E+03 -0.17193729162E+02  0.41016349276E+03  0.42359623794E+03  0.00000000000E+00 0. -1.
         22    1    3    3    0    0  0.70971208347E+02 -0.90222043584E+01 -0.33014008508E+03  0.33780288389E+03  0.00000000000E+00 0.  1.
         22    1    3    3    0    0  0.29410448646E+01 -0.10581485801E+03 -0.26093550394E+03  0.28158972129E+03  0.00000000000E+00 0.  1.
</event>
<event>
 7    1  0.5854318E-006  0.2692686E+03  0.7818608E-02  0.1123851E+00
          2   -1    0    0  502    0  0.00000000000E+00  0.00000000000E+00  0.14334524397E+04  0.14334524397E+04  0.00000000000E+00 0. -1.
          1   -1    0    0  501    0 -0.00000000000E+00 -0.00000000000E+00 -0.62296195355E+03  0.62296195355E+03  0.00000000000E+00 0. -1.
         25    2    1    2    0    0 -0.80782546270E+02 -0.17314504379E+03  0.35443251359E+03  0.42160220170E+03  0.12498393423E+03 0.  0.
          2    1    1    2  501    0 -0.19889930661E+03 -0.42374830466E+02 -0.54053217403E+03  0.57752194035E+03  0.00000000000E+00 0. -1.
          1    1    1    2  502    0  0.27968185288E+03  0.21551987426E+03  0.99659014662E+03  0.10572902512E+04  0.00000000000E+00 0. -1.
         22    1    3    3    0    0  0.32814609197E+02 -0.46203788767E+02  0.10890380728E+03  0.12276655861E+03  0.00000000000E+00 0. -1.
         22    1    3    3    0    0 -0.11359715547E+03 -0.12694125502E+03  0.24552870632E+03  0.29883564309E+03  0.00000000000E+00 0. -1.
</event>
<event>
 7    1  0.5854318E-006  0.3681199E+02  0.7818608E-02  0.1545366E+00
          2   -1    0    0  502    0  0.00000000000E+00  0.00000000000E+00  0.29042752282E+03  0.29042752282E+03  0.00000000000E+00 0. -1.
          1   -1    0    0  501    0 -0.00000000000E+00 -0.00000000000E+00 -0.93451485771E+02  0.93451485771E+02  0.00000000000E+00 0. -1.
         25    2    1    2    0    0  0.12264534140E+02 -0.30977217192E+01  0.23579620944E+02  0.12783331382E+03  0.12500137168E+03 0.  0.
          2    1    1    2  501    0 -0.33068002802E+02 -0.23768035887E+02 -0.29524135541E+02  0.50299969371E+02  0.00000000000E+00 0. -1.
          1    1    1    2  502    0  0.20803468662E+02  0.26865757606E+02  0.20292055165E+03  0.20574572540E+03  0.00000000000E+00 0. -1.
         22    1    3    3    0    0  0.59467848704E+02  0.56443902119E+01  0.45469908943E+02  0.75071944092E+02  0.00000000000E+00 0. -1.
         22    1    3    3    0    0 -0.47203314565E+02 -0.87421119311E+01 -0.21890287999E+02  0.52761369728E+02  0.00000000000E+00 0. -1.
</event>
<event>
 7    1  0.5854318E-006  0.1007042E+03  0.7818608E-02  0.1443151E+00
          2   -1    0    0  502    0  0.00000000000E+00  0.00000000000E+00  0.23222660494E+04  0.23222660494E+04  0.00000000000E+00 0. -1.
          1   -1    0    0  501    0 -0.00000000000E+00 -0.00000000000E+00 -0.34850653171E+03  0.34850653171E+03  0.00000000000E+00 0. -1.
         25    2    1    2    0    0 -0.77979876385E+02 -0.41633871349E+02  0.67832848495E+03  0.69538889200E+03  0.12498774841E+03 0.  0.
          2    1    1    2  501    0 -0.89112318723E+00 -0.25216670547E+02 -0.33787132773E+03  0.33881220267E+03  0.00000000000E+00 0. -1.
          1    1    1    2  502    0  0.78870999572E+02  0.66850541896E+02  0.16333023604E+04  0.16365714864E+04  0.00000000000E+00 0. -1.
         22    1    3    3    0    0 -0.94831316704E+02  0.11549893753E+02  0.47706605628E+03  0.48653715246E+03  0.00000000000E+00 0. -1.
         22    1    3    3    0    0  0.16851440319E+02 -0.53183765103E+02  0.20126242867E+03  0.20885173953E+03  0.00000000000E+00 0. -1.
</event>
<event>
 7    1  0.5854318E-006  0.8354589E+02  0.7818608E-02  0.1432607E+00
          2   -1    0    0  502    0  0.00000000000E+00  0.00000000000E+00  0.12550889694E+04  0.12550889694E+04  0.00000000000E+00 0. -1.
          1   -1    0    0  501    0 -0.00000000000E+00 -0.00000000000E+00 -0.70609511910E+02  0.70609511910E+02  0.00000000000E+00 0. -1.
         25    2    1    2    0    0 -0.14573686270E+02  0.53387024559E+02  0.50365567058E+02  0.14569630916E+03  0.12501262910E+03 0.  0.
          2    1    1    2  501    0 -0.25190470319E+02  0.21187126097E+02 -0.87170612685E+01  0.34050569221E+02  0.00000000000E+00 0. -1.
          1    1    1    2  502    0  0.39764156589E+02 -0.74574150656E+02  0.11428309517E+04  0.11459516029E+04  0.00000000000E+00 0. -1.
         22    1    3    3    0    0 -0.41643517005E+02  0.82334253774E+02  0.52222983173E+02  0.10602052549E+03  0.00000000000E+00 0. -1.
         22    1    3    3    0    0  0.27069830735E+02 -0.28947229215E+02 -0.18574161145E+01  0.39675783670E+02  0.00000000000E+00 0. -1.
</event>
<event>
 7    1  0.5854318E-006  0.1317025E+03  0.7818608E-02  0.1426281E+00
          2   -1    0    0  502    0  0.00000000000E+00  0.00000000000E+00  0.35029975893E+03  0.35029975893E+03  0.00000000000E+00 0. -1.
          1   -1    0    0  501    0 -0.00000000000E+00 -0.00000000000E+00 -0.28989234692E+03  0.28989234692E+03  0.00000000000E+00 0. -1.
         25    2    1    2    0    0  0.88808398104E+02  0.12126110989E+03 -0.13869512718E+03  0.23970429432E+03  0.12502248624E+03 0.  0.
          2    1    1    2  501    0 -0.52155220899E+01 -0.21276945333E+02 -0.85075657306E+02  0.87850882405E+02  0.00000000000E+00 0. -1.
          1    1    1    2  502    0 -0.83592876014E+02 -0.99984164555E+02  0.28417819651E+03  0.31263692912E+03  0.00000000000E+00 0. -1.
         22    1    3    3    0    0 -0.12396272476E+02 -0.16585919608E+02 -0.20516778414E+01  0.20807923551E+02  0.00000000000E+00 0. -1.
         22    1    3    3    0    0  0.10120467058E+03  0.13784702950E+03 -0.13664344934E+03  0.21889637077E+03  0.00000000000E+00 0. -1.
</event>
<event>
 7    1  0.5854318E-006  0.1380886E+03  0.7818608E-02  0.1270837E+00
          2   -1    0    0  502    0  0.00000000000E+00  0.00000000000E+00  0.10385023449E+04  0.10385023449E+04  0.00000000000E+00 0. -1.
          1   -1    0    0  501    0 -0.00000000000E+00 -0.00000000000E+00 -0.20744548227E+03  0.20744548227E+03  0.00000000000E+00 0. -1.
         25    2    1    2    0    0  0.39985286733E+02 -0.50176281163E+02  0.39280364429E+03  0.41717668392E+03  0.12500080118E+03 0.  0.
          2    1    1    2  501    0 -0.99087306084E+02  0.10303073979E+03 -0.16615592759E+03  0.21918353004E+03  0.00000000000E+00 0. -1.
          1    1    1    2  502    0  0.59102019350E+02 -0.52854458626E+02  0.60440914589E+03  0.60958761317E+03  0.00000000000E+00 0. -1.
         22    1    3    3    0    0 -0.11423826449E+02 -0.76096192096E+02  0.16268926166E+03  0.17996924771E+03  0.00000000000E+00 0.  1.
         22    1    3    3    0    0  0.51409113182E+02  0.25919910933E+02  0.23011438263E+03  0.23720743621E+03  0.00000000000E+00 0.  1.
</event>
<event>
 7    1  0.5854318E-006  0.1217898E+03  0.7818608E-02  0.1383925E+00
          2   -1    0    0  502    0  0.00000000000E+00  0.00000000000E+00  0.32760892078E+04  0.32760892078E+04  0.00000000000E+00 0. -1.
          1   -1    0    0  501    0 -0.00000000000E+00 -0.00000000000E+00 -0.12173922456E+03  0.12173922456E+03  0.00000000000E+00 0. -1.
         25    2    1    2    0    0 -0.75804957084E+02  0.11564738218E+03  0.12012155319E+04  0.12155902590E+04  0.12498085973E+03 0.  0.
          2    1    1    2  501    0  0.87122090413E+02 -0.84596249693E+02 -0.82196332405E+02  0.14663908470E+03  0.00000000000E+00 0. -1.
          1    1    1    2  502    0 -0.11317133329E+02 -0.31051132490E+02  0.20353307837E+04  0.20355990886E+04  0.00000000000E+00 0. -1.
         22    1    3    3    0    0 -0.19170251796E+02  0.84248788407E+02  0.10103709365E+04  0.10140585714E+04  0.00000000000E+00 0. -1.
         22    1    3    3    0    0 -0.56634705288E+02  0.31398593776E+02  0.19084459536E+03  0.20153168762E+03  0.00000000000E+00 0. -1.
</event>
<event>
 7    1  0.5854318E-006  0.1101963E+03  0.7818608E-02  0.1283694E+00
          2   -1    0    0  502    0  0.00000000000E+00  0.00000000000E+00  0.11475282511E+04  0.11475282511E+04  0.00000000000E+00 0. -1.
          1   -1    0    0  501    0 -0.00000000000E+00 -0.00000000000E+00 -0.18812795797E+03  0.18812795797E+03  0.00000000000E+00 0. -1.
         25    2    1    2    0    0 -0.14946503522E+03 -0.12121776536E+03  0.27096679903E+03  0.35508015251E+03  0.12500146052E+03 0.  0.
          2    1    1    2  501    0  0.76716144232E+02  0.71937217784E+02 -0.12446208816E+03  0.16294521005E+03  0.00000000000E+00 0. -1.
          1    1    1    2  502    0  0.72748890990E+02  0.49280547576E+02  0.81289558230E+03  0.81763084655E+03  0.00000000000E+00 0. -1.
         22    1    3    3    0    0  0.32767955517E+01 -0.46401701513E+02  0.11603521880E+03  0.12501210859E+03  0.00000000000E+00 0. -1.
         22    1    3    3    0    0 -0.15274183077E+03 -0.74816063847E+02  0.15493158023E+03  0.23006804392E+03  0.00000000000E+00 0. -1.
</event>
<event>
 7    1  0.5854318E-006  0.2484701E+03  0.7818608E-02  0.1178941E+00
          2   -1    0    0  502    0  0.00000000000E+00  0.00000000000E+00  0.22625806386E+03  0.22625806386E+03  0.00000000000E+00 0. -1.
          1   -1    0    0  501    0 -0.00000000000E+00 -0.00000000000E+00 -0.98814575327E+03  0.98814575327E+03  0.00000000000E+00 0. -1.
         25    2    1    2    0    0 -0.53628840405E+02 -0.17938797760E+03 -0.20701879502E+03  0.30581876134E+03  0.12494892662E+03 0.  0.
          2    1    1    2  501    0  0.14701481096E+03  0.24630648216E+03 -0.68041454045E+03  0.73840651720E+03  0.00000000000E+00 0. -1.
          1    1    1    2  502    0 -0.93385970553E+02 -0.66918504560E+02  0.12554564607E+03  0.17017853859E+03  0.00000000000E+00 0. -1.
         22    1    3    3    0    0  0.23405118688E+02 -0.13311340316E+03 -0.12823985600E+03  0.18631274338E+03  0.00000000000E+00 0. -1.
         22    1    3    3    0    0 -0.77033959092E+02 -0.46274574440E+02 -0.78778939024E+02  0.11950601795E+03  0.00000000000E+00 0. -1.
</event>
<event>
 7    1  0.5854318E-006  0.5792831E+02  0.7818608E-02  0.1529571E+00
          2   -1    0    0  502    0  0.00000000000E+00  0.00000000000E+00  0.95477629907E+03  0.95477629907E+03  0.00000000000E+00 0. -1.
          1   -1    0    0  501    0 -0.00000000000E+00 -0.00000000000E+00 -0.75166959214E+03  0.75166959214E+03  0.00000000000E+00 0. -1.
         25    2    1    2    0    0 -0.78032012522E+02 -0.23212341973E+02 -0.75256224178E+02  0.16708092266E+03  0.12499891055E+03 0.  0.
          2    1    1    2  501    0  0.21881235254E+02  0.97102721306E+01 -0.62935581328E+03  0.62981093794E+03  0.00000000000E+00 0. -1.
          1    1    1    2  502    0  0.56150777268E+02  0.13502069842E+02  0.90771874439E+03  0.90955403060E+03  0.00000000000E+00 0. -1.
         22    1    3    3    0    0 -0.10518969133E+03 -0.21354574491E+02 -0.86278396005E+02  0.13771292834E+03  0.00000000000E+00 0.  1.
         22    1    3    3    0    0  0.27157678811E+02 -0.18577674817E+01  0.11022171827E+02  0.29367994317E+02  0.00000000000E+00 0.  1.
</event>
<event>
 7    1  0.5854318E-006  0.5200511E+02  0.7818608E-02  0.1445501E+00
          2   -1    0    0  502    0  0.00000000000E+00  0.00000000000E+00  0.75656163364E+03  0.75656163364E+03  0.00000000000E+00 0. -1.
          1   -1    0    0  501    0 -0.00000000000E+00 -0.00000000000E+00 -0.19299486927E+02  0.19299486927E+02  0.00000000000E+00 0. -1.
         25    2    1    2    0    0 -0.33778825490E+02  0.34272144693E+02  0.44353861340E+03  0.46332206302E+03  0.12500097419E+03 0.  0.
          2    1    1    2  501    0 -0.78525148775E+01 -0.58195230763E+02  0.15610272857E+03  0.16678251929E+03  0.00000000000E+00 0. -1.
          1    1    1    2  502    0  0.41631340367E+02  0.23923086070E+02  0.13762080474E+03  0.14575653826E+03  0.00000000000E+00 0. -1.
         22    1    3    3    0    0  0.18201626262E+01 -0.45112189817E+02  0.18929525902E+03  0.19460503012E+03  0.00000000000E+00 0. -1.
         22    1    3    3    0    0 -0.35598988116E+02  0.79384334510E+02  0.25424335438E+03  0.26871703290E+03  0.00000000000E+00 0. -1.
</event>
<event>
 7    1  0.5854318E-006  0.1328724E+03  0.7818608E-02  0.1303513E+00
          2   -1    0    0  502    0  0.00000000000E+00  0.00000000000E+00  0.17274827190E+04  0.17274827190E+04  0.00000000000E+00 0. -1.
          1   -1    0    0  501    0 -0.00000000000E+00 -0.00000000000E+00 -0.40716830133E+03  0.40716830133E+03  0.00000000000E+00 0. -1.
         25    2    1    2    0    0 -0.39299399664E+02  0.15271044088E+03  0.39043389952E+02  0.20497329572E+03  0.12499897636E+03 0.  0.
          2    1    1    2  501    0 -0.39284550876E+02 -0.46131348650E+02 -0.31861288930E+03  0.32432321918E+03  0.00000000000E+00 0. -1.
          1    1    1    2  502    0  0.78583950541E+02 -0.10657909223E+03  0.15998839170E+04  0.16053545054E+04  0.00000000000E+00 0. -1.
         22    1    3    3    0    0 -0.61763085188E+02  0.15980298449E+03  0.16080593331E+02  0.17207631454E+03  0.00000000000E+00 0.  1.
         22    1    3    3    0    0  0.22463685524E+02 -0.70925436061E+01  0.22962796621E+02  0.32896981180E+02  0.00000000000E+00 0.  1.
</event>
<event>
 7    1  0.5854318E-006  0.9203835E+02  0.7818608E-02  0.1461974E+00
          2   -1    0    0  502    0  0.00000000000E+00  0.00000000000E+00  0.80080917334E+03  0.80080917334E+03  0.00000000000E+00 0. -1.
          1   -1    0    0  501    0 -0.00000000000E+00 -0.00000000000E+00 -0.58274015009E+03  0.58274015009E+03  0.00000000000E+00 0. -1.
         25    2    1    2    0    0 -0.96670173500E+02 -0.61063530003E+02  0.54198719707E+02  0.17785160884E+03  0.12497926392E+03 0.  0.
          2    1    1    2  501    0  0.22551462653E+02  0.83428793753E+01 -0.51761306156E+03  0.51817125895E+03  0.00000000000E+00 0. -1.
          1    1    1    2  502    0  0.74118710846E+02  0.52720650628E+02  0.68148336510E+03  0.68752645564E+03  0.00000000000E+00 0. -1.
         22    1    3    3    0    0 -0.84293216045E+02  0.17894938740E+02  0.45529118791E+02  0.97460123956E+02  0.00000000000E+00 0. -1.
         22    1    3    3    0    0 -0.12376957455E+02 -0.78958468743E+02  0.86696009157E+01  0.80391484886E+02  0.00000000000E+00 0. -1.
</event>
<event>
 7    1  0.5854318E-006  0.6579359E+02  0.7818608E-02  0.1422402E+00
          2   -1    0    0  502    0  0.00000000000E+00  0.00000000000E+00  0.25361033683E+03  0.25361033683E+03  0.00000000000E+00 0. -1.
          1   -1    0    0  501    0 -0.00000000000E+00 -0.00000000000E+00 -0.24571949236E+04  0.24571949236E+04  0.00000000000E+00 0. -1.
         25    2    1    2    0    0 -0.21982057052E+02 -0.13665531737E+02 -0.12484820274E+03  0.17855568750E+03  0.12500040889E+03 0.  0.
          2    1    1    2  501    0  0.66355474801E+02  0.52116283672E+01 -0.23027577059E+04  0.23037194408E+04  0.00000000000E+00 0. -1.
          1    1    1    2  502    0 -0.44373417749E+02  0.84539033698E+01  0.22402132179E+03  0.22853013215E+03  0.00000000000E+00 0. -1.
         22    1    3    3    0    0  0.15820129434E+02  0.33140637379E+02  0.34161339768E+01  0.36881544335E+02  0.00000000000E+00 0. -1.
         22    1    3    3    0    0 -0.37802186486E+02 -0.46806169116E+02 -0.12826433671E+03  0.14167414317E+03  0.00000000000E+00 0. -1.
</event>
<event>
 7    1  0.5854318E-006  0.1991169E+03  0.7818608E-02  0.1212511E+00
          2   -1    0    0  502    0  0.00000000000E+00  0.00000000000E+00  0.22185173309E+04  0.22185173309E+04  0.00000000000E+00 0. -1.
          1   -1    0    0  501    0 -0.00000000000E+00 -0.00000000000E+00 -0.12212787154E+04  0.12212787154E+04  0.00000000000E+00 0. -1.
         25    2    1    2    0    0  0.14472594938E+03  0.14445395981E+03  0.94273618340E+03  0.97272248287E+03  0.12499988106E+03 0.  0.
          2    1    1    2  501    0  0.51315964080E+02 -0.85005039578E+02 -0.11958929491E+04  0.12000079711E+04  0.00000000000E+00 0. -1.
          1    1    1    2  502    0 -0.19604191346E+03 -0.59448920235E+02  0.12503953812E+04  0.12670655923E+04  0.00000000000E+00 0. -1.
         22    1    3    3    0    0  0.12652672903E+03  0.53618634306E+02  0.68979794372E+03  0.70335280924E+03  0.00000000000E+00 0. -1.
         22    1    3    3    0    0  0.18199220349E+02  0.90835325508E+02  0.25293823968E+03  0.26936967363E+03  0.00000000000E+00 0. -1.
</event>
<event>
 7    1  0.5854318E-006  0.5057031E+02  0.7818608E-02  0.1472911E+00
          2   -1    0    0  502    0  0.00000000000E+00  0.00000000000E+00  0.66271214024E+03  0.66271214024E+03  0.00000000000E+00 0. -1.
          1   -1    0    0  501    0 -0.00000000000E+00 -0.00000000000E+00 -0.70261487991E+03  0.70261487991E+03  0.00000000000E+00 0. -1.
         25    2    1    2    0    0  0.15670366271E+02 -0.71310084689E+01 -0.20588250706E+02  0.12784994003E+03  0.12500127775E+03 0.  0.
          2    1    1    2  501    0 -0.19689238007E+02  0.47384389800E+02 -0.62667431335E+03  0.62877153363E+03  0.00000000000E+00 0. -1.
          1    1    1    2  502    0  0.40188717359E+01 -0.40253381331E+02  0.60735982439E+03  0.60870554649E+03  0.00000000000E+00 0. -1.
         22    1    3    3    0    0 -0.12343483719E+01  0.49889947252E+02  0.22162739157E+02  0.54605104703E+02  0.00000000000E+00 0.  1.
         22    1    3    3    0    0  0.16904714643E+02 -0.57020955720E+02 -0.42750989863E+02  0.73244835331E+02  0.00000000000E+00 0.  1.
</event>
<event>
 7    1  0.5854318E-006  0.1002526E+03  0.7818608E-02  0.1338217E+00
          2   -1    0    0  502    0  0.00000000000E+00  0.00000000000E+00  0.27045579447E+04  0.27045579447E+04  0.00000000000E+00 0. -1.
          1   -1    0    0  501    0 -0.00000000000E+00 -0.00000000000E+00 -0.15979866992E+03  0.15979866992E+03  0.00000000000E+00 0. -1.
         25    2    1    2    0    0  0.74894960631E+02 -0.23084906930E+01  0.24912019481E+03  0.28861856325E+03  0.12500087733E+03 0.  0.
          2    1    1    2  501    0 -0.86726944396E+02 -0.55411206269E+02 -0.12073422163E+03  0.15864651568E+03  0.00000000000E+00 0. -1.
          1    1    1    2  502    0  0.11831983765E+02  0.57719696962E+02  0.24163733016E+04  0.24170915357E+04  0.00000000000E+00 0. -1.
         22    1    3    3    0    0 -0.27555068132E+02 -0.28103279378E+02  0.55314895107E+02  0.67888244286E+02  0.00000000000E+00 0. -1.
         22    1    3    3    0    0  0.10245002876E+03  0.25794788685E+02  0.19380529970E+03  0.22073031896E+03  0.00000000000E+00 0. -1.
</event>
<event>
 7    1  0.5854318E-006  0.2305294E+03  0.7818608E-02  0.1225137E+00
          2   -1    0    0  502    0  0.00000000000E+00  0.00000000000E+00  0.20996471274E+04  0.20996471274E+04  0.00000000000E+00 0. -1.
          1   -1    0    0  501    0 -0.00000000000E+00 -0.00000000000E+00 -0.18345222253E+03  0.18345222253E+03  0.00000000000E+00 0. -1.
         25    2    1    2    0    0  0.15984167722E+03  0.23108308324E+03  0.51017530713E+03  0.59569482580E+03  0.12499891337E+03 0.  0.
          2    1    1    2  501    0 -0.69473133864E+02 -0.28513560968E+02 -0.12205914830E+03  0.14331076433E+03  0.00000000000E+00 0. -1.
          1    1    1    2  502    0 -0.90368543355E+02 -0.20256952227E+03  0.15280787461E+04  0.15440937599E+04  0.00000000000E+00 0. -1.
         22    1    3    3    0    0  0.29423268308E+02  0.42612518043E+02  0.21952148689E+03  0.22554653315E+03  0.00000000000E+00 0.  1.
         22    1    3    3    0    0  0.13041840891E+03  0.18847056519E+03  0.29065382025E+03  0.37014829265E+03  0.00000000000E+00 0.  1.
</event>
<event>
 7    1  0.5854318E-006  0.1659244E+03  0.7818608E-02  0.1260734E+00
          2   -1    0    0  502    0  0.00000000000E+00  0.00000000000E+00  0.68302038880E+03  0.68302038880E+03  0.00000000000E+00 0. -1.
          1   -1    0    0  501    0 -0.00000000000E+00 -0.00000000000E+00 -0.23773244019E+03  0.23773244019E+03  0.00000000000E+00 0. -1.
         25    2    1    2    0    0 -0.18114598125E+03  0.76446762086E+02  0.60222335718E+02  0.24064445681E+03  0.12500020368E+03 0.  0.
          2    1    1    2  501    0  0.15946358587E+03 -0.69430750233E+01 -0.10082562369E+03  0.18879260552E+03  0.00000000000E+00 0. -1.
          1    1    1    2  502    0  0.21682395377E+02 -0.69503687062E+02  0.48589123658E+03  0.49131576666E+03  0.00000000000E+00 0. -1.
         22    1    3    3    0    0 -0.16667505985E+03  0.79639066988E+02  0.64166581053E+01  0.18483541346E+03  0.00000000000E+00 0. -1.
         22    1    3    3    0    0 -0.14470921398E+02 -0.31923049025E+01  0.53805677613E+02  0.55809043354E+02  0.00000000000E+00 0. -1.
</event>
<event>
 7    1  0.5854318E-006  0.8617117E+02  0.7818608E-02  0.1373330E+00
          2   -1    0    0  502    0  0.00000000000E+00  0.00000000000E+00  0.29745245459E+03  0.29745245459E+03  0.00000000000E+00 0. -1.
          1   -1    0    0  501    0 -0.00000000000E+00 -0.00000000000E+00 -0.78920401436E+03  0.78920401436E+03  0.00000000000E+00 0. -1.
         25    2    1    2    0    0  0.12469180272E+03  0.28971694764E+02  0.50768399373E+02  0.18598584357E+03  0.12500359543E+03 0.  0.
          2    1    1    2  501    0 -0.50805302372E+02  0.36242732644E+01 -0.71153370883E+03  0.71335442307E+03  0.00000000000E+00 0. -1.
          1    1    1    2  502    0 -0.73886500347E+02 -0.32595968028E+02  0.16901374969E+03  0.18731620232E+03  0.00000000000E+00 0. -1.
         22    1    3    3    0    0  0.61159183478E+02 -0.16644804874E+02  0.80371945602E+02  0.10235792540E+03  0.00000000000E+00 0.  1.
         22    1    3    3    0    0  0.63532619241E+02  0.45616499638E+02 -0.29603546229E+02  0.83627918163E+02  0.00000000000E+00 0.  1.
</event>
<event>
 7    1  0.5854318E-006  0.5601878E+02  0.7818608E-02  0.1533289E+00
          2   -1    0    0  502    0  0.00000000000E+00  0.00000000000E+00  0.63139887654E+03  0.63139887654E+03  0.00000000000E+00 0. -1.
          1   -1    0    0  501    0 -0.00000000000E+00 -0.00000000000E+00 -0.12398298995E+04  0.12398298995E+04  0.00000000000E+00 0. -1.
         25    2    1    2    0    0  0.29820941781E+01 -0.59392306442E+02 -0.24589089602E+02  0.14059033952E+03  0.12499872514E+03 0.  0.
          2    1    1    2  501    0 -0.25249049682E+02  0.50026776666E+02 -0.11563069368E+04  0.11576639949E+04  0.00000000000E+00 0. -1.
          1    1    1    2  502    0  0.22266955504E+02  0.93655297755E+01  0.57246500353E+03  0.57297444159E+03  0.00000000000E+00 0. -1.
         22    1    3    3    0    0 -0.42407852546E+02 -0.69891587805E+02  0.10284275456E+02  0.82395547969E+02  0.00000000000E+00 0. -1.
         22    1    3    3    0    0  0.45389946724E+02  0.10499281364E+02 -0.34873365058E+02  0.58194791548E+02  0.00000000000E+00 0. -1.
</event>
<event>
 7    1  0.5854318E-006  0.9073263E+02  0.7818608E-02  0.1384241E+00
          2   -1    0    0  502    0  0.00000000000E+00  0.00000000000E+00  0.25912814795E+03  0.25912814795E+03  0.00000000000E+00 0. -1.
          1   -1    0    0  501    0 -0.00000000000E+00 -0.00000000000E+00 -0.93632673237E+02  0.93632673237E+02  0.00000000000E+00 0. -1.
         25    2    1    2    0    0  0.64405816152E+02  0.28125270134E+02  0.88906380451E+02  0.16872474942E+03  0.12499822642E+03 0.  0.
          2    1    1    2  501    0 -0.10087263782E+03 -0.30639404309E+01  0.64743507320E+01  0.10112662364E+03  0.00000000000E+00 0. -1.
          1    1    1    2  502    0  0.36466821663E+02 -0.25061329703E+02  0.70114743525E+02  0.82909448124E+02  0.00000000000E+00 0. -1.
         22    1    3    3    0    0  0.57080841894E+02 -0.25319506710E+02  0.95786729332E+02  0.11434333145E+03  0.00000000000E+00 0. -1.
         22    1    3    3    0    0  0.73249742579E+01  0.53444776844E+02 -0.68803488806E+01  0.54381417970E+02  0.00000000000E+00 0. -1.
</event>
<event>
 7    1  0.5854318E-006  0.1054396E+03  0.7818608E-02  0.1324248E+00
          2   -1    0    0  502    0  0.00000000000E+00  0.00000000000E+00  0.32482332828E+03  0.32482332828E+03  0.00000000000E+00 0. -1.
          1   -1    0    0  501    0 -0.00000000000E+00 -0.00000000000E+00 -0.76087359170E+03  0.76087359170E+03  0.00000000000E+00 0. -1.
         25    2    1    2    0    0 -0.10393971847E+03 -0.13130810294E+03 -0.50482722280E+03  0.54636529040E+03  0.12497688869E+03 0.  0.
          2    1    1    2  501    0  0.35853065436E+02  0.52205827142E+02 -0.22175525845E+03  0.23062151968E+03  0.00000000000E+00 0. -1.
          1    1    1    2  502    0  0.68086653033E+02  0.79102275796E+02  0.29053221783E+03  0.30871010990E+03  0.00000000000E+00 0. -1.
         22    1    3    3    0    0 -0.37014158876E+02 -0.50764088836E+02 -0.51901838261E+02  0.81491358361E+02  0.00000000000E+00 0. -1.
         22    1    3    3    0    0 -0.66925559592E+02 -0.80544014102E+02 -0.45292538454E+03  0.46487393204E+03  0.00000000000E+00 0. -1.
</event>
<event>
 7    1  0.5854318E-006  0.5642709E+02  0.7818608E-02  0.1428646E+00
          2   -1    0    0  502    0  0.00000000000E+00  0.00000000000E+00  0.28553722365E+04  0.28553722365E+04  0.00000000000E+00 0. -1.
          1   -1    0    0  501    0 -0.00000000000E+00 -0.00000000000E+00 -0.29933271107E+04  0.29933271107E+04  0.00000000000E+00 0. -1.
         25    2    1    2    0    0 -0.47714069524E+02  0.33865073994E+02 -0.24326390396E+03  0.27968964176E+03  0.12500197227E+03 0.  0.
          2    1    1    2  501    0  0.44890080561E+02  0.22513021062E+02 -0.27313387199E+04  0.27318003511E+04  0.00000000000E+00 0. -1.
          1    1    1    2  502    0  0.28239889632E+01 -0.56378095056E+02  0.28366477497E+04  0.28372093543E+04  0.00000000000E+00 0. -1.
         22    1    3    3    0    0 -0.52141829807E+02 -0.67674224275E+01 -0.26077625361E+02  0.58690808193E+02  0.00000000000E+00 0. -1.
         22    1    3    3    0    0  0.44277602828E+01  0.40632496422E+02 -0.21718627859E+03  0.22099883356E+03  0.00000000000E+00 0. -1.
</event>
<event>
 7    1  0.5854318E-006  0.5142843E+02  0.7818608E-02  0.1560847E+00
          2   -1    0    0  502    0  0.00000000000E+00  0.00000000000E+00  0.43753794218E+03  0.43753794218E+03  0.00000000000E+00 0. -1.
          1   -1    0    0  501    0 -0.00000000000E+00 -0.00000000000E+00 -0.22389459675E+03  0.22389459675E+03  0.00000000000E+00 0. -1.
         25    2    1    2    0    0 -0.34386914161E+02  0.39119130827E+02  0.10559049549E+03  0.17170755157E+03  0.12498545621E+03 0.  0.
          2    1    1    2  501    0  0.14870453074E+02 -0.49335051643E+02 -0.18693967598E+03  0.19391111405E+03  0.00000000000E+00 0. -1.
          1    1    1    2  502    0  0.19516461088E+02  0.10215920816E+02  0.29499252592E+03  0.29581387331E+03  0.00000000000E+00 0. -1.
         22    1    3    3    0    0 -0.20139390680E+02 -0.45408515060E+02  0.39715838611E+02  0.63599340669E+02  0.00000000000E+00 0.  1.
         22    1    3    3    0    0 -0.14247523481E+02  0.84527645887E+02  0.65874656883E+02  0.10810821090E+03  0.00000000000E+00 0.  1.
</event>
<event>
 7    1  0.5854318E-006  0.1538423E+03  0.7818608E-02  0.1277250E+00
          2   -1    0    0  502    0  0.00000000000E+00  0.00000000000E+00  0.49899646952E+03  0.49899646952E+03  0.00000000000E+00 0. -1.
          1   -1    0    0  501    0 -0.00000000000E+00 -0.00000000000E+00 -0.12700731672E+04  0.12700731672E+04  0.00000000000E+00 0. -1.
         25    2    1    2    0    0  0.21209107290E+03  0.55657866062E+01  0.38526766702E+02  0.24924363989E+03  0.12499791634E+03 0.  0.
          2    1    1    2  501    0 -0.66522451925E+02 -0.72551817591E+01 -0.11487800242E+04  0.11507273431E+04  0.00000000000E+00 0. -1.
          1    1    1    2  502    0 -0.14556862098E+03  0.16893951529E+01  0.33917655978E+03  0.36909865372E+03  0.00000000000E+00 0. -1.
         22    1    3    3    0    0 -0.10962814435E+02 -0.67930036571E+01  0.21663824773E+02  0.25212090409E+02  0.00000000000E+00 0.  1.
         22    1    3    3    0    0  0.22305388734E+03  0.12358790263E+02  0.16862941929E+02  0.22403154948E+03  0.00000000000E+00 0.  1.
</event>
<event>
 7    1  0.5854318E-006  0.1509794E+03  0.7818608E-02  0.1331747E+00
          2   -1    0    0  502    0  0.00000000000E+00  0.00000000000E+00  0.67383867277E+03  0.67383867277E+03  0.00000000000E+00 0. -1.
          1   -1    0    0  501    0 -0.00000000000E+00 -0.00000000000E+00 -0.19829354845E+03  0.19829354845E+03  0.00000000000E+00 0. -1.
         25    2    1    2    0    0 -0.39516045590E+02 -0.15924862991E+03  0.10697146118E+03  0.23235812797E+03  0.12500304852E+03 0.  0.
          2    1    1    2  501    0 -0.30937753337E+02  0.27505941772E+02 -0.12101417250E+03  0.12789898889E+03  0.00000000000E+00 0. -1.
          1    1    1    2  502    0  0.70453798927E+02  0.13174268814E+03  0.48958783564E+03  0.51187510437E+03  0.00000000000E+00 0. -1.
         22    1    3    3    0    0 -0.58915179807E+02 -0.37292446451E+02  0.79696146746E+02  0.10589240190E+03  0.00000000000E+00 0. -1.
         22    1    3    3    0    0  0.19399134217E+02 -0.12195618346E+03  0.27275314432E+02  0.12646572607E+03  0.00000000000E+00 0. -1.
</event>
<event>
 7    1  0.5854318E-006  0.5514550E+02  0.7818608E-02  0.1422406E+00
          2   -1    0    0  502    0  0.00000000000E+00  0.00000000000E+00  0.16410385667E+04  0.16410385667E+04  0.00000000000E+00 0. -1.
          1   -1    0    0  501    0 -0.00000000000E+00 -0.00000000000E+00 -0.80571735561E+03  0.80571735561E+03  0.00000000000E+00 0. -1.
         25    2    1    2    0    0  0.26012510631E+01  0.48693927605E+01  0.12985998829E+03  0.18031860617E+03  0.12498282154E+03 0.  0.
          2    1    1    2  501    0  0.53653750496E+02 -0.50588959012E+01 -0.77902435770E+03  0.78088620635E+03  0.00000000000E+00 0. -1.
          1    1    1    2  502    0 -0.56255001559E+02  0.18950314075E+00  0.14844855805E+04  0.14855511098E+04  0.00000000000E+00 0. -1.
         22    1    3    3    0    0 -0.28778352698E+02 -0.44050133037E+01  0.14234831185E+03  0.14529500891E+03  0.00000000000E+00 0. -1.
         22    1    3    3    0    0  0.31379603762E+02  0.92744060641E+01 -0.12488323559E+02  0.35023597265E+02  0.00000000000E+00 0. -1.
</event>
<event>
 7    1  0.6026642E-006  0.5273851E+02  0.7818608E-02  0.1473308E+00
          2   -1    0    0  502    0  0.00000000000E+00  0.00000000000E+00  0.11127989426E+04  0.11127989426E+04  0.00000000000E+00 0. -1.
          1   -1    0    0  501    0 -0.00000000000E+00 -0.00000000000E+00 -0.30867245977E+04  0.30867245977E+04  0.00000000000E+00 0. -1.
         25    2    1    2    0    0 -0.17622764854E+02 -0.28479172416E+02 -0.26265096176E+03  0.29280024782E+03  0.12499932924E+03 0.  0.
          2    1    1    2  501    0 -0.34162379739E+02  0.18141920492E+02 -0.28082306471E+04  0.28084970295E+04  0.00000000000E+00 0. -1.
          1    1    1    2  502    0  0.51785144593E+02  0.10337251924E+02  0.10969559538E+04  0.10982262629E+04  0.00000000000E+00 0. -1.
         22    1    3    3    0    0  0.21014238415E+02 -0.59660253781E+02 -0.21451861738E+03  0.22364968432E+03  0.00000000000E+00 0.  1.
         22    1    3    3    0    0 -0.38637003269E+02  0.31181081365E+02 -0.48132344382E+02  0.69150563500E+02  0.00000000000E+00 0.  1.
</event>
<event>
 7    1  0.5854318E-006  0.1531109E+03  0.7818608E-02  0.1223810E+00
          2   -1    0    0  502    0  0.00000000000E+00  0.00000000000E+00  0.15181087187E+04  0.15181087187E+04  0.00000000000E+00 0. -1.
          1   -1    0    0  501    0 -0.00000000000E+00 -0.00000000000E+00 -0.52441461559E+03  0.52441461559E+03  0.00000000000E+00 0. -1.
         25    2    1    2    0    0  0.83263243501E+02 -0.11041875892E+03  0.37130170667E+03  0.41547112866E+03  0.12500492524E+03 0.  0.
          2    1    1    2  501    0 -0.10085842937E+03 -0.54502146153E+02 -0.48955712581E+03  0.50280123920E+03  0.00000000000E+00 0. -1.
          1    1    1    2  502    0  0.17595185867E+02  0.16492090507E+03  0.11119495222E+04  0.11242509664E+04  0.00000000000E+00 0. -1.
         22    1    3    3    0    0  0.64555215644E+02 -0.82513878059E+02  0.36692848262E+03  0.38159196440E+03  0.00000000000E+00 0.  1.
         22    1    3    3    0    0  0.18708027857E+02 -0.27904880863E+02  0.43732240502E+01  0.33879164259E+02  0.00000000000E+00 0.  1.
</event>
<event>
 7    1  0.5854318E-006  0.1723917E+03  0.7818608E-02  0.1368481E+00
          2   -1    0    0  502    0  0.00000000000E+00  0.00000000000E+00  0.80664747482E+03  0.80664747482E+03  0.00000000000E+00 0. -1.
          1   -1    0    0  501    0 -0.00000000000E+00 -0.00000000000E+00 -0.47890299306E+03  0.47890299306E+03  0.00000000000E+00 0. -1.
         25    2    1    2    0    0  0.10045020901E+03  0.16096510174E+03  0.37356242983E+03  0.43723289084E+03  0.12499481345E+03 0.  0.
          2    1    1    2  501    0 -0.12212367369E+02 -0.23519457501E+02 -0.43002160798E+03  0.43083742889E+03  0.00000000000E+00 0. -1.
          1    1    1    2  502    0 -0.88237841638E+02 -0.13744564424E+03  0.38420365991E+03  0.41748014816E+03  0.00000000000E+00 0. -1.
         22    1    3    3    0    0  0.22607296299E+02  0.70006398798E+02  0.41984376297E+02  0.84703444863E+02  0.00000000000E+00 0. -1.
         22    1    3    3    0    0  0.77842912709E+02  0.90958702939E+02  0.33157805353E+03  0.35252944598E+03  0.00000000000E+00 0. -1.
</event>
<event>
 7    1  0.5854318E-006  0.3111331E+02  0.7818608E-02  0.1602122E+00
          2   -1    0    0  502    0  0.00000000000E+00  0.00000000000E+00  0.67049001414E+02  0.67049001414E+02  0.00000000000E+00 0. -1.
          1   -1    0    0  501    0 -0.00000000000E+00 -0.00000000000E+00 -0.19654746375E+04  0.19654746375E+04  0.00000000000E+00 0. -1.
         25    2    1    2    0    0  0.23609715030E+01  0.10160041872E+02 -0.10786389781E+04  0.10859080747E+04  0.12500200340E+03 0.  0.
          2    1    1    2  501    0 -0.30398545210E+02 -0.13477079164E+02 -0.87972890844E+03  0.88035711820E+03  0.00000000000E+00 0. -1.
          1    1    1    2  502    0  0.28037573707E+02  0.33170372927E+01  0.59942250499E+02  0.66258446033E+02  0.00000000000E+00 0. -1.
         22    1    3    3    0    0  0.53539129780E+02 -0.21745029286E+02 -0.71209413222E+03  0.71443497805E+03  0.00000000000E+00 0. -1.
         22    1    3    3    0    0 -0.51178158277E+02  0.31905071158E+02 -0.36654484589E+03  0.37147309660E+03  0.00000000000E+00 0. -1.
</event>
<event>
 7    1  0.5854318E-006  0.7886326E+02  0.7818608E-02  0.1408501E+00
          2   -1    0    0  502    0  0.00000000000E+00  0.00000000000E+00  0.49106152430E+03  0.49106152430E+03  0.00000000000E+00 0. -1.
          1   -1    0    0  501    0 -0.00000000000E+00 -0.00000000000E+00 -0.95987058327E+03  0.95987058327E+03  0.00000000000E+00 0. -1.
         25    2    1    2    0    0 -0.23546850708E+01 -0.37814765157E+02  0.62556894730E+02  0.14484075327E+03  0.12501990931E+03 0.  0.
          2    1    1    2  501    0 -0.24092744666E+01  0.79510664387E+02 -0.91586286419E+03  0.91931090300E+03  0.00000000000E+00 0. -1.
          1    1    1    2  502    0  0.47639595374E+01 -0.41695899230E+02  0.38449691050E+03  0.38678045130E+03  0.00000000000E+00 0. -1.
         22    1    3    3    0    0  0.31089300708E+01  0.37126091737E+02 -0.11848839955E+02  0.39094848026E+02  0.00000000000E+00 0. -1.
         22    1    3    3    0    0 -0.54636151417E+01 -0.74940856895E+02  0.74405734685E+02  0.10574590525E+03  0.00000000000E+00 0. -1.
</event>
<event>
 7    1  0.5854318E-006  0.6274862E+02  0.7818608E-02  0.1401304E+00
          2   -1    0    0  502    0  0.00000000000E+00  0.00000000000E+00  0.12284782731E+03  0.12284782731E+03  0.00000000000E+00 0. -1.
          1   -1    0    0  501    0 -0.00000000000E+00 -0.00000000000E+00 -0.10369479672E+04  0.10369479672E+04  0.00000000000E+00 0. -1.
         25    2    1    2    0    0  0.18836197606E+02 -0.33195666265E+02 -0.72341529551E+03  0.73512693289E+03  0.12500065232E+03 0.  0.
          2    1    1    2  501    0 -0.79391106406E+02  0.16749026533E+02 -0.29334001798E+03  0.30435479923E+03  0.00000000000E+00 0. -1.
          1    1    1    2  502    0  0.60554908800E+02  0.16446639733E+02  0.10265517360E+03  0.12031406238E+03  0.00000000000E+00 0. -1.
         22    1    3    3    0    0 -0.26768892310E+01 -0.78991439998E+02 -0.48545678258E+03  0.49184865668E+03  0.00000000000E+00 0. -1.
         22    1    3    3    0    0  0.21513086837E+02  0.45795773733E+02 -0.23795851293E+03  0.24327827621E+03  0.00000000000E+00 0. -1.
</event>
<event>
 7    1  0.5854318E-006  0.7532314E+02  0.7818608E-02  0.1461332E+00
          2   -1    0    0  502    0  0.00000000000E+00  0.00000000000E+00  0.42613548361E+03  0.42613548361E+03  0.00000000000E+00 0. -1.
          1   -1    0    0  501    0 -0.00000000000E+00 -0.00000000000E+00 -0.80043716006E+03  0.80043716006E+03  0.00000000000E+00 0. -1.
         25    2    1    2    0    0  0.73202215603E+02  0.53188992881E+02  0.65242216851E+02  0.16755244283E+03  0.12501856224E+03 0.  0.
          2    1    1    2  501    0 -0.44598477333E+02 -0.60479008557E+02 -0.74668863974E+03  0.75046029834E+03  0.00000000000E+00 0. -1.
          1    1    1    2  502    0 -0.28603738270E+02  0.72900156765E+01  0.30714474644E+03  0.30855990251E+03  0.00000000000E+00 0. -1.
         22    1    3    3    0    0 -0.20856998281E+02  0.16810459447E+02  0.60990076755E+02  0.66613777754E+02  0.00000000000E+00 0.  1.
         22    1    3    3    0    0  0.94059213884E+02  0.36378533434E+02  0.42521400956E+01  0.10093866507E+03  0.00000000000E+00 0.  1.
</event>
<event>
 7    1  0.5854318E-006  0.1541544E+03  0.7818608E-02  0.1356478E+00
          2   -1    0    0  502    0  0.00000000000E+00  0.00000000000E+00  0.43410291391E+03  0.43410291391E+03  0.00000000000E+00 0. -1.
          1   -1    0    0  501    0 -0.00000000000E+00 -0.00000000000E+00 -0.13316632118E+04  0.13316632118E+04  0.00000000000E+00 0. -1.
         25    2    1    2    0    0  0.59038599101E+02  0.17602172300E+03 -0.85667175813E+03  0.88542779510E+03  0.12500670387E+03 0.  0.
          2    1    1    2  501    0 -0.16264986413E+02 -0.28447920507E+02 -0.44593069856E+03  0.44713311428E+03  0.00000000000E+00 0. -1.
          1    1    1    2  502    0 -0.42773612688E+02 -0.14757380249E+03  0.40504215875E+03  0.43320521637E+03  0.00000000000E+00 0. -1.
         22    1    3    3    0    0  0.34230686810E+02  0.33713731947E+02 -0.65811521188E+02  0.81483200492E+02  0.00000000000E+00 0. -1.
         22    1    3    3    0    0  0.24807912291E+02  0.14230799105E+03 -0.79086023694E+03  0.80394459461E+03  0.00000000000E+00 0. -1.
</event>
<event>
 7    1  0.5854318E-006  0.1242136E+03  0.7818608E-02  0.1316579E+00
          2   -1    0    0  502    0  0.00000000000E+00  0.00000000000E+00  0.94298196834E+03  0.94298196834E+03  0.00000000000E+00 0. -1.
          1   -1    0    0  501    0 -0.00000000000E+00 -0.00000000000E+00 -0.22914701754E+04  0.22914701754E+04  0.00000000000E+00 0. -1.
         25    2    1    2    0    0 -0.82720672988E+02  0.91649965632E+01 -0.20175028850E+03  0.25150012366E+03  0.12498970513E+03 0.  0.
          2    1    1    2  501    0  0.12408486028E+03  0.30875589822E+02 -0.20619600736E+04  0.20659210294E+04  0.00000000000E+00 0. -1.
          1    1    1    2  502    0 -0.41364187295E+02 -0.40040586385E+02  0.91522215510E+03  0.91703099061E+03  0.00000000000E+00 0. -1.
         22    1    3    3    0    0 -0.76831454385E+02  0.43726477255E+02 -0.63427007759E+02  0.10880286076E+03  0.00000000000E+00 0.  1.
         22    1    3    3    0    0 -0.58892186026E+01 -0.34561480692E+02 -0.13832328074E+03  0.14269726290E+03  0.00000000000E+00 0.  1.
</event>
<event>
 7    1  0.5854318E-006  0.5114192E+02  0.7818608E-02  0.1474599E+00
          2   -1    0    0  502    0  0.00000000000E+00  0.00000000000E+00  0.10419206273E+04  0.10419206273E+04  0.00000000000E+00 0. -1.
          1   -1    0    0  501    0 -0.00000000000E+00 -0.00000000000E+00 -0.37007597219E+03  0.37007597219E+03  0.00000000000E+00 0. -1.
         25    2    1    2    0    0 -0.40530557888E+02 -0.13665382958E+01 -0.26589972129E+02  0.13407723849E+03  0.12500034286E+03 0.  0.
          2    1    1    2  501    0  0.33260434287E+02  0.40215392769E+02 -0.28699304974E+03  0.29169940848E+03  0.00000000000E+00 0. -1.
          1    1    1    2  502    0  0.72701236002E+01 -0.38848854473E+02  0.98542767699E+03  0.98621995253E+03  0.00000000000E+00 0. -1.
         22    1    3    3    0    0  0.36558855741E+02 -0.28091233186E+02 -0.25053683074E+02  0.52472415139E+02  0.00000000000E+00 0.  1.
         22    1    3    3    0    0 -0.77089413628E+02  0.26724694890E+02 -0.15362890552E+01  0.81604823354E+02  0.00000000000E+00 0.  1.
</event>
<event>
 7    1  0.5854318E-006  0.1319579E+03  0.7818608E-02  0.1250856E+00
          2   -1    0    0  502    0  0.00000000000E+00  0.00000000000E+00  0.12646987351E+03  0.12646987351E+03  0.00000000000E+00 0. -1.
          1   -1    0    0  501    0 -0.00000000000E+00 -0.00000000000E+00 -0.17865538254E+04  0.17865538254E+04  0.00000000000E+00 0. -1.
         25    2    1    2    0    0  0.16242050901E+03 -0.60551543866E+02 -0.48374561747E+03  0.52884953050E+03  0.12500036909E+03 0.  0.
          2    1    1    2  501    0 -0.35917518667E+02  0.94342241020E+02 -0.12361194614E+04  0.12402345946E+04  0.00000000000E+00 0. -1.
          1    1    1    2  502    0 -0.12650299035E+03 -0.33790697154E+02  0.59781127001E+02  0.14393957387E+03  0.00000000000E+00 0. -1.
         22    1    3    3    0    0  0.21086541528E+02  0.14362450319E+02 -0.21192174088E+03  0.21345197697E+03  0.00000000000E+00 0.  1.
         22    1    3    3    0    0  0.14133396749E+03 -0.74913994184E+02 -0.27182387659E+03  0.31539755353E+03  0.00000000000E+00 0.  1.
</event>
<event>
 7    1  0.5854318E-006  0.7098974E+02  0.7818608E-02  0.1398985E+00
          2   -1    0    0  502    0  0.00000000000E+00  0.00000000000E+00  0.89513184151E+03  0.89513184151E+03  0.00000000000E+00 0. -1.
          1   -1    0    0  501    0 -0.00000000000E+00 -0.00000000000E+00 -0.85467512189E+03  0.85467512189E+03  0.00000000000E+00 0. -1.
         25    2    1    2    0    0  0.98648916028E+02  0.58995954085E+02  0.39407595415E+03  0.42910789175E+03  0.12500237553E+03 0.  0.
          2    1    1    2  501    0 -0.46168021276E+02 -0.19837065532E+02 -0.83418283042E+03  0.83569491439E+03  0.00000000000E+00 0. -1.
          1    1    1    2  502    0 -0.52480894752E+02 -0.39158888553E+02  0.48056359589E+03  0.48500415727E+03  0.00000000000E+00 0. -1.
         22    1    3    3    0    0 -0.13498766464E+02 -0.24922576398E+02  0.47740533050E+02  0.55520356684E+02  0.00000000000E+00 0. -1.
         22    1    3    3    0    0  0.11214768249E+03  0.83918530483E+02  0.34633542110E+03  0.37358753507E+03  0.00000000000E+00 0. -1.
</event>
<event>
 7    1  0.5854318E-006  0.1176800E+03  0.7818608E-02  0.1311196E+00
          2   -1    0    0  502    0  0.00000000000E+00  0.00000000000E+00  0.13881110444E+03  0.13881110444E+03  0.00000000000E+00 0. -1.
          1   -1    0    0  501    0 -0.00000000000E+00 -0.00000000000E+00 -0.13092962118E+04  0.13092962118E+04  0.00000000000E+00 0. -1.
         25    2    1    2    0    0 -0.25838467408E+02  0.59042620471E+02 -0.16015551144E+03  0.21313867460E+03  0.12499859734E+03 0.  0.
          2    1    1    2  501    0 -0.22888599471E+02  0.59540779301E+02 -0.10848205781E+04  0.10866943817E+04  0.00000000000E+00 0. -1.
          1    1    1    2  502    0  0.48727066880E+02 -0.11858339977E+03  0.74490982195E+02  0.14827425999E+03  0.00000000000E+00 0. -1.
         22    1    3    3    0    0 -0.21571812314E+02  0.15242639020E+02 -0.16658332650E+03  0.16866441770E+03  0.00000000000E+00 0.  1.
         22    1    3    3    0    0 -0.42666550943E+01  0.43799981450E+02  0.64278150608E+01  0.44474256905E+02  0.00000000000E+00 0.  1.
</event>
<event>
 7    1  0.5854318E-006  0.7360103E+02  0.7818608E-02  0.1439003E+00
          2   -1    0    0  502    0  0.00000000000E+00  0.00000000000E+00  0.29355884500E+04  0.29355884500E+04  0.00000000000E+00 0. -1.
          1   -1    0    0  501    0 -0.00000000000E+00 -0.00000000000E+00 -0.96520280376E+03  0.96520280376E+03  0.00000000000E+00 0. -1.
         25    2    1    2    0    0  0.49663038617E+02  0.96575773082E+02  0.12291984198E+03  0.20622358049E+03  0.12500232097E+03 0.  0.
          2    1    1    2  501    0 -0.13412168908E+02 -0.32987019384E+02 -0.92272408091E+03  0.92341093735E+03  0.00000000000E+00 0. -1.
          1    1    1    2  502    0 -0.36250869709E+02 -0.63588753698E+02  0.27701898852E+04  0.27711567359E+04  0.00000000000E+00 0. -1.
         22    1    3    3    0    0 -0.13402235458E+02  0.49505908537E+02 -0.95238444934E+01  0.52164724760E+02  0.00000000000E+00 0. -1.
         22    1    3    3    0    0  0.63065274076E+02  0.47069864545E+02  0.13244368647E+03  0.15405885573E+03  0.00000000000E+00 0. -1.
</event>
<event>
 7    1  0.5854318E-006  0.1005757E+03  0.7818608E-02  0.1430330E+00
          2   -1    0    0  502    0  0.00000000000E+00  0.00000000000E+00  0.91522038220E+03  0.91522038220E+03  0.00000000000E+00 0. -1.
          1   -1    0    0  501    0 -0.00000000000E+00 -0.00000000000E+00 -0.24026146812E+03  0.24026146812E+03  0.00000000000E+00 0. -1.
         25    2    1    2    0    0  0.70568880000E+02 -0.41417995508E+02 -0.90572670552E+02  0.17470972205E+03  0.12499864460E+03 0.  0.
          2    1    1    2  501    0  0.31835654597E+01 -0.27634718171E+02 -0.10284357261E+03  0.10653925645E+03  0.00000000000E+00 0. -1.
          1    1    1    2  502    0 -0.73752445459E+02  0.69052713679E+02  0.86837515723E+03  0.87423287182E+03  0.00000000000E+00 0. -1.
         22    1    3    3    0    0  0.28803967610E+02  0.35956631167E+01  0.28535626529E+02  0.40704782578E+02  0.00000000000E+00 0. -1.
         22    1    3    3    0    0  0.41764912390E+02 -0.45013658624E+02 -0.11910829708E+03  0.13400493947E+03  0.00000000000E+00 0. -1.
</event>
<event>
 7    1  0.5854318E-006  0.1926168E+03  0.7818608E-02  0.1264227E+00
          2   -1    0    0  502    0  0.00000000000E+00  0.00000000000E+00  0.15337440821E+04  0.15337440821E+04  0.00000000000E+00 0. -1.
          1   -1    0    0  501    0 -0.00000000000E+00 -0.00000000000E+00 -0.24177440082E+04  0.24177440082E+04  0.00000000000E+00 0. -1.
         25    2    1    2    0    0 -0.30639296321E+02  0.21775422283E+03  0.10689861397E+04  0.10985045006E+04  0.12500041182E+03 0.  0.
          2    1    1    2  501    0  0.30572457137E+02 -0.52334123370E+02 -0.23873850426E+04  0.23881542825E+04  0.00000000000E+00 0. -1.
          1    1    1    2  502    0  0.66839183735E-01 -0.16542009946E+03  0.43439897679E+03  0.46482930717E+03  0.00000000000E+00 0. -1.
         22    1    3    3    0    0 -0.55986279725E+02  0.63163149278E+02  0.54844470744E+03  0.55490147239E+03  0.00000000000E+00 0. -1.
         22    1    3    3    0    0  0.25346983404E+02  0.15459107355E+03  0.52054143224E+03  0.54360302820E+03  0.00000000000E+00 0. -1.
</event>
<event>
 7    1  0.5854318E-006  0.8501749E+02  0.7818608E-02  0.1360654E+00
          2   -1    0    0  502    0  0.00000000000E+00  0.00000000000E+00  0.84005738285E+03  0.84005738285E+03  0.00000000000E+00 0. -1.
          1   -1    0    0  501    0 -0.00000000000E+00 -0.00000000000E+00 -0.14230805229E+04  0.14230805229E+04  0.00000000000E+00 0. -1.
         25    2    1    2    0    0 -0.84021517507E+02  0.20985448725E+02  0.50629420722E+03  0.52863819046E+03  0.12499803077E+03 0.  0.
          2    1    1    2  501    0  0.51126866755E+02 -0.67981498362E+02 -0.14080646726E+04  0.14106316184E+04  0.00000000000E+00 0. -1.
          1    1    1    2  502    0  0.32894650752E+02  0.46996049637E+02  0.31874732537E+03  0.32386809685E+03  0.00000000000E+00 0. -1.
         22    1    3    3    0    0 -0.18066348567E+02  0.66385702745E+02  0.28854534631E+03  0.29663423835E+03  0.00000000000E+00 0. -1.
         22    1    3    3    0    0 -0.65955168940E+02 -0.45400254021E+02  0.21774886090E+03  0.23200395212E+03  0.00000000000E+00 0. -1.
</event>
<event>
 7    1  0.5854318E-006  0.7644635E+02  0.7818608E-02  0.1357379E+00
          2   -1    0    0  502    0  0.00000000000E+00  0.00000000000E+00  0.47801179694E+03  0.47801179694E+03  0.00000000000E+00 0. -1.
          1   -1    0    0  501    0 -0.00000000000E+00 -0.00000000000E+00 -0.22245913153E+04  0.22245913153E+04  0.00000000000E+00 0. -1.
         25    2    1    2    0    0  0.46833720894E+02 -0.12987179084E+03 -0.37928068240E+02  0.19006291324E+03  0.12500117264E+03 0.  0.
          2    1    1    2  501    0 -0.33326889001E+02  0.56478976153E+02 -0.21066174325E+04  0.21076379109E+04  0.00000000000E+00 0. -1.
          1    1    1    2  502    0 -0.13506831893E+02  0.73392814683E+02  0.39796598243E+03  0.40490228812E+03  0.00000000000E+00 0. -1.
         22    1    3    3    0    0  0.10609580939E+02  0.22240648315E+02 -0.21740251364E+02  0.32861043418E+02  0.00000000000E+00 0. -1.
         22    1    3    3    0    0  0.36224139955E+02 -0.15211243915E+03 -0.16187816876E+02  0.15720186982E+03  0.00000000000E+00 0. -1.
</event>
<event>
 7    1  0.5854318E-006  0.1069040E+03  0.7818608E-02  0.1428625E+00
          2   -1    0    0  502    0  0.00000000000E+00  0.00000000000E+00  0.38771232262E+03  0.38771232262E+03  0.00000000000E+00 0. -1.
          1   -1    0    0  501    0 -0.00000000000E+00 -0.00000000000E+00 -0.96495524246E+03  0.96495524246E+03  0.00000000000E+00 0. -1.
         25    2    1    2    0    0  0.35828682775E+02  0.80524547987E+02 -0.21866440490E+02  0.15450312970E+03  0.12500071412E+03 0.  0.
          2    1    1    2  501    0 -0.25375256555E+02 -0.10488800404E+03 -0.87289539352E+03  0.87954065572E+03  0.00000000000E+00 0. -1.
          1    1    1    2  502    0 -0.10453426219E+02  0.24363456049E+02  0.31751891417E+03  0.31862377966E+03  0.00000000000E+00 0. -1.
         22    1    3    3    0    0  0.37870818855E+02  0.50432119672E+02 -0.72173704263E+02  0.95846967622E+02  0.00000000000E+00 0.  1.
         22    1    3    3    0    0 -0.20421360807E+01  0.30092428316E+02  0.50307263773E+02  0.58656162080E+02  0.00000000000E+00 0.  1.
</event>
<event>
 7    1  0.5854318E-006  0.5515163E+02  0.7818608E-02  0.1453866E+00
          2   -1    0    0  502    0  0.00000000000E+00  0.00000000000E+00  0.11265955694E+04  0.11265955694E+04  0.00000000000E+00 0. -1.
          1   -1    0    0  501    0 -0.00000000000E+00 -0.00000000000E+00 -0.79031873577E+03  0.79031873577E+03  0.00000000000E+00 0. -1.
         25    2    1    2    0    0 -0.91004116880E+02 -0.24689341348E+02  0.86779420869E+03  0.88180665082E+03  0.12499947175E+03 0.  0.
          2    1    1    2  501    0  0.55079809763E+02  0.18520006610E+01 -0.78053477446E+03  0.78247795463E+03  0.00000000000E+00 0. -1.
          1    1    1    2  502    0  0.35924307117E+02  0.22837340687E+02  0.24901739943E+03  0.25262969974E+03  0.00000000000E+00 0. -1.
         22    1    3    3    0    0 -0.19860039951E+01  0.41314945552E+02  0.33979308725E+03  0.34230134542E+03  0.00000000000E+00 0.  1.
         22    1    3    3    0    0 -0.89018112885E+02 -0.66004286899E+02  0.52800112144E+03  0.53950530540E+03  0.00000000000E+00 0.  1.
</event>
<event>
 7    1  0.5854318E-006  0.7684710E+02  0.7818608E-02  0.1349064E+00
          2   -1    0    0  502    0  0.00000000000E+00  0.00000000000E+00  0.14011731197E+04  0.14011731197E+04  0.00000000000E+00 0. -1.
          1   -1    0    0  501    0 -0.00000000000E+00 -0.00000000000E+00 -0.31546956021E+02  0.31546956021E+02  0.00000000000E+00 0. -1.
         25    2    1    2    0    0  0.53854576933E+02  0.61857507705E+02  0.26287288556E+03  0.30241302703E+03  0.12499927295E+03 0.  0.
          2    1    1    2  501    0  0.24787579286E+02 -0.65473568383E+02  0.10960325909E+03  0.13005416813E+03  0.00000000000E+00 0. -1.
          1    1    1    2  502    0 -0.78642156219E+02  0.36160606786E+01  0.99715001907E+03  0.10002528806E+04  0.00000000000E+00 0. -1.
         22    1    3    3    0    0  0.55720072927E+02 -0.86387828991E+01  0.20046236019E+03  0.20824147750E+03  0.00000000000E+00 0.  1.
         22    1    3    3    0    0 -0.18654959936E+01  0.70496290604E+02  0.62410525363E+02  0.94171549527E+02  0.00000000000E+00 0.  1.
</event>
<event>
 7    1  0.5854318E-006  0.1900226E+03  0.7818608E-02  0.1298514E+00
          2   -1    0    0  502    0  0.00000000000E+00  0.00000000000E+00  0.17728438269E+04  0.17728438269E+04  0.00000000000E+00 0. -1.
          1   -1    0    0  501    0 -0.00000000000E+00 -0.00000000000E+00 -0.22015340160E+03  0.22015340160E+03  0.00000000000E+00 0. -1.
         25    2    1    2    0    0  0.19225093556E+03 -0.10563490746E+03 -0.16980044942E+01  0.25248121454E+03  0.12499889831E+03 0.  0.
          2    1    1    2  501    0 -0.14430048098E+02  0.41951231757E+02 -0.82016684646E+02  0.93246279788E+02  0.00000000000E+00 0. -1.
          1    1    1    2  502    0 -0.17782088746E+03  0.63683675702E+02  0.16364051145E+04  0.16472697342E+04  0.00000000000E+00 0. -1.
         22    1    3    3    0    0  0.13875871652E+03 -0.53478591214E+02  0.55146636373E+02  0.15860357068E+03  0.00000000000E+00 0.  1.
         22    1    3    3    0    0  0.53492219043E+02 -0.52156316245E+02 -0.56844640868E+02  0.93877643866E+02  0.00000000000E+00 0.  1.
</event>
<event>
 7    1  0.5854318E-006  0.2629110E+02  0.7818608E-02  0.1670145E+00
          2   -1    0    0  502    0  0.00000000000E+00  0.00000000000E+00  0.17906790427E+03  0.17906790427E+03  0.00000000000E+00 0. -1.
          1   -1    0    0  501    0 -0.00000000000E+00 -0.00000000000E+00 -0.16251810753E+03  0.16251810753E+03  0.00000000000E+00 0. -1.
         25    2    1    2    0    0  0.79078805913E-01 -0.48398258825E+02 -0.35270531771E+02  0.13860390361E+03  0.12499853589E+03 0.  0.
          2    1    1    2  501    0 -0.19554964700E+01  0.22513779713E+02 -0.72521425344E+02  0.75960854243E+02  0.00000000000E+00 0. -1.
          1    1    1    2  502    0  0.18764176641E+01  0.25884479112E+02  0.12434175385E+03  0.12702125395E+03  0.00000000000E+00 0. -1.
         22    1    3    3    0    0 -0.39005445142E+02  0.61851174252E+00  0.29161665815E+02  0.48705339138E+02  0.00000000000E+00 0.  1.
         22    1    3    3    0    0  0.39084523948E+02 -0.49016770568E+02 -0.64432197586E+02  0.89898564476E+02  0.00000000000E+00 0.  1.
</event>
<event>
 7    1  0.5854318E-006  0.8219432E+02  0.7818608E-02  0.1353537E+00
          2   -1    0    0  502    0  0.00000000000E+00  0.00000000000E+00  0.41540521929E+03  0.41540521929E+03  0.00000000000E+00 0. -1.
          1   -1    0    0  501    0 -0.00000000000E+00 -0.00000000000E+00 -0.25440648062E+03  0.25440648062E+03  0.00000000000E+00 0. -1.
         25    2    1    2    0    0  0.35335344391E+02 -0.97431023928E+02  0.45401854693E+02  0.16860443146E+03  0.12499893964E+03 0.  0.
          2    1    1    2  501    0 -0.60003988559E+02  0.19223338973E+02 -0.18195820725E+03  0.19255857444E+03  0.00000000000E+00 0. -1.
          1    1    1    2  502    0  0.24668644168E+02  0.78207684955E+02  0.29755509123E+03  0.30864869400E+03  0.00000000000E+00 0. -1.
         22    1    3    3    0    0 -0.41855839410E+02 -0.39979247578E+02 -0.81971204988E+01  0.58458911332E+02  0.00000000000E+00 0. -1.
         22    1    3    3    0    0  0.77191183801E+02 -0.57451776350E+02  0.53598975192E+02  0.11014552013E+03  0.00000000000E+00 0. -1.
</event>
<event>
 7    1  0.5854318E-006  0.6419577E+02  0.7818608E-02  0.1520265E+00
          2   -1    0    0  502    0  0.00000000000E+00  0.00000000000E+00  0.17214293248E+03  0.17214293248E+03  0.00000000000E+00 0. -1.
          1   -1    0    0  501    0 -0.00000000000E+00 -0.00000000000E+00 -0.76529761386E+03  0.76529761386E+03  0.00000000000E+00 0. -1.
         25    2    1    2    0    0  0.26559710219E+02 -0.40776008290E+02 -0.13269878962E+03  0.18868970575E+03  0.12500694074E+03 0.  0.
          2    1    1    2  501    0 -0.80452007427E+01 -0.21524961239E+02 -0.59704491379E+03  0.59748696914E+03  0.00000000000E+00 0. -1.
          1    1    1    2  502    0 -0.18514509477E+02  0.62300969529E+02  0.13658902203E+03  0.15126387145E+03  0.00000000000E+00 0. -1.
         22    1    3    3    0    0  0.59177875087E+02 -0.12475603988E+02 -0.13579638440E+02  0.61984418807E+02  0.00000000000E+00 0. -1.
         22    1    3    3    0    0 -0.32618164868E+02 -0.28300404302E+02 -0.11911915118E+03  0.12670528695E+03  0.00000000000E+00 0. -1.
</event>
<event>
 7    1  0.5854318E-006  0.4097642E+02  0.7818608E-02  0.1502658E+00
          2   -1    0    0  502    0  0.00000000000E+00  0.00000000000E+00  0.31389771049E+02  0.31389771049E+02  0.00000000000E+00 0. -1.
          1   -1    0    0  501    0 -0.00000000000E+00 -0.00000000000E+00 -0.84275314660E+03  0.84275314660E+03  0.00000000000E+00 0. -1.
         25    2    1    2    0    0 -0.19341818106E+01 -0.28197158850E+02 -0.63949379458E+03  0.65220804431E+03  0.12499679568E+03 0.  0.
          2    1    1    2  501    0 -0.37238908758E+02  0.38690893688E+02 -0.17322523441E+03  0.18135794280E+03  0.00000000000E+00 0. -1.
          1    1    1    2  502    0  0.39173090569E+02 -0.10493734838E+02  0.13556534415E+01  0.40576930537E+02  0.00000000000E+00 0. -1.
         22    1    3    3    0    0  0.15895739502E+02  0.34703836330E+01 -0.55016724457E+01  0.17175170933E+02  0.00000000000E+00 0. -1.
         22    1    3    3    0    0 -0.17829921313E+02 -0.31667542483E+02 -0.63399212213E+03  0.63503287338E+03  0.00000000000E+00 0. -1.
</event>
<event>
 7    1  0.5854318E-006  0.1342738E+03  0.7818608E-02  0.1419972E+00
          2   -1    0    0  502    0  0.00000000000E+00  0.00000000000E+00  0.76061832738E+03  0.76061832738E+03  0.00000000000E+00 0. -1.
          1   -1    0    0  501    0 -0.00000000000E+00 -0.00000000000E+00 -0.81126991313E+03  0.81126991313E+03  0.00000000000E+00 0. -1.
         25    2    1    2    0    0  0.47219581807E+02 -0.10438078965E+03 -0.32948699671E+03  0.37055568143E+03  0.12499917556E+03 0.  0.
          2    1    1    2  501    0  0.18241814700E+02 -0.13257715855E+02 -0.45484464364E+03  0.45540331650E+03  0.00000000000E+00 0. -1.
          1    1    1    2  502    0 -0.65461396507E+02  0.11763850550E+03  0.73368005460E+03  0.74592924258E+03  0.00000000000E+00 0. -1.
         22    1    3    3    0    0 -0.42743874337E+02 -0.38862433946E+02 -0.99463024152E+02  0.11502269663E+03  0.00000000000E+00 0.  1.
         22    1    3    3    0    0  0.89963456143E+02 -0.65518355702E+02 -0.23002397255E+03  0.25553298481E+03  0.00000000000E+00 0.  1.
</event>
<event>
 7    1  0.5854318E-006  0.1109704E+03  0.7818608E-02  0.1291106E+00
          2   -1    0    0  502    0  0.00000000000E+00  0.00000000000E+00  0.41036067698E+03  0.41036067698E+03  0.00000000000E+00 0. -1.
          1   -1    0    0  501    0 -0.00000000000E+00 -0.00000000000E+00 -0.90871809746E+03  0.90871809746E+03  0.00000000000E+00 0. -1.
         25    2    1    2    0    0 -0.65412520514E+02  0.54557824032E+02  0.32514366081E+02  0.15471603863E+03  0.12499805841E+03 0.  0.
          2    1    1    2  501    0 -0.53967250085E+02 -0.60913324982E+02 -0.83428611673E+03  0.83824591965E+03  0.00000000000E+00 0. -1.
          1    1    1    2  502    0  0.11937977060E+03  0.63555009498E+01  0.30341433018E+03  0.32611681615E+03  0.00000000000E+00 0. -1.
         22    1    3    3    0    0 -0.45833589496E+02  0.61243347295E+02  0.75207808489E+02  0.10727385502E+03  0.00000000000E+00 0.  1.
         22    1    3    3    0    0 -0.19578931017E+02 -0.66855232621E+01 -0.42693442408E+02  0.47442183610E+02  0.00000000000E+00 0.  1.
</event>
<event>
 7    1  0.5854318E-006  0.3402324E+02  0.7818608E-02  0.1599131E+00
          2   -1    0    0  502    0  0.00000000000E+00  0.00000000000E+00  0.11736491280E+02  0.11736491280E+02  0.00000000000E+00 0. -1.
          1   -1    0    0  501    0 -0.00000000000E+00 -0.00000000000E+00 -0.17152193986E+04  0.17152193986E+04  0.00000000000E+00 0. -1.
         25    2    1    2    0    0 -0.72079052042E+01 -0.58928309551E+02 -0.10909972042E+04  0.10997369803E+04  0.12498810634E+03 0.  0.
          2    1    1    2  501    0  0.43400326729E+01  0.25926146464E+02 -0.58074746035E+03  0.58134207972E+03  0.00000000000E+00 0. -1.
          1    1    1    2  502    0  0.28678725312E+01  0.33002163086E+02 -0.31738242722E+02  0.45876829798E+02  0.00000000000E+00 0. -1.
         22    1    3    3    0    0 -0.57478793576E+02 -0.50638509576E+02 -0.42928169211E+03  0.43606288714E+03  0.00000000000E+00 0.  1.
         22    1    3    3    0    0  0.50270888371E+02 -0.82897999741E+01 -0.66171551211E+03  0.66367409319E+03  0.00000000000E+00 0.  1.
</event>
<event>
 7    1  0.5854318E-006  0.1015290E+03  0.7818608E-02  0.1344247E+00
          2   -1    0    0  502    0  0.00000000000E+00  0.00000000000E+00  0.20126010688E+03  0.20126010688E+03  0.00000000000E+00 0. -1.
          1   -1    0    0  501    0 -0.00000000000E+00 -0.00000000000E+00 -0.86464647478E+03  0.86464647478E+03  0.00000000000E+00 0. -1.
         25    2    1    2    0    0 -0.38061571026E+02  0.12900396935E+03 -0.83105725827E+02  0.20154274201E+03  0.12498883107E+03 0.  0.
          2    1    1    2  501    0 -0.21733922268E+02 -0.50766949443E+02 -0.70404372914E+03  0.70620621568E+03  0.00000000000E+00 0. -1.
          1    1    1    2  502    0  0.59795493294E+02 -0.78237019910E+02  0.12376308706E+03  0.15815762397E+03  0.00000000000E+00 0. -1.
         22    1    3    3    0    0 -0.49044252286E+02  0.58531771611E+01  0.51141177062E+01  0.49656344661E+02  0.00000000000E+00 0.  1.
         22    1    3    3    0    0  0.10982681260E+02  0.12315079219E+03 -0.88219843534E+02  0.15188639734E+03  0.00000000000E+00 0.  1.
</event>
<event>
 7    1  0.5854318E-006  0.4271038E+02  0.7818608E-02  0.1495967E+00
          2   -1    0    0  502    0  0.00000000000E+00  0.00000000000E+00  0.87991334971E+03  0.87991334971E+03  0.00000000000E+00 0. -1.
          1   -1    0    0  501    0 -0.00000000000E+00 -0.00000000000E+00 -0.75209790256E+03  0.75209790256E+03  0.00000000000E+00 0. -1.
         25    2    1    2    0    0  0.25787227610E+01  0.66226798114E+00  0.74212423978E+02  0.14539521643E+03  0.12500078671E+03 0.  0.
          2    1    1    2  501    0  0.38872794572E+02  0.12192290607E+02 -0.71531501161E+03  0.71647422280E+03  0.00000000000E+00 0. -1.
          1    1    1    2  502    0 -0.41451517333E+02 -0.12854558588E+02  0.76891803479E+03  0.77014181303E+03  0.00000000000E+00 0. -1.
         22    1    3    3    0    0  0.20824313660E+02  0.59676071034E+02  0.39669168638E+02  0.74622573219E+02  0.00000000000E+00 0.  1.
         22    1    3    3    0    0 -0.18245590899E+02 -0.59013803052E+02  0.34543255340E+02  0.70772643214E+02  0.00000000000E+00 0.  1.
</event>
<event>
 7    1  0.1001523E-005  0.1328616E+03  0.7818608E-02  0.1302532E+00
          2   -1    0    0  502    0  0.00000000000E+00  0.00000000000E+00  0.23960538871E+04  0.23960538871E+04  0.00000000000E+00 0. -1.
          1   -1    0    0  501    0 -0.00000000000E+00 -0.00000000000E+00 -0.14258409064E+04  0.14258409064E+04  0.00000000000E+00 0. -1.
         25    2    1    2    0    0 -0.33334879467E+02 -0.65991340502E+02 -0.13210390762E+03  0.19632180531E+03  0.12499895048E+03 0.  0.
          2    1    1    2  501    0 -0.10041858726E+02 -0.60314381979E+02 -0.12589993933E+04  0.12604832946E+04  0.00000000000E+00 0. -1.
          1    1    1    2  502    0  0.43376738193E+02  0.12630572248E+03  0.23613162816E+04  0.23650896936E+04  0.00000000000E+00 0. -1.
         22    1    3    3    0    0 -0.15592389407E+02 -0.95530547581E+02 -0.53729972785E+02  0.11070735343E+03  0.00000000000E+00 0. -1.
         22    1    3    3    0    0 -0.17742490059E+02  0.29539207079E+02 -0.78373934839E+02  0.85614451879E+02  0.00000000000E+00 0. -1.
</event>
<event>
 7    1  0.5854318E-006  0.2594059E+03  0.7818608E-02  0.1278210E+00
          2   -1    0    0  502    0  0.00000000000E+00  0.00000000000E+00  0.20138934579E+04  0.20138934579E+04  0.00000000000E+00 0. -1.
          1   -1    0    0  501    0 -0.00000000000E+00 -0.00000000000E+00 -0.18263672272E+03  0.18263672272E+03  0.00000000000E+00 0. -1.
         25    2    1    2    0    0  0.18758239814E+03  0.15814609177E+03  0.54434877170E+03  0.61003184538E+03  0.12500369873E+03 0.  0.
          2    1    1    2  501    0 -0.17533173596E+03 -0.19551255066E+03 -0.34176264054E+02  0.26482898657E+03  0.00000000000E+00 0. -1.
          1    1    1    2  502    0 -0.12250662177E+02  0.37366458891E+02  0.13210842276E+04  0.13216693487E+04  0.00000000000E+00 0. -1.
         22    1    3    3    0    0  0.82324615458E+02  0.12448403166E+02  0.26571380076E+03  0.27845310012E+03  0.00000000000E+00 0.  1.
         22    1    3    3    0    0  0.10525778268E+03  0.14569768861E+03  0.27863497094E+03  0.33157874526E+03  0.00000000000E+00 0.  1.
</event>
<event>
 7    1  0.5854318E-006  0.1709821E+03  0.7818608E-02  0.1359130E+00
          2   -1    0    0  502    0  0.00000000000E+00  0.00000000000E+00  0.96831004904E+03  0.96831004904E+03  0.00000000000E+00 0. -1.
          1   -1    0    0  501    0 -0.00000000000E+00 -0.00000000000E+00 -0.83329282316E+03  0.83329282316E+03  0.00000000000E+00 0. -1.
         25    2    1    2    0    0 -0.49693807160E+02 -0.15109104173E+03 -0.29416532704E+03  0.35701135562E+03  0.12500356414E+03 0.  0.
          2    1    1    2  501    0  0.32537165098E+02  0.17433608279E+03 -0.49198387104E+03  0.52297214672E+03  0.00000000000E+00 0. -1.
          1    1    1    2  502    0  0.17156642062E+02 -0.23245041055E+02  0.92116642396E+03  0.92161936987E+03  0.00000000000E+00 0. -1.
         22    1    3    3    0    0 -0.36559406280E+01  0.20846836548E+01  0.11380524633E+02  0.12133760701E+02  0.00000000000E+00 0.  1.
         22    1    3    3    0    0 -0.46037866532E+02 -0.15317572539E+03 -0.30554585167E+03  0.34487759492E+03  0.00000000000E+00 0.  1.
</event>
<event>
 7    1  0.5854318E-006  0.5551166E+02  0.7818608E-02  0.1458518E+00
          2   -1    0    0  502    0  0.00000000000E+00  0.00000000000E+00  0.13331201874E+04  0.13331201874E+04  0.00000000000E+00 0. -1.
          1   -1    0    0  501    0 -0.00000000000E+00 -0.00000000000E+00 -0.14033552904E+04  0.14033552904E+04  0.00000000000E+00 0. -1.
         25    2    1    2    0    0  0.90015879577E+02  0.23391482524E+02  0.37369647391E+03  0.40487479593E+03  0.12499810295E+03 0.  0.
          2    1    1    2  501    0 -0.40842886837E+02 -0.17460807713E+01 -0.13867000926E+04  0.13873025398E+04  0.00000000000E+00 0. -1.
          1    1    1    2  502    0 -0.49172992740E+02 -0.21645401753E+02  0.94276851576E+03  0.94429814198E+03  0.00000000000E+00 0. -1.
         22    1    3    3    0    0  0.10324747826E+03  0.24087838025E+02  0.37666078197E+03  0.39129734267E+03  0.00000000000E+00 0.  1.
         22    1    3    3    0    0 -0.13231598685E+02 -0.69635550046E+00 -0.29643080645E+01  0.13577453261E+02  0.00000000000E+00 0.  1.
</event>
<event>
 7    1  0.5854318E-006  0.8937207E+02  0.7818608E-02  0.1332242E+00
          2   -1    0    0  502    0  0.00000000000E+00  0.00000000000E+00  0.60430838484E+03  0.60430838484E+03  0.00000000000E+00 0. -1.
          1   -1    0    0  501    0 -0.00000000000E+00 -0.00000000000E+00 -0.16997634561E+04  0.16997634561E+04  0.00000000000E+00 0. -1.
         25    2    1    2    0    0 -0.12229424165E+03  0.77151113337E+02 -0.69458992630E+03  0.72040790592E+03  0.12499683741E+03 0.  0.
          2    1    1    2  501    0  0.54251945495E+02 -0.62362279689E+02 -0.98848400075E+03  0.99193394299E+03  0.00000000000E+00 0. -1.
          1    1    1    2  502    0  0.68042296152E+02 -0.14788833648E+02  0.58761885584E+03  0.59172999198E+03  0.00000000000E+00 0. -1.
         22    1    3    3    0    0 -0.21659689274E+02  0.10630887196E+01 -0.92901261524E+01  0.23591921096E+02  0.00000000000E+00 0.  1.
         22    1    3    3    0    0 -0.10063455237E+03  0.76088024618E+02 -0.68529980015E+03  0.69681598482E+03  0.00000000000E+00 0.  1.
</event>
<event>
 7    1  0.5854318E-006  0.1874785E+03  0.7818608E-02  0.1224461E+00
          2   -1    0    0  502    0  0.00000000000E+00  0.00000000000E+00  0.88156696732E+03  0.88156696732E+03  0.00000000000E+00 0. -1.
          1   -1    0    0  501    0 -0.00000000000E+00 -0.00000000000E+00 -0.19070462164E+04  0.19070462164E+04  0.00000000000E+00 0. -1.
         25    2    1    2    0    0 -0.50688015272E+02 -0.18523948996E+03  0.49766271746E+02  0.23448576352E+03  0.12499579176E+03 0.  0.
          2    1    1    2  501    0 -0.42285367102E+02  0.18326948976E+03 -0.18068617804E+04  0.18166246865E+04  0.00000000000E+00 0. -1.
          1    1    1    2  502    0  0.92973382374E+02  0.19700001998E+01  0.73161625964E+03  0.73750273362E+03  0.00000000000E+00 0. -1.
         22    1    3    3    0    0  0.16877133943E+02  0.11532512969E+02 -0.51397610036E+00  0.20447510287E+02  0.00000000000E+00 0.  1.
         22    1    3    3    0    0 -0.67565149215E+02 -0.19677200293E+03  0.50280247846E+02  0.21403825323E+03  0.00000000000E+00 0.  1.
</event>
<event>
 7    1  0.5854318E-006  0.9857537E+02  0.7818608E-02  0.1358630E+00
          2   -1    0    0  502    0  0.00000000000E+00  0.00000000000E+00  0.14623057191E+04  0.14623057191E+04  0.00000000000E+00 0. -1.
          1   -1    0    0  501    0 -0.00000000000E+00 -0.00000000000E+00 -0.42819305915E+03  0.42819305915E+03  0.00000000000E+00 0. -1.
         25    2    1    2    0    0 -0.28825592608E+02 -0.13007073047E+03  0.46813932299E+03  0.50252220366E+03  0.12499931890E+03 0.  0.
          2    1    1    2  501    0  0.50132129303E+02  0.84480082379E+02 -0.40447045298E+03  0.41622885777E+03  0.00000000000E+00 0. -1.
          1    1    1    2  502    0 -0.21306536695E+02  0.45590648095E+02  0.97044378995E+03  0.97174771683E+03  0.00000000000E+00 0. -1.
         22    1    3    3    0    0  0.12810072851E+02 -0.12466050935E+03  0.24204073134E+03  0.27255835372E+03  0.00000000000E+00 0. -1.
         22    1    3    3    0    0 -0.41635665459E+02 -0.54102211280E+01  0.22609859165E+03  0.22996384994E+03  0.00000000000E+00 0. -1.
</event>
<event>
 7    1  0.5854318E-006  0.1302269E+03  0.7818608E-02  0.1322739E+00
          2   -1    0    0  502    0  0.00000000000E+00  0.00000000000E+00  0.58528897548E+03  0.58528897548E+03  0.00000000000E+00 0. -1.
          1   -1    0    0  501    0 -0.00000000000E+00 -0.00000000000E+00 -0.19098240356E+03  0.19098240356E+03  0.00000000000E+00 0. -1.
         25    2    1    2    0    0 -0.61900875013E+02  0.57774322383E+02  0.41608536839E+03  0.44263024081E+03  0.12499962255E+03 0.  0.
          2    1    1    2  501    0  0.11190863481E+03 -0.71919059335E+02 -0.14688542081E+03  0.19816967600E+03  0.00000000000E+00 0. -1.
          1    1    1    2  502    0 -0.50007759795E+02  0.14144736952E+02  0.12510662435E+03  0.13547146223E+03  0.00000000000E+00 0. -1.
         22    1    3    3    0    0  0.22933308096E+02  0.68053797315E+01  0.12310714687E+02  0.26903596593E+02  0.00000000000E+00 0. -1.
         22    1    3    3    0    0 -0.84834183109E+02  0.50968942652E+02  0.40377465370E+03  0.41572664421E+03  0.00000000000E+00 0. -1.
</event>
<event>
 7    1  0.5854318E-006  0.1288263E+03  0.7818608E-02  0.1386821E+00
          2   -1    0    0  502    0  0.00000000000E+00  0.00000000000E+00  0.52717454122E+03  0.52717454122E+03  0.00000000000E+00 0. -1.
          1   -1    0    0  501    0 -0.00000000000E+00 -0.00000000000E+00 -0.14431131608E+04  0.14431131608E+04  0.00000000000E+00 0. -1.
         25    2    1    2    0    0  0.98429043702E+02 -0.15700866554E+02 -0.27637194763E+00  0.15987904545E+03  0.12500575561E+03 0.  0.
          2    1    1    2  501    0 -0.12759032205E+03  0.24707227844E+02 -0.13594122769E+04  0.13656102943E+04  0.00000000000E+00 0. -1.
          1    1    1    2  502    0  0.29161278351E+02 -0.90063612902E+01  0.44375002920E+03  0.44479836231E+03  0.00000000000E+00 0. -1.
         22    1    3    3    0    0  0.69475788134E+02  0.25672284740E+02  0.49410338668E+02  0.89035571026E+02  0.00000000000E+00 0.  1.
         22    1    3    3    0    0  0.28953255567E+02 -0.41373151295E+02 -0.49686710615E+02  0.70843474419E+02  0.00000000000E+00 0.  1.
</event>
<event>
 7    1  0.5854318E-006  0.4078386E+02  0.7818608E-02  0.1554072E+00
          2   -1    0    0  502    0  0.00000000000E+00  0.00000000000E+00  0.58490059929E+03  0.58490059929E+03  0.00000000000E+00 0. -1.
          1   -1    0    0  501    0 -0.00000000000E+00 -0.00000000000E+00 -0.23647788823E+03  0.23647788823E+03  0.00000000000E+00 0. -1.
         25    2    1    2    0    0  0.33584805332E+02 -0.11588665186E+02  0.26688912971E+02  0.13266357842E+03  0.12500036262E+03 0.  0.
          2    1    1    2  501    0 -0.14856171188E+02 -0.24906804854E+02 -0.18150486778E+03  0.18380715921E+03  0.00000000000E+00 0. -1.
          1    1    1    2  502    0 -0.18728634143E+02  0.36495470040E+02  0.50323866586E+03  0.50490774988E+03  0.00000000000E+00 0. -1.
         22    1    3    3    0    0  0.71685220564E+02 -0.30158034876E+02  0.41014884519E+02  0.87923254416E+02  0.00000000000E+00 0.  1.
         22    1    3    3    0    0 -0.38100415233E+02  0.18569369690E+02 -0.14325971548E+02  0.44740324008E+02  0.00000000000E+00 0.  1.
</event>
<event>
 7    1  0.5854318E-006  0.1156316E+03  0.7818608E-02  0.1398272E+00
          2   -1    0    0  502    0  0.00000000000E+00  0.00000000000E+00  0.21301793038E+03  0.21301793038E+03  0.00000000000E+00 0. -1.
          1   -1    0    0  501    0 -0.00000000000E+00 -0.00000000000E+00 -0.20300553051E+03  0.20300553051E+03  0.00000000000E+00 0. -1.
         25    2    1    2    0    0 -0.69927740416E+02  0.11661389306E+03  0.50927610788E+02  0.19159085671E+03  0.12499898360E+03 0.  0.
          2    1    1    2  501    0  0.22824763074E+02 -0.21013333728E+02 -0.98517640889E+02  0.10328724786E+03  0.00000000000E+00 0. -1.
          1    1    1    2  502    0  0.47102977341E+02 -0.95600559333E+02  0.57602429970E+02  0.12114535632E+03  0.00000000000E+00 0. -1.
         22    1    3    3    0    0 -0.42654232668E+02  0.13004605348E+02 -0.33014813507E+02  0.55484062898E+02  0.00000000000E+00 0. -1.
         22    1    3    3    0    0 -0.27273507747E+02  0.10360928771E+03  0.83942424296E+02  0.13610679381E+03  0.00000000000E+00 0. -1.
</event>
<event>
 7    1  0.5854318E-006  0.1561205E+03  0.7818608E-02  0.1267980E+00
          2   -1    0    0  502    0  0.00000000000E+00  0.00000000000E+00  0.10210628209E+04  0.10210628209E+04  0.00000000000E+00 0. -1.
          1   -1    0    0  501    0 -0.00000000000E+00 -0.00000000000E+00 -0.17492824678E+04  0.17492824678E+04  0.00000000000E+00 0. -1.
         25    2    1    2    0    0 -0.20368938084E+03 -0.97088054139E+02  0.57512934007E+02  0.26428726773E+03  0.12499827271E+03 0.  0.
          2    1    1    2  501    0  0.13494346996E+03  0.75362497910E+02 -0.16407461767E+04  0.16480100917E+04  0.00000000000E+00 0. -1.
          1    1    1    2  502    0  0.68745910881E+02  0.21725556229E+02  0.85501359571E+03  0.85804792926E+03  0.00000000000E+00 0. -1.
         22    1    3    3    0    0 -0.20197914756E+03 -0.11394517658E+03  0.32636122196E+02  0.23418837671E+03  0.00000000000E+00 0.  1.
         22    1    3    3    0    0 -0.17102332850E+01  0.16857122438E+02  0.24876811810E+02  0.30098891020E+02  0.00000000000E+00 0.  1.
</event>
<event>
 7    1  0.5854318E-006  0.6411431E+02  0.7818608E-02  0.1440851E+00
          2   -1    0    0  502    0  0.00000000000E+00  0.00000000000E+00  0.78910233079E+03  0.78910233079E+03  0.00000000000E+00 0. -1.
          1   -1    0    0  501    0 -0.00000000000E+00 -0.00000000000E+00 -0.83260173844E+03  0.83260173844E+03  0.00000000000E+00 0. -1.
         25    2    1    2    0    0 -0.25068192640E+02 -0.18919130723E+02  0.61887379092E+03  0.63215229214E+03  0.12500161434E+03 0.  0.
          2    1    1    2  501    0  0.63744685657E+02  0.75333625174E+01 -0.82220835676E+03  0.82471008144E+03  0.00000000000E+00 0. -1.
          1    1    1    2  502    0 -0.38676493018E+02  0.11385768206E+02  0.15983515820E+03  0.16484169565E+03  0.00000000000E+00 0. -1.
         22    1    3    3    0    0 -0.46237372052E+02  0.38738386962E+02  0.20316664360E+03  0.21193216431E+03  0.00000000000E+00 0. -1.
         22    1    3    3    0    0  0.21169179412E+02 -0.57657517685E+02  0.41570714732E+03  0.42022012783E+03  0.00000000000E+00 0. -1.
</event>
<event>
 7    1  0.5854318E-006  0.7997538E+02  0.7818608E-02  0.1365389E+00
          2   -1    0    0  502    0  0.00000000000E+00  0.00000000000E+00  0.12125392517E+04  0.12125392517E+04  0.00000000000E+00 0. -1.
          1   -1    0    0  501    0 -0.00000000000E+00 -0.00000000000E+00 -0.71850863530E+02  0.71850863530E+02  0.00000000000E+00 0. -1.
         25    2    1    2    0    0 -0.25399308160E+01  0.31143275573E+02  0.22991170194E+03  0.26355351175E+03  0.12499883202E+03 0.  0.
          2    1    1    2  501    0  0.30430845369E+02  0.50094304479E+02 -0.36909481674E+02  0.69266048888E+02  0.00000000000E+00 0. -1.
          1    1    1    2  502    0 -0.27890914553E+02 -0.81237580051E+02  0.94768616788E+03  0.95157055457E+03  0.00000000000E+00 0. -1.
         22    1    3    3    0    0  0.10887055198E+02  0.75548422568E+02  0.10134731237E+03  0.12687541073E+03  0.00000000000E+00 0.  1.
         22    1    3    3    0    0 -0.13426986014E+02 -0.44405146995E+02  0.12856438957E+03  0.13667810102E+03  0.00000000000E+00 0.  1.
</event>
<event>
 7    1  0.5854318E-006  0.8961367E+02  0.7818608E-02  0.1395901E+00
          2   -1    0    0  502    0  0.00000000000E+00  0.00000000000E+00  0.19944406988E+04  0.19944406988E+04  0.00000000000E+00 0. -1.
          1   -1    0    0  501    0 -0.00000000000E+00 -0.00000000000E+00 -0.97891127772E+02  0.97891127772E+02  0.00000000000E+00 0. -1.
         25    2    1    2    0    0  0.63408908306E+02  0.87452278893E+02  0.52594976794E+03  0.55128277636E+03  0.12498380048E+03 0.  0.
          2    1    1    2  501    0 -0.40741721484E+02 -0.20690029533E+01 -0.78919914835E+02  0.88839864927E+02  0.00000000000E+00 0. -1.
          1    1    1    2  502    0 -0.22667186823E+02 -0.85383275939E+02  0.14495197179E+04  0.14522091853E+04  0.00000000000E+00 0. -1.
         22    1    3    3    0    0  0.89270049899E+02  0.10169266516E+03  0.44492276942E+03  0.46504495558E+03  0.00000000000E+00 0.  1.
         22    1    3    3    0    0 -0.25861141592E+02 -0.14240386265E+02  0.81026998513E+02  0.86237820783E+02  0.00000000000E+00 0.  1.
</event>
<event>
 7    1  0.5854318E-006  0.1466722E+03  0.7818608E-02  0.1261069E+00
          2   -1    0    0  502    0  0.00000000000E+00  0.00000000000E+00  0.78984142294E+03  0.78984142294E+03  0.00000000000E+00 0. -1.
          1   -1    0    0  501    0 -0.00000000000E+00 -0.00000000000E+00 -0.21444659485E+03  0.21444659485E+03  0.00000000000E+00 0. -1.
         25    2    1    2    0    0  0.16678169606E+03 -0.12895501532E+03  0.21346349350E+03  0.32501833862E+03  0.12499890904E+03 0.  0.
          2    1    1    2  501    0 -0.43653698045E+02  0.69524979558E+02 -0.13822387922E+03  0.16076445168E+03  0.00000000000E+00 0. -1.
          1    1    1    2  502    0 -0.12312799801E+03  0.59430035764E+02  0.50015521380E+03  0.51850522750E+03  0.00000000000E+00 0. -1.
         22    1    3    3    0    0  0.13630511802E+03 -0.14775463214E+03  0.14535340186E+03  0.24806879680E+03  0.00000000000E+00 0.  1.
         22    1    3    3    0    0  0.30476578038E+02  0.18799616814E+02  0.68110091645E+02  0.76949541812E+02  0.00000000000E+00 0.  1.
</event>
<event>
 7    1  0.6011599E-006  0.2483902E+03  0.7818608E-02  0.1219473E+00
          2   -1    0    0  502    0  0.00000000000E+00  0.00000000000E+00  0.16368367586E+04  0.16368367586E+04  0.00000000000E+00 0. -1.
          1   -1    0    0  501    0 -0.00000000000E+00 -0.00000000000E+00 -0.22783631674E+04  0.22783631674E+04  0.00000000000E+00 0. -1.
         25    2    1    2    0    0 -0.21227192823E+03  0.10681967485E+02 -0.46689415870E+03  0.52800426435E+03  0.12499948720E+03 0.  0.
          2    1    1    2  501    0 -0.30435267052E+02 -0.67396742665E+02 -0.17704686308E+04  0.17720123586E+04  0.00000000000E+00 0. -1.
          1    1    1    2  502    0  0.24270719529E+03  0.56714775180E+02  0.15958363807E+04  0.16151833030E+04  0.00000000000E+00 0. -1.
         22    1    3    3    0    0 -0.14963425399E+02  0.41186753910E+02 -0.55425553607E+02  0.70655819222E+02  0.00000000000E+00 0. -1.
         22    1    3    3    0    0 -0.19730850284E+03 -0.30504786424E+02 -0.41146860509E+03  0.45734844513E+03  0.00000000000E+00 0. -1.
</event>
<event>
 7    1  0.5854318E-006  0.1021089E+03  0.7818608E-02  0.1323830E+00
          2   -1    0    0  502    0  0.00000000000E+00  0.00000000000E+00  0.18558907268E+03  0.18558907268E+03  0.00000000000E+00 0. -1.
          1   -1    0    0  501    0 -0.00000000000E+00 -0.00000000000E+00 -0.18995884869E+04  0.18995884869E+04  0.00000000000E+00 0. -1.
         25    2    1    2    0    0  0.15412903350E+03  0.33955554149E+02 -0.98476654902E+02  0.22412442936E+03  0.12500147858E+03 0.  0.
          2    1    1    2  501    0 -0.58356360222E+02 -0.30053679260E+02 -0.17188557687E+04  0.17201086716E+04  0.00000000000E+00 0. -1.
          1    1    1    2  502    0 -0.95772673278E+02 -0.39018748894E+01  0.10333300943E+03  0.14094445861E+03  0.00000000000E+00 0. -1.
         22    1    3    3    0    0  0.64611332673E+01  0.29279424679E+02 -0.66520786476E+02  0.72966060508E+02  0.00000000000E+00 0. -1.
         22    1    3    3    0    0  0.14766790023E+03  0.46761294701E+01 -0.31955868426E+02  0.15115836885E+03  0.00000000000E+00 0. -1.
</event>
<event>
 7    1  0.6236171E-006  0.9521146E+02  0.7818608E-02  0.1297865E+00
          2   -1    0    0  502    0  0.00000000000E+00  0.00000000000E+00  0.65288660331E+03  0.65288660331E+03  0.00000000000E+00 0. -1.
          1   -1    0    0  501    0 -0.00000000000E+00 -0.00000000000E+00 -0.74488717804E+03  0.74488717804E+03  0.00000000000E+00 0. -1.
         25    2    1    2    0    0 -0.36457266455E+02 -0.34784940334E+01 -0.23308584047E+03  0.26702646467E+03  0.12503156245E+03 0.  0.
          2    1    1    2  501    0  0.81032111741E+02 -0.80654170999E+02 -0.48457716956E+03  0.49788184511E+03  0.00000000000E+00 0. -1.
          1    1    1    2  502    0 -0.44574845286E+02  0.84132665033E+02  0.62566243530E+03  0.63286547157E+03  0.00000000000E+00 0. -1.
         22    1    3    3    0    0 -0.78199024199E+02 -0.12731739031E+02 -0.10207070228E+03  0.12921150424E+03  0.00000000000E+00 0. -1.
         22    1    3    3    0    0  0.41741757744E+02  0.92532449977E+01 -0.13101513819E+03  0.13781496043E+03  0.00000000000E+00 0. -1.
</event>
<event>
 7    1  0.5854318E-006  0.9260654E+02  0.7818608E-02  0.1369067E+00
          2   -1    0    0  502    0  0.00000000000E+00  0.00000000000E+00  0.36079687608E+04  0.36079687608E+04  0.00000000000E+00 0. -1.
          1   -1    0    0  501    0 -0.00000000000E+00 -0.00000000000E+00 -0.36611295617E+02  0.36611295617E+02  0.00000000000E+00 0. -1.
         25    2    1    2    0    0 -0.10617818567E+02  0.13200441842E+03  0.22490001099E+04  0.22563609050E+04  0.12500053727E+03 0.  0.
          2    1    1    2  501    0 -0.15274807561E+02 -0.90293400312E+02  0.32116742938E+02  0.97044850780E+02  0.00000000000E+00 0. -1.
          1    1    1    2  502    0  0.25892626128E+02 -0.41711018112E+02  0.12902406123E+04  0.12911743007E+04  0.00000000000E+00 0. -1.
         22    1    3    3    0    0 -0.25133501181E+02  0.14576316080E+03  0.15420049686E+04  0.15490829271E+04  0.00000000000E+00 0. -1.
         22    1    3    3    0    0  0.14515682614E+02 -0.13758742377E+02  0.70699514137E+03  0.70727797785E+03  0.00000000000E+00 0. -1.
</event>
<event>
 7    1  0.5854318E-006  0.4289103E+02  0.7818608E-02  0.1602883E+00
          2   -1    0    0  502    0  0.00000000000E+00  0.00000000000E+00  0.13050560080E+04  0.13050560080E+04  0.00000000000E+00 0. -1.
          1   -1    0    0  501    0 -0.00000000000E+00 -0.00000000000E+00 -0.17973629283E+03  0.17973629283E+03  0.00000000000E+00 0. -1.
         25    2    1    2    0    0  0.50437117776E+02  0.34150169441E+02 -0.41139081055E+02  0.14500859787E+03  0.12499973017E+03 0.  0.
          2    1    1    2  501    0 -0.36368389685E+02 -0.19395246740E+02 -0.81673770238E+02  0.91484644117E+02  0.00000000000E+00 0. -1.
          1    1    1    2  502    0 -0.14068728092E+02 -0.14754922701E+02  0.12481325665E+04  0.12482990589E+04  0.00000000000E+00 0. -1.
         22    1    3    3    0    0 -0.11764154193E+02  0.52327802002E+02 -0.57027587230E+02  0.78286268857E+02  0.00000000000E+00 0. -1.
         22    1    3    3    0    0  0.62201271970E+02 -0.18177632561E+02  0.15888506176E+02  0.66722329011E+02  0.00000000000E+00 0. -1.
</event>
<event>
 7    1  0.5854318E-006  0.1226648E+03  0.7818608E-02  0.1249019E+00
          2   -1    0    0  502    0  0.00000000000E+00  0.00000000000E+00  0.42351259478E+03  0.42351259478E+03  0.00000000000E+00 0. -1.
          1   -1    0    0  501    0 -0.00000000000E+00 -0.00000000000E+00 -0.81788672918E+03  0.81788672918E+03  0.00000000000E+00 0. -1.
         25    2    1    2    0    0 -0.63620696388E+00  0.85710228709E+01 -0.47243421551E+02  0.13392724904E+03  0.12502279777E+03 0.  0.
          2    1    1    2  501    0  0.12245050205E+03  0.72469058209E+01 -0.71199549115E+03  0.72248475591E+03  0.00000000000E+00 0. -1.
          1    1    1    2  502    0 -0.12181429509E+03 -0.15817928692E+02  0.36486477830E+03  0.38498731901E+03  0.00000000000E+00 0. -1.
         22    1    3    3    0    0  0.47227967208E+02  0.44683392947E+02 -0.19626679051E+02  0.67913864730E+02  0.00000000000E+00 0.  1.
         22    1    3    3    0    0 -0.47864174172E+02 -0.36112370077E+02 -0.27616742500E+02  0.66013384310E+02  0.00000000000E+00 0.  1.
</event>
<event>
 7    1  0.5854318E-006  0.8378083E+02  0.7818608E-02  0.1368763E+00
          2   -1    0    0  502    0  0.00000000000E+00  0.00000000000E+00  0.90595852504E+02  0.90595852504E+02  0.00000000000E+00 0. -1.
          1   -1    0    0  501    0 -0.00000000000E+00 -0.00000000000E+00 -0.55623466804E+03  0.55623466804E+03  0.00000000000E+00 0. -1.
         25    2    1    2    0    0 -0.72125836260E+02  0.90480310031E+02 -0.15449188210E+03  0.22995941500E+03  0.12499907260E+03 0.  0.
          2    1    1    2  501    0  0.52852578325E+02 -0.12894633272E+02 -0.33023008998E+03  0.33468130950E+03  0.00000000000E+00 0. -1.
          1    1    1    2  502    0  0.19273257935E+02 -0.77585676759E+02  0.19083156546E+02  0.82189796042E+02  0.00000000000E+00 0. -1.
         22    1    3    3    0    0 -0.29044995325E+02  0.61352677363E+02 -0.98990788808E+00  0.67887721207E+02  0.00000000000E+00 0. -1.
         22    1    3    3    0    0 -0.43080840934E+02  0.29127632668E+02 -0.15350197421E+03  0.16207169379E+03  0.00000000000E+00 0. -1.
</event>
<event>
 7    1  0.5854318E-006  0.4757037E+02  0.7818608E-02  0.1473973E+00
          2   -1    0    0  502    0  0.00000000000E+00  0.00000000000E+00  0.10751415005E+03  0.10751415005E+03  0.00000000000E+00 0. -1.
          1   -1    0    0  501    0 -0.00000000000E+00 -0.00000000000E+00 -0.25782673528E+03  0.25782673528E+03  0.00000000000E+00 0. -1.
         25    2    1    2    0    0  0.18956794870E+02  0.57647818490E+02 -0.11195897698E+02  0.13940409082E+03  0.12500208544E+03 0.  0.
          2    1    1    2  501    0 -0.42383886023E+02 -0.21971538476E+02 -0.16783576614E+03  0.17449351476E+03  0.00000000000E+00 0. -1.
          1    1    1    2  502    0  0.23427091152E+02 -0.35676280014E+02  0.28719078612E+02  0.51443279754E+02  0.00000000000E+00 0. -1.
         22    1    3    3    0    0 -0.13763660320E+02 -0.31895005956E+02  0.18753091923E+02  0.39476679280E+02  0.00000000000E+00 0.  1.
         22    1    3    3    0    0  0.32720455190E+02  0.89542824446E+02 -0.29948989621E+02  0.99927411539E+02  0.00000000000E+00 0.  1.
</event>
<event>
 7    1  0.5854318E-006  0.3908781E+02  0.7818608E-02  0.1547571E+00
          2   -1    0    0  502    0  0.00000000000E+00  0.00000000000E+00  0.57916611105E+03  0.57916611105E+03  0.00000000000E+00 0. -1.
          1   -1    0    0  501    0 -0.00000000000E+00 -0.00000000000E+00 -0.14099799709E+03  0.14099799709E+03  0.00000000000E+00 0. -1.
         25    2    1    2    0    0 -0.65682395045E+02  0.23508109611E+02  0.18425853592E+03  0.23333227688E+03  0.12500374050E+03 0.  0.
          2    1    1    2  501    0  0.34927344829E+02 -0.16478957092E+02 -0.11256301962E+03  0.11900381855E+03  0.00000000000E+00 0. -1.
          1    1    1    2  502    0  0.30755050215E+02 -0.70291525191E+01  0.36647259765E+03  0.36782801270E+03  0.00000000000E+00 0. -1.
         22    1    3    3    0    0  0.28197767917E+02 -0.23274182898E+02  0.64428778910E+02  0.74080154271E+02  0.00000000000E+00 0. -1.
         22    1    3    3    0    0 -0.93880162961E+02  0.46782292509E+02  0.11982975701E+03  0.15925212261E+03  0.00000000000E+00 0. -1.
</event>
<event>
 7    1  0.5854318E-006  0.9144803E+02  0.7818608E-02  0.1353120E+00
          2   -1    0    0  502    0  0.00000000000E+00  0.00000000000E+00  0.29755720141E+04  0.29755720141E+04  0.00000000000E+00 0. -1.
          1   -1    0    0  501    0 -0.00000000000E+00 -0.00000000000E+00 -0.76982465536E+03  0.76982465536E+03  0.00000000000E+00 0. -1.
         25    2    1    2    0    0 -0.78632862443E+02  0.88167130399E+02  0.87877662738E+03  0.89544912533E+03  0.12499682103E+03 0.  0.
          2    1    1    2  501    0  0.56821806573E+02 -0.11333285588E+01 -0.75946244635E+03  0.76158598304E+03  0.00000000000E+00 0. -1.
          1    1    1    2  502    0  0.21811055869E+02 -0.87033801840E+02  0.20864331777E+04  0.20883615611E+04  0.00000000000E+00 0. -1.
         22    1    3    3    0    0 -0.16418339320E+02 -0.31593868832E+02  0.23468709410E+03  0.23737263227E+03  0.00000000000E+00 0.  1.
         22    1    3    3    0    0 -0.62214523123E+02  0.11976099923E+03  0.64408953328E+03  0.65807649305E+03  0.00000000000E+00 0.  1.
</event>
<event>
 7    1  0.5854318E-006  0.2389298E+03  0.7818608E-02  0.1248471E+00
          2   -1    0    0  502    0  0.00000000000E+00  0.00000000000E+00  0.89485584734E+03  0.89485584734E+03  0.00000000000E+00 0. -1.
          1   -1    0    0  501    0 -0.00000000000E+00 -0.00000000000E+00 -0.60728782123E+03  0.60728782123E+03  0.00000000000E+00 0. -1.
         25    2    1    2    0    0  0.19584912891E+03  0.19451340767E+03 -0.22369490337E+03  0.37664053070E+03  0.12500532995E+03 0.  0.
          2    1    1    2  501    0 -0.28039567995E+01 -0.57028838324E+02 -0.28709117663E+03  0.29271401448E+03  0.00000000000E+00 0. -1.
          1    1    1    2  502    0 -0.19304517211E+03 -0.13748456934E+03  0.79835410611E+03  0.83278912338E+03  0.00000000000E+00 0. -1.
         22    1    3    3    0    0  0.15114978234E+03  0.88241600318E+02 -0.80073180884E+02  0.19246961066E+03  0.00000000000E+00 0.  1.
         22    1    3    3    0    0  0.44699346569E+02  0.10627180735E+03 -0.14362172249E+03  0.18417092005E+03  0.00000000000E+00 0.  1.
</event>
<event>
 7    1  0.5854318E-006  0.5558039E+02  0.7818608E-02  0.1509293E+00
          2   -1    0    0  502    0  0.00000000000E+00  0.00000000000E+00  0.14856559784E+03  0.14856559784E+03  0.00000000000E+00 0. -1.
          1   -1    0    0  501    0 -0.00000000000E+00 -0.00000000000E+00 -0.10019856747E+04  0.10019856747E+04  0.00000000000E+00 0. -1.
         25    2    1    2    0    0 -0.47871650386E+02  0.18804427020E+02 -0.28631646008E+03  0.31662141101E+03  0.12500680466E+03 0.  0.
          2    1    1    2  501    0  0.34916555296E+02 -0.44275682748E+02 -0.69783613347E+03  0.70011054205E+03  0.00000000000E+00 0. -1.
          1    1    1    2  502    0  0.12955095090E+02  0.25471255728E+02  0.13073251666E+03  0.13381931950E+03  0.00000000000E+00 0. -1.
         22    1    3    3    0    0 -0.60554205699E+02  0.44163657249E+02 -0.27671624462E+03  0.28668644978E+03  0.00000000000E+00 0.  1.
         22    1    3    3    0    0  0.12682555313E+02 -0.25359230230E+02 -0.96002154614E+01  0.29934961233E+02  0.00000000000E+00 0.  1.
</event>
<event>
 7    1  0.5854318E-006  0.1124515E+03  0.7818608E-02  0.1265964E+00
          2   -1    0    0  502    0  0.00000000000E+00  0.00000000000E+00  0.53457632180E+03  0.53457632180E+03  0.00000000000E+00 0. -1.
          1   -1    0    0  501    0 -0.00000000000E+00 -0.00000000000E+00 -0.15857472186E+04  0.15857472186E+04  0.00000000000E+00 0. -1.
         25    2    1    2    0    0 -0.90024559698E+02  0.59881226416E+02 -0.69786170718E+03  0.71716526791E+03  0.12499950608E+03 0.  0.
          2    1    1    2  501    0 -0.15123881825E+02 -0.10094836155E+03 -0.86914343625E+03  0.87511691578E+03  0.00000000000E+00 0. -1.
          1    1    1    2  502    0  0.10514844152E+03  0.41067135134E+02  0.51583424666E+03  0.52804135669E+03  0.00000000000E+00 0. -1.
         22    1    3    3    0    0  0.31908431951E+02  0.13738678137E+02 -0.16011133545E+03  0.16383692821E+03  0.00000000000E+00 0.  1.
         22    1    3    3    0    0 -0.12193299165E+03  0.46142548279E+02 -0.53775037173E+03  0.55332833969E+03  0.00000000000E+00 0.  1.
</event>
<event>
 7    1  0.5854318E-006  0.4854230E+02  0.7818608E-02  0.1566753E+00
          2   -1    0    0  502    0  0.00000000000E+00  0.00000000000E+00  0.62939237492E+03  0.62939237492E+03  0.00000000000E+00 0. -1.
          1   -1    0    0  501    0 -0.00000000000E+00 -0.00000000000E+00 -0.13270119288E+03  0.13270119288E+03  0.00000000000E+00 0. -1.
         25    2    1    2    0    0 -0.36806410529E+02 -0.14187914995E+02  0.13831035500E+03  0.19055309102E+03  0.12499886964E+03 0.  0.
          2    1    1    2  501    0  0.32878022269E+02  0.36327016680E+02 -0.10065904202E+03  0.11195025337E+03  0.00000000000E+00 0. -1.
          1    1    1    2  502    0  0.39283882600E+01 -0.22139101685E+02  0.45903986906E+03  0.45959022340E+03  0.00000000000E+00 0. -1.
         22    1    3    3    0    0  0.17705744678E+02  0.39139129025E+02  0.14872963639E+02  0.45459540944E+02  0.00000000000E+00 0.  1.
         22    1    3    3    0    0 -0.54512155207E+02 -0.53327044020E+02  0.12343739136E+03  0.14509355008E+03  0.00000000000E+00 0.  1.
</event>
<event>
 7    1  0.5854318E-006  0.6923112E+02  0.7818608E-02  0.1473996E+00
          2   -1    0    0  502    0  0.00000000000E+00  0.00000000000E+00  0.52309388831E+03  0.52309388831E+03  0.00000000000E+00 0. -1.
          1   -1    0    0  501    0 -0.00000000000E+00 -0.00000000000E+00 -0.25287801028E+03  0.25287801028E+03  0.00000000000E+00 0. -1.
         25    2    1    2    0    0 -0.66612525047E+02  0.38913768238E+02  0.32242649089E+02  0.15038721126E+03  0.12500086015E+03 0.  0.
          2    1    1    2  501    0  0.24594862507E+02  0.15964526442E+02 -0.18990738940E+03  0.19215772146E+03  0.00000000000E+00 0. -1.
          1    1    1    2  502    0  0.42017662539E+02 -0.54878294680E+02  0.42788061835E+03  0.43342696588E+03  0.00000000000E+00 0. -1.
         22    1    3    3    0    0 -0.92823016886E+02  0.21043044525E+01  0.45359154448E+02  0.10333437692E+03  0.00000000000E+00 0.  1.
         22    1    3    3    0    0  0.26210491839E+02  0.36809463786E+02 -0.13116505359E+02  0.47052834340E+02  0.00000000000E+00 0.  1.
</event>
<event>
 7    1  0.5854318E-006  0.3392033E+03  0.7818608E-02  0.1137154E+00
          2   -1    0    0  502    0  0.00000000000E+00  0.00000000000E+00  0.71590810345E+03  0.71590810345E+03  0.00000000000E+00 0. -1.
          1   -1    0    0  501    0 -0.00000000000E+00 -0.00000000000E+00 -0.79086858401E+03  0.79086858401E+03  0.00000000000E+00 0. -1.
         25    2    1    2    0    0  0.22563764962E+03 -0.11573243977E+02  0.27479645803E+03  0.37707390681E+03  0.12500139576E+03 0.  0.
          2    1    1    2  501    0 -0.35224980924E+03 -0.41079330564E+02 -0.68287218176E+03  0.76946855435E+03  0.00000000000E+00 0. -1.
          1    1    1    2  502    0  0.12661215962E+03  0.52652574541E+02  0.33311524317E+03  0.36023422630E+03  0.00000000000E+00 0. -1.
         22    1    3    3    0    0  0.19256901646E+03  0.36394283641E+02  0.23740847545E+03  0.30784761522E+03  0.00000000000E+00 0.  1.
         22    1    3    3    0    0  0.33068633160E+02 -0.47967527618E+02  0.37387982589E+02  0.69226291587E+02  0.00000000000E+00 0.  1.
</event>
<event>
 7    1  0.5854318E-006  0.7593362E+02  0.7818608E-02  0.1357068E+00
          2   -1    0    0  502    0  0.00000000000E+00  0.00000000000E+00  0.28147298416E+03  0.28147298416E+03  0.00000000000E+00 0. -1.
          1   -1    0    0  501    0 -0.00000000000E+00 -0.00000000000E+00 -0.44001795488E+03  0.44001795488E+03  0.00000000000E+00 0. -1.
         25    2    1    2    0    0 -0.21149051059E+02  0.23201423138E+02 -0.49559426337E+02  0.13807695872E+03  0.12499408543E+03 0.  0.
          2    1    1    2  501    0 -0.10327549957E+02 -0.81433824745E+02 -0.33655074645E+03  0.34641670144E+03  0.00000000000E+00 0. -1.
          1    1    1    2  502    0  0.31476601016E+02  0.58232401607E+02  0.22756520207E+03  0.23699727889E+03  0.00000000000E+00 0. -1.
         22    1    3    3    0    0 -0.37845579933E+02 -0.25308583080E+02  0.21567623539E+02  0.50378315604E+02  0.00000000000E+00 0.  1.
         22    1    3    3    0    0  0.16696528875E+02  0.48510006218E+02 -0.71127049876E+02  0.87698643113E+02  0.00000000000E+00 0.  1.
</event>
<event>
 7    1  0.5854318E-006  0.9699132E+02  0.7818608E-02  0.1353970E+00
          2   -1    0    0  502    0  0.00000000000E+00  0.00000000000E+00  0.72965072731E+03  0.72965072731E+03  0.00000000000E+00 0. -1.
          1   -1    0    0  501    0 -0.00000000000E+00 -0.00000000000E+00 -0.28630703365E+04  0.28630703365E+04  0.00000000000E+00 0. -1.
         25    2    1    2    0    0  0.10290197418E+03 -0.68797100169E+02 -0.21642839864E+03  0.27890480418E+03  0.12499912311E+03 0.  0.
          2    1    1    2  501    0 -0.51305970576E+02  0.81760666076E+02 -0.26134984122E+04  0.26152803024E+04  0.00000000000E+00 0. -1.
          1    1    1    2  502    0 -0.51596003600E+02 -0.12963565907E+02  0.69650720167E+03  0.69853595728E+03  0.00000000000E+00 0. -1.
         22    1    3    3    0    0 -0.18110958440E+02  0.17880618422E+02 -0.46429306435E+02  0.52947179593E+02  0.00000000000E+00 0. -1.
         22    1    3    3    0    0  0.12101293262E+03 -0.86677718591E+02 -0.16999909220E+03  0.22595762459E+03  0.00000000000E+00 0. -1.
</event>
<event>
 7    1  0.5854318E-006  0.9999965E+02  0.7818608E-02  0.1280492E+00
          2   -1    0    0  502    0  0.00000000000E+00  0.00000000000E+00  0.42911121966E+03  0.42911121966E+03  0.00000000000E+00 0. -1.
          1   -1    0    0  501    0 -0.00000000000E+00 -0.00000000000E+00 -0.68808126490E+03  0.68808126490E+03  0.00000000000E+00 0. -1.
         25    2    1    2    0    0 -0.83244433281E+02  0.12836414385E+02  0.25247157241E+03  0.29404438588E+03  0.12500318711E+03 0.  0.
          2    1    1    2  501    0 -0.88201349307E+01  0.99423900174E+02 -0.62867025497E+03  0.63654473228E+03  0.00000000000E+00 0. -1.
          1    1    1    2  502    0  0.92064568211E+02 -0.11226031456E+03  0.11722863732E+03  0.18660336640E+03  0.00000000000E+00 0. -1.
         22    1    3    3    0    0 -0.36386569105E+02 -0.23847744067E+02  0.10353434490E+02  0.44720139916E+02  0.00000000000E+00 0.  1.
         22    1    3    3    0    0 -0.46857864175E+02  0.36684158451E+02  0.24211813792E+03  0.24932424597E+03  0.00000000000E+00 0.  1.
</event>
<event>
 7    1  0.5854318E-006  0.8569335E+02  0.7818608E-02  0.1359039E+00
          2   -1    0    0  502    0  0.00000000000E+00  0.00000000000E+00  0.18427598467E+04  0.18427598467E+04  0.00000000000E+00 0. -1.
          1   -1    0    0  501    0 -0.00000000000E+00 -0.00000000000E+00 -0.22624759533E+03  0.22624759533E+03  0.00000000000E+00 0. -1.
         25    2    1    2    0    0  0.33500095825E+02 -0.13413342761E+02  0.16468269554E+03  0.20987505497E+03  0.12499989721E+03 0.  0.
          2    1    1    2  501    0 -0.60675481349E+02  0.64301707999E+02 -0.19352690754E+03  0.21276486465E+03  0.00000000000E+00 0. -1.
          1    1    1    2  502    0  0.27175385524E+02 -0.50888365238E+02  0.16453564633E+04  0.16463675224E+04  0.00000000000E+00 0. -1.
         22    1    3    3    0    0  0.11980711739E+02 -0.20184583094E+02 -0.15601787176E+02  0.28184581096E+02  0.00000000000E+00 0. -1.
         22    1    3    3    0    0  0.21519384086E+02  0.67712403333E+01  0.18028448272E+03  0.18169047387E+03  0.00000000000E+00 0. -1.
</event>
<event>
 7    1  0.5854318E-006  0.9233284E+02  0.7818608E-02  0.1328186E+00
          2   -1    0    0  502    0  0.00000000000E+00  0.00000000000E+00  0.66074503408E+03  0.66074503408E+03  0.00000000000E+00 0. -1.
          1   -1    0    0  501    0 -0.00000000000E+00 -0.00000000000E+00 -0.10838634358E+04  0.10838634358E+04  0.00000000000E+00 0. -1.
         25    2    1    2    0    0  0.80217179498E+02 -0.35703773852E+02  0.26655655011E+03  0.30722270379E+03  0.12499535976E+03 0.  0.
          2    1    1    2  501    0 -0.86119408441E+02 -0.33891669614E+02 -0.10582308254E+04  0.10622700587E+04  0.00000000000E+00 0. -1.
          1    1    1    2  502    0  0.59022289433E+01  0.69595443466E+02  0.36855587353E+03  0.37511570744E+03  0.00000000000E+00 0. -1.
         22    1    3    3    0    0 -0.25893231391E+02 -0.10072043010E+02  0.12721168646E+03  0.13021028629E+03  0.00000000000E+00 0.  1.
         22    1    3    3    0    0  0.10611041089E+03 -0.25631730842E+02  0.13934486365E+03  0.17701241751E+03  0.00000000000E+00 0.  1.
</event>
<event>
 7    1  0.5854318E-006  0.1116111E+03  0.7818608E-02  0.1323948E+00
          2   -1    0    0  502    0  0.00000000000E+00  0.00000000000E+00  0.40625110263E+04  0.40625110263E+04  0.00000000000E+00 0. -1.
          1   -1    0    0  501    0 -0.00000000000E+00 -0.00000000000E+00 -0.12314402939E+03  0.12314402939E+03  0.00000000000E+00 0. -1.
         25    2    1    2    0    0 -0.16706397298E+03  0.15684953936E+02  0.10938173004E+04  0.11136500912E+04  0.12499540023E+03 0.  0.
          2    1    1    2  501    0  0.11021665805E+03  0.34760650168E+01 -0.85999689584E+02  0.13984184405E+03  0.00000000000E+00 0. -1.
          1    1    1    2  502    0  0.56847314931E+02 -0.19161018953E+02  0.29315493860E+04  0.29321631204E+04  0.00000000000E+00 0. -1.
         22    1    3    3    0    0 -0.25438031906E+02  0.43308982680E+02  0.50155440612E+03  0.50406307516E+03  0.00000000000E+00 0.  1.
         22    1    3    3    0    0 -0.14162594107E+03 -0.27624028744E+02  0.59226289431E+03  0.60958701604E+03  0.00000000000E+00 0.  1.
</event>
<event>
 7    1  0.5854318E-006  0.4718604E+02  0.7818608E-02  0.1551694E+00
          2   -1    0    0  502    0  0.00000000000E+00  0.00000000000E+00  0.15278141439E+04  0.15278141439E+04  0.00000000000E+00 0. -1.
          1   -1    0    0  501    0 -0.00000000000E+00 -0.00000000000E+00 -0.19150491547E+04  0.19150491547E+04  0.00000000000E+00 0. -1.
         25    2    1    2    0    0  0.25999989966E+02 -0.65623326129E+02 -0.92115929028E+02  0.17056181847E+03  0.12499427639E+03 0.  0.
          2    1    1    2  501    0 -0.98304766512E+01  0.45969508258E+02 -0.17832917334E+04  0.17839112199E+04  0.00000000000E+00 0. -1.
          1    1    1    2  502    0 -0.16169513315E+02  0.19653817871E+02  0.14881726516E+04  0.14883902603E+04  0.00000000000E+00 0. -1.
         22    1    3    3    0    0  0.13075909173E+02 -0.10143581566E+03 -0.50183725157E+02  0.11392370416E+03  0.00000000000E+00 0. -1.
         22    1    3    3    0    0  0.12924080794E+02  0.35812489533E+02 -0.41932203870E+02  0.56638114308E+02  0.00000000000E+00 0. -1.
</event>
<event>
 7    1  0.5854318E-006  0.1987171E+03  0.7818608E-02  0.1358716E+00
          2   -1    0    0  502    0  0.00000000000E+00  0.00000000000E+00  0.10778354952E+04  0.10778354952E+04  0.00000000000E+00 0. -1.
          1   -1    0    0  501    0 -0.00000000000E+00 -0.00000000000E+00 -0.10385398120E+04  0.10385398120E+04  0.00000000000E+00 0. -1.
         25    2    1    2    0    0  0.21527617637E+02  0.18939870555E+03 -0.77814452111E+02  0.24086321218E+03  0.12499876015E+03 0.  0.
          2    1    1    2  501    0  0.24534209705E+02  0.45103386142E+01 -0.86905284684E+03  0.86941078967E+03  0.00000000000E+00 0. -1.
          1    1    1    2  502    0 -0.46061827342E+02 -0.19390904416E+03  0.98616298210E+03  0.10061013053E+04  0.00000000000E+00 0. -1.
         22    1    3    3    0    0 -0.29786968519E+02  0.30469256708E+01  0.53968450763E+01  0.30424877755E+02  0.00000000000E+00 0.  1.
         22    1    3    3    0    0  0.51314586156E+02  0.18635177988E+03 -0.83211297188E+02  0.21043833442E+03  0.00000000000E+00 0.  1.
</event>
<event>
 7    1  0.5854318E-006  0.1363752E+03  0.7818608E-02  0.1239133E+00
          2   -1    0    0  502    0  0.00000000000E+00  0.00000000000E+00  0.17584359303E+04  0.17584359303E+04  0.00000000000E+00 0. -1.
          1   -1    0    0  501    0 -0.00000000000E+00 -0.00000000000E+00 -0.22416172094E+03  0.22416172094E+03  0.00000000000E+00 0. -1.
         25    2    1    2    0    0  0.99118945244E+02 -0.20236760612E+03  0.19545077797E+03  0.32342466426E+03  0.12500117413E+03 0.  0.
          2    1    1    2  501    0 -0.88477009042E+02  0.92963735405E+02 -0.13208369331E+03  0.18416443540E+03  0.00000000000E+00 0. -1.
          1    1    1    2  502    0 -0.10641936202E+02  0.10940387072E+03  0.14709071247E+04  0.14750085516E+04  0.00000000000E+00 0. -1.
         22    1    3    3    0    0  0.10724386497E+02 -0.83394318774E+02  0.14359084030E+03  0.16639697800E+03  0.00000000000E+00 0.  1.
         22    1    3    3    0    0  0.88394558747E+02 -0.11897328735E+03  0.51859937665E+02  0.15702768626E+03  0.00000000000E+00 0.  1.
</event>
<event>
 7    1  0.5854318E-006  0.6622561E+02  0.7818608E-02  0.1423845E+00
          2   -1    0    0  502    0  0.00000000000E+00  0.00000000000E+00  0.13975930998E+02  0.13975930998E+02  0.00000000000E+00 0. -1.
          1   -1    0    0  501    0 -0.00000000000E+00 -0.00000000000E+00 -0.21829796909E+04  0.21829796909E+04  0.00000000000E+00 0. -1.
         25    2    1    2    0    0 -0.23867741551E+02  0.23253479287E+02 -0.96140500162E+03  0.97006955261E+03  0.12499986550E+03 0.  0.
          2    1    1    2  501    0  0.39752844356E+02 -0.64696990005E+02 -0.11573667246E+04  0.11598550445E+04  0.00000000000E+00 0. -1.
          1    1    1    2  502    0 -0.15885102805E+02  0.41443510718E+02 -0.50232033734E+02  0.67031024793E+02  0.00000000000E+00 0. -1.
         22    1    3    3    0    0  0.43362466916E+02  0.24957260958E+02 -0.62554216978E+03  0.62753977928E+03  0.00000000000E+00 0. -1.
         22    1    3    3    0    0 -0.67230208467E+02 -0.17037816712E+01 -0.33586283184E+03  0.34252977333E+03  0.00000000000E+00 0. -1.
</event>
<event>
 7    1  0.5854318E-006  0.1437947E+03  0.7818608E-02  0.1339802E+00
          2   -1    0    0  502    0  0.00000000000E+00  0.00000000000E+00  0.19595498972E+03  0.19595498972E+03  0.00000000000E+00 0. -1.
          1   -1    0    0  501    0 -0.00000000000E+00 -0.00000000000E+00 -0.19298255216E+04  0.19298255216E+04  0.00000000000E+00 0. -1.
         25    2    1    2    0    0  0.15128107474E+03 -0.84469382100E+02 -0.40756727240E+03  0.46017066155E+03  0.12499966455E+03 0.  0.
          2    1    1    2  501    0 -0.11079613006E+03  0.86099070481E+02 -0.14901936715E+04  0.14967852254E+04  0.00000000000E+00 0. -1.
          1    1    1    2  502    0 -0.40484944679E+02 -0.16296883807E+01  0.16389041204E+03  0.16882462435E+03  0.00000000000E+00 0. -1.
         22    1    3    3    0    0  0.15725190816E+03 -0.10708362865E+03 -0.36431718656E+03  0.41100131212E+03  0.00000000000E+00 0. -1.
         22    1    3    3    0    0 -0.59708334162E+01  0.22614246546E+02 -0.43250085842E+02  0.49169349435E+02  0.00000000000E+00 0. -1.
</event>
<event>
 7    1  0.5854318E-006  0.5198514E+02  0.7818608E-02  0.1528670E+00
          2   -1    0    0  502    0  0.00000000000E+00  0.00000000000E+00  0.35793846357E+03  0.35793846357E+03  0.00000000000E+00 0. -1.
          1   -1    0    0  501    0 -0.00000000000E+00 -0.00000000000E+00 -0.84272323078E+02  0.84272323078E+02  0.00000000000E+00 0. -1.
         25    2    1    2    0    0 -0.40059393460E+02 -0.11144833935E+02  0.18337326631E+03  0.22578490848E+03  0.12499643104E+03 0.  0.
          2    1    1    2  501    0  0.36948284774E+02  0.37799004980E+02 -0.50496688700E+02  0.73101683256E+02  0.00000000000E+00 0. -1.
          1    1    1    2  502    0  0.31111086861E+01 -0.26654171045E+02  0.14078956288E+03  0.14332419491E+03  0.00000000000E+00 0. -1.
         22    1    3    3    0    0  0.17497934911E+02  0.21496161301E+02  0.14835352528E+03  0.15092061204E+03  0.00000000000E+00 0.  1.
         22    1    3    3    0    0 -0.57557328371E+02 -0.32640995237E+02  0.35019741037E+02  0.74864296440E+02  0.00000000000E+00 0.  1.
</event>
<event>
 7    1  0.5854318E-006  0.5473509E+02  0.7818608E-02  0.1505126E+00
          2   -1    0    0  502    0  0.00000000000E+00  0.00000000000E+00  0.10674623559E+04  0.10674623559E+04  0.00000000000E+00 0. -1.
          1   -1    0    0  501    0 -0.00000000000E+00 -0.00000000000E+00 -0.12316526516E+03  0.12316526516E+03  0.00000000000E+00 0. -1.
         25    2    1    2    0    0 -0.40580119783E+02 -0.71719899318E+01  0.78580419790E+03  0.79675044358E+03  0.12499939342E+03 0.  0.
          2    1    1    2  501    0  0.40532896197E+02  0.37024179955E+02 -0.11041928264E+03  0.12331311185E+03  0.00000000000E+00 0. -1.
          1    1    1    2  502    0  0.47223586621E-01 -0.29852190023E+02  0.26891217548E+03  0.27056406561E+03  0.00000000000E+00 0. -1.
         22    1    3    3    0    0 -0.77433081245E+02 -0.69132810409E+01  0.31291965565E+03  0.32243198727E+03  0.00000000000E+00 0.  1.
         22    1    3    3    0    0  0.36852961462E+02 -0.25870889083E+00  0.47288454225E+03  0.47431845631E+03  0.00000000000E+00 0.  1.
</event>
<event>
 7    1  0.5854318E-006  0.5982018E+02  0.7818608E-02  0.1416251E+00
          2   -1    0    0  502    0  0.00000000000E+00  0.00000000000E+00  0.12245744288E+03  0.12245744288E+03  0.00000000000E+00 0. -1.
          1   -1    0    0  501    0 -0.00000000000E+00 -0.00000000000E+00 -0.35749222613E+03  0.35749222613E+03  0.00000000000E+00 0. -1.
         25    2    1    2    0    0 -0.95141154775E+02 -0.64312986815E+01 -0.99546909845E+02  0.18608392397E+03  0.12499775424E+03 0.  0.
          2    1    1    2  501    0  0.46097922742E+02 -0.24257844458E+02 -0.20031500353E+03  0.20697720198E+03  0.00000000000E+00 0. -1.
          1    1    1    2  502    0  0.49043232033E+02  0.30689143140E+02  0.64827130125E+02  0.86888543061E+02  0.00000000000E+00 0. -1.
         22    1    3    3    0    0  0.21941368478E+02  0.32505261621E+01  0.11008717339E+02  0.24762500448E+02  0.00000000000E+00 0. -1.
         22    1    3    3    0    0 -0.11708252325E+03 -0.96818248436E+01 -0.11055562718E+03  0.16132142352E+03  0.00000000000E+00 0. -1.
</event>
<event>
 7    1  0.5854318E-006  0.9878568E+02  0.7818608E-02  0.1303659E+00
          2   -1    0    0  502    0  0.00000000000E+00  0.00000000000E+00  0.15041312890E+04  0.15041312890E+04  0.00000000000E+00 0. -1.
          1   -1    0    0  501    0 -0.00000000000E+00 -0.00000000000E+00 -0.30024803033E+03  0.30024803033E+03  0.00000000000E+00 0. -1.
         25    2    1    2    0    0 -0.14490656024E+03  0.44619669666E+02  0.21563027937E+02  0.19768420724E+03  0.12500102198E+03 0.  0.
          2    1    1    2  501    0  0.48941858709E+02 -0.65032391441E+02 -0.20258257221E+03  0.21832135954E+03  0.00000000000E+00 0. -1.
          1    1    1    2  502    0  0.95964701535E+02  0.20412721775E+02  0.13849028029E+04  0.13883737525E+04  0.00000000000E+00 0. -1.
         22    1    3    3    0    0 -0.12738281972E+03 -0.89547330155E+01  0.46696231408E+02  0.13596730501E+03  0.00000000000E+00 0.  1.
         22    1    3    3    0    0 -0.17523740527E+02  0.53574402682E+02 -0.25133203471E+02  0.61716902235E+02  0.00000000000E+00 0.  1.
</event>
<event>
 7    1  0.5854318E-006  0.3689267E+02  0.7818608E-02  0.1535659E+00
          2   -1    0    0  502    0  0.00000000000E+00  0.00000000000E+00  0.26396543051E+03  0.26396543051E+03  0.00000000000E+00 0. -1.
          1   -1    0    0  501    0 -0.00000000000E+00 -0.00000000000E+00 -0.18404778153E+03  0.18404778153E+03  0.00000000000E+00 0. -1.
         25    2    1    2    0    0  0.28416147612E+02 -0.38437009330E+02 -0.37635503274E+02  0.13905204903E+03  0.12503663504E+03 0.  0.
          2    1    1    2  501    0 -0.36043774264E+02  0.22504077199E+01 -0.90608301470E+02  0.97540157337E+02  0.00000000000E+00 0. -1.
          1    1    1    2  502    0  0.76276266523E+01  0.36186601610E+02  0.20816145372E+03  0.21142100568E+03  0.00000000000E+00 0. -1.
         22    1    3    3    0    0  0.41872487671E+02 -0.43098435638E+02  0.31928292022E+02  0.68045545112E+02  0.00000000000E+00 0. -1.
         22    1    3    3    0    0 -0.13456340059E+02  0.46614263076E+01 -0.69563795295E+02  0.71006503920E+02  0.00000000000E+00 0. -1.
</event>
<event>
 7    1  0.5854318E-006  0.4013959E+02  0.7818608E-02  0.1518884E+00
          2   -1    0    0  502    0  0.00000000000E+00  0.00000000000E+00  0.16738055392E+03  0.16738055392E+03  0.00000000000E+00 0. -1.
          1   -1    0    0  501    0 -0.00000000000E+00 -0.00000000000E+00 -0.15978732839E+04  0.15978732839E+04  0.00000000000E+00 0. -1.
         25    2    1    2    0    0  0.27035452489E+02  0.42194046429E+02 -0.13545220144E+02  0.13534856334E+03  0.12499802944E+03 0.  0.
          2    1    1    2  501    0 -0.36967998513E+02 -0.30329333035E+01 -0.15193595498E+04  0.15198122493E+04  0.00000000000E+00 0. -1.
          1    1    1    2  502    0  0.99325460247E+01 -0.39161113126E+02  0.10241203999E+03  0.11009302515E+03  0.00000000000E+00 0. -1.
         22    1    3    3    0    0 -0.11427235295E+02 -0.90817358374E+01  0.45754925901E+02  0.48026793319E+02  0.00000000000E+00 0. -1.
         22    1    3    3    0    0  0.38462687783E+02  0.51275782266E+02 -0.59300146045E+02  0.87321770020E+02  0.00000000000E+00 0. -1.
</event>
<event>
 7    1  0.5854318E-006  0.6638088E+02  0.7818608E-02  0.1417360E+00
          2   -1    0    0  502    0  0.00000000000E+00  0.00000000000E+00  0.25017556451E+03  0.25017556451E+03  0.00000000000E+00 0. -1.
          1   -1    0    0  501    0 -0.00000000000E+00 -0.00000000000E+00 -0.11268736667E+04  0.11268736667E+04  0.00000000000E+00 0. -1.
         25    2    1    2    0    0  0.21500819047E+02  0.16505981864E+02 -0.29620321836E+03  0.32263887968E+03  0.12499906983E+03 0.  0.
          2    1    1    2  501    0 -0.38621174134E+02 -0.59784933863E+02 -0.81359848606E+03  0.81670577930E+03  0.00000000000E+00 0. -1.
          1    1    1    2  502    0  0.17120355087E+02  0.43278951999E+02  0.23310360228E+03  0.23770457219E+03  0.00000000000E+00 0. -1.
         22    1    3    3    0    0  0.55189388506E+02  0.45375710443E+02 -0.24340630775E+03  0.25367588446E+03  0.00000000000E+00 0.  1.
         22    1    3    3    0    0 -0.33688569460E+02 -0.28869728579E+02 -0.52796910610E+02  0.68962995225E+02  0.00000000000E+00 0.  1.
</event>
<event>
 7    1  0.5854318E-006  0.9077893E+02  0.7818608E-02  0.1449049E+00
          2   -1    0    0  502    0  0.00000000000E+00  0.00000000000E+00  0.48633662171E+03  0.48633662171E+03  0.00000000000E+00 0. -1.
          1   -1    0    0  501    0 -0.00000000000E+00 -0.00000000000E+00 -0.74600423195E+03  0.74600423195E+03  0.00000000000E+00 0. -1.
         25    2    1    2    0    0 -0.10829833638E+03  0.67048269713E+01 -0.18781337977E+03  0.25034518449E+03  0.12500144563E+03 0.  0.
          2    1    1    2  501    0  0.18705026641E+02 -0.19185090575E+02 -0.52208268998E+03  0.52276981636E+03  0.00000000000E+00 0. -1.
          1    1    1    2  502    0  0.89593309736E+02  0.12480263604E+02  0.45022845952E+03  0.45922585281E+03  0.00000000000E+00 0. -1.
         22    1    3    3    0    0 -0.15402236579E+02  0.24311974187E+02 -0.14271936004E+03  0.14559229620E+03  0.00000000000E+00 0. -1.
         22    1    3    3    0    0 -0.92896099798E+02 -0.17607147216E+02 -0.45094019726E+02  0.10475288829E+03  0.00000000000E+00 0. -1.
</event>
<event>
 7    1  0.5854318E-006  0.7860862E+02  0.7818608E-02  0.1494327E+00
          2   -1    0    0  502    0  0.00000000000E+00  0.00000000000E+00  0.43666068789E+03  0.43666068789E+03  0.00000000000E+00 0. -1.
          1   -1    0    0  501    0 -0.00000000000E+00 -0.00000000000E+00 -0.16773681324E+04  0.16773681324E+04  0.00000000000E+00 0. -1.
         25    2    1    2    0    0  0.58871393712E+02 -0.20377444926E+02  0.92327197134E+02  0.16742378409E+03  0.12500132354E+03 0.  0.
          2    1    1    2  501    0  0.21134084329E+02  0.73866982867E+01 -0.16343882253E+04  0.16345415516E+04  0.00000000000E+00 0. -1.
          1    1    1    2  502    0 -0.80005478042E+02  0.12990746639E+02  0.30135358369E+03  0.31206348459E+03  0.00000000000E+00 0. -1.
         22    1    3    3    0    0  0.41039834817E+02 -0.70939540277E+02  0.35551176428E+02  0.89334050406E+02  0.00000000000E+00 0. -1.
         22    1    3    3    0    0  0.17831558896E+02  0.50562095352E+02  0.56776020705E+02  0.78089733679E+02  0.00000000000E+00 0. -1.
</event>
<event>
 7    1  0.5854318E-006  0.2503568E+03  0.7818608E-02  0.1240892E+00
          2   -1    0    0  502    0  0.00000000000E+00  0.00000000000E+00  0.33428444003E+04  0.33428444003E+04  0.00000000000E+00 0. -1.
          1   -1    0    0  501    0 -0.00000000000E+00 -0.00000000000E+00 -0.73054107248E+02  0.73054107248E+02  0.00000000000E+00 0. -1.
         25    2    1    2    0    0 -0.17390549297E+03 -0.23637969221E+03  0.92851501789E+03  0.98177570801E+03  0.12499969206E+03 0.  0.
          2    1    1    2  501    0  0.15127651350E+03  0.18209106070E+03  0.25850903381E+03  0.35052625933E+03  0.00000000000E+00 0. -1.
          1    1    1    2  502    0  0.22628979478E+02  0.54288631511E+02  0.20827662414E+04  0.20835965402E+04  0.00000000000E+00 0. -1.
         22    1    3    3    0    0 -0.12687848196E+03 -0.70496581766E+02  0.37889528466E+03  0.40574567646E+03  0.00000000000E+00 0. -1.
         22    1    3    3    0    0 -0.47027011015E+02 -0.16588311045E+03  0.54961973323E+03  0.57603003155E+03  0.00000000000E+00 0. -1.
</event>
<event>
 7    1  0.5854318E-006  0.6365039E+02  0.7818608E-02  0.1405452E+00
          2   -1    0    0  502    0  0.00000000000E+00  0.00000000000E+00  0.23315943166E+03  0.23315943166E+03  0.00000000000E+00 0. -1.
          1   -1    0    0  501    0 -0.00000000000E+00 -0.00000000000E+00 -0.60068895791E+03  0.60068895791E+03  0.00000000000E+00 0. -1.
         25    2    1    2    0    0 -0.37018231594E+01 -0.22653991804E+02 -0.91182333477E+02  0.15641184041E+03  0.12499415603E+03 0.  0.
          2    1    1    2  501    0  0.44935357460E+02 -0.28581324509E+02 -0.46995535527E+03  0.47296312162E+03  0.00000000000E+00 0. -1.
          1    1    1    2  502    0 -0.41233534301E+02  0.51235316312E+02  0.19360816249E+03  0.20447342755E+03  0.00000000000E+00 0. -1.
         22    1    3    3    0    0  0.54017354285E+02 -0.35676667992E+02 -0.64903358148E+02  0.91668670231E+02  0.00000000000E+00 0. -1.
         22    1    3    3    0    0 -0.57719177445E+02  0.13022676188E+02 -0.26278975328E+02  0.64743170175E+02  0.00000000000E+00 0. -1.
</event>
<event>
 7    1  0.5854318E-006  0.3643815E+02  0.7818608E-02  0.1602095E+00
          2   -1    0    0  502    0  0.00000000000E+00  0.00000000000E+00  0.52531259244E+03  0.52531259244E+03  0.00000000000E+00 0. -1.
          1   -1    0    0  501    0 -0.00000000000E+00 -0.00000000000E+00 -0.67867239321E+02  0.67867239321E+02  0.00000000000E+00 0. -1.
         25    2    1    2    0    0 -0.12845909800E+02 -0.30096761237E+01  0.21894748908E+03  0.25245134543E+03  0.12497841127E+03 0.  0.
          2    1    1    2  501    0  0.34634215147E+02  0.13335325626E+02 -0.43796455010E+02  0.57406351912E+02  0.00000000000E+00 0. -1.
          1    1    1    2  502    0 -0.21788305347E+02 -0.10325649502E+02  0.28229431904E+03  0.28332213442E+03  0.00000000000E+00 0. -1.
         22    1    3    3    0    0 -0.67909502173E+02 -0.12854288647E+02  0.13335904872E+03  0.15020509012E+03  0.00000000000E+00 0. -1.
         22    1    3    3    0    0  0.55063592373E+02  0.98446125233E+01  0.85588440358E+02  0.10224625530E+03  0.00000000000E+00 0. -1.
</event>
<event>
 7    1  0.5854318E-006  0.3367479E+02  0.7818608E-02  0.1631923E+00
          2   -1    0    0  502    0  0.00000000000E+00  0.00000000000E+00  0.51100530905E+03  0.51100530905E+03  0.00000000000E+00 0. -1.
          1   -1    0    0  501    0 -0.00000000000E+00 -0.00000000000E+00 -0.76457049799E+02  0.76457049799E+02  0.00000000000E+00 0. -1.
         25    2    1    2    0    0  0.59887699094E+01 -0.15804519046E+02  0.11018502962E+03  0.16749728341E+03  0.12501580304E+03 0.  0.
          2    1    1    2  501    0 -0.27167300571E+02  0.21332175193E+02 -0.41190477293E+02  0.53756667851E+02  0.00000000000E+00 0. -1.
          1    1    1    2  502    0  0.21178530661E+02 -0.55276561478E+01  0.36555370693E+03  0.36620840759E+03  0.00000000000E+00 0. -1.
         22    1    3    3    0    0 -0.57761473462E+02 -0.10259005459E+02  0.33267521640E+02  0.67441552514E+02  0.00000000000E+00 0.  1.
         22    1    3    3    0    0  0.63750243371E+02 -0.55455135864E+01  0.76917507976E+02  0.10005573089E+03  0.00000000000E+00 0.  1.
</event>
<event>
 7    1  0.5854318E-006  0.2062216E+03  0.7818608E-02  0.1176233E+00
          2   -1    0    0  502    0  0.00000000000E+00  0.00000000000E+00  0.41869441820E+04  0.41869441820E+04  0.00000000000E+00 0. -1.
          1   -1    0    0  501    0 -0.00000000000E+00 -0.00000000000E+00 -0.10043754876E+04  0.10043754876E+04  0.00000000000E+00 0. -1.
         25    2    1    2    0    0 -0.72786934952E+02 -0.31422366934E+02  0.58133250535E+02  0.15902996525E+03  0.12500300791E+03 0.  0.
          2    1    1    2  501    0  0.19266323265E+03  0.10887315243E+03 -0.93982326983E+03  0.96552589973E+03  0.00000000000E+00 0. -1.
          1    1    1    2  502    0 -0.11987629770E+03 -0.77450785493E+02  0.40642587136E+04  0.40667638046E+04  0.00000000000E+00 0. -1.
         22    1    3    3    0    0  0.28056836789E+02 -0.39489321139E+01  0.45704586325E+02  0.53774430416E+02  0.00000000000E+00 0.  1.
         22    1    3    3    0    0 -0.10084377174E+03 -0.27473434820E+02  0.12428664211E+02  0.10525553484E+03  0.00000000000E+00 0.  1.
</event>
<event>
 7    1  0.5854318E-006  0.4284169E+02  0.7818608E-02  0.1528009E+00
          2   -1    0    0  502    0  0.00000000000E+00  0.00000000000E+00  0.52381780987E+03  0.52381780987E+03  0.00000000000E+00 0. -1.
          1   -1    0    0  501    0 -0.00000000000E+00 -0.00000000000E+00 -0.30230614750E+03  0.30230614750E+03  0.00000000000E+00 0. -1.
         25    2    1    2    0    0  0.43692980859E+02  0.46647127753E+02 -0.33281629366E+02  0.14428505246E+03  0.12500191361E+03 0.  0.
          2    1    1    2  501    0 -0.32234777720E+02 -0.55250148098E+01 -0.21128930220E+03  0.21380546277E+03  0.00000000000E+00 0. -1.
          1    1    1    2  502    0 -0.11458203139E+02 -0.41122112944E+02  0.46608259394E+03  0.46803344214E+03  0.00000000000E+00 0. -1.
         22    1    3    3    0    0 -0.27095196095E+01  0.61407004998E+02  0.26709756049E+02  0.67019197456E+02  0.00000000000E+00 0. -1.
         22    1    3    3    0    0  0.46402500469E+02 -0.14759877245E+02 -0.59991385415E+02  0.77265855008E+02  0.00000000000E+00 0. -1.
</event>
<event>
 7    1  0.5854318E-006  0.5703752E+02  0.7818608E-02  0.1467680E+00
          2   -1    0    0  502    0  0.00000000000E+00  0.00000000000E+00  0.65249850833E+02  0.65249850833E+02  0.00000000000E+00 0. -1.
          1   -1    0    0  501    0 -0.00000000000E+00 -0.00000000000E+00 -0.14387460813E+04  0.14387460813E+04  0.00000000000E+00 0. -1.
         25    2    1    2    0    0  0.66384707947E+01  0.68739836990E+02 -0.82115564873E+03  0.83348104315E+03  0.12499926141E+03 0.  0.
          2    1    1    2  501    0  0.28562376220E+02 -0.23888739760E+02 -0.59695736510E+03  0.59811752773E+03  0.00000000000E+00 0. -1.
          1    1    1    2  502    0 -0.35200847015E+02 -0.44851097231E+02  0.44616783395E+02  0.72397361235E+02  0.00000000000E+00 0. -1.
         22    1    3    3    0    0  0.45451280010E+02  0.84726413991E+02 -0.46327112706E+03  0.47314323545E+03  0.00000000000E+00 0.  1.
         22    1    3    3    0    0 -0.38812809216E+02 -0.15986577001E+02 -0.35788452168E+03  0.36033780770E+03  0.00000000000E+00 0.  1.
</event>
<event>
 7    1  0.5854318E-006  0.6365083E+02  0.7818608E-02  0.1408201E+00
          2   -1    0    0  502    0  0.00000000000E+00  0.00000000000E+00  0.22122291866E+04  0.22122291866E+04  0.00000000000E+00 0. -1.
          1   -1    0    0  501    0 -0.00000000000E+00 -0.00000000000E+00 -0.30013102132E+03  0.30013102132E+03  0.00000000000E+00 0. -1.
         25    2    1    2    0    0  0.49804337808E+02  0.69769348037E+02  0.12209219025E+04  0.12302940596E+04  0.12499978811E+03 0.  0.
          2    1    1    2  501    0  0.19493896966E+01 -0.63608015287E+02 -0.29131934831E+03  0.29818910515E+03  0.00000000000E+00 0. -1.
          1    1    1    2  502    0 -0.51753727505E+02 -0.61613327506E+01  0.98249561104E+03  0.98387704315E+03  0.00000000000E+00 0. -1.
         22    1    3    3    0    0  0.59780432158E+02  0.98537452966E+02  0.79831961585E+03  0.80659626750E+03  0.00000000000E+00 0. -1.
         22    1    3    3    0    0 -0.99760943501E+01 -0.28768104929E+02  0.42260228667E+03  0.42369779208E+03  0.00000000000E+00 0. -1.
</event>
<event>
 7    1  0.5854318E-006  0.5191185E+03  0.7818608E-02  0.1101042E+00
          2   -1    0    0  502    0  0.00000000000E+00  0.00000000000E+00  0.15252714895E+04  0.15252714895E+04  0.00000000000E+00 0. -1.
          1   -1    0    0  501    0 -0.00000000000E+00 -0.00000000000E+00 -0.63264159200E+03  0.63264159200E+03  0.00000000000E+00 0. -1.
         25    2    1    2    0    0  0.59609459581E+03  0.17109883428E+03  0.19128111007E+03  0.66092384244E+03  0.12501313606E+03 0.  0.
          2    1    1    2  501    0 -0.45540594854E+03 -0.16408460658E+03 -0.24338830939E+03  0.54180827350E+03  0.00000000000E+00 0. -1.
          1    1    1    2  502    0 -0.14068864727E+03 -0.70142277017E+01  0.94473709686E+03  0.95518096560E+03  0.00000000000E+00 0. -1.
         22    1    3    3    0    0  0.37567366324E+03  0.60032111940E+02  0.15769117655E+03  0.41182649608E+03  0.00000000000E+00 0. -1.
         22    1    3    3    0    0  0.22042093257E+03  0.11106672234E+03  0.33589933522E+02  0.24909734636E+03  0.00000000000E+00 0. -1.
</event>
<event>
 7    1  0.5854318E-006  0.8149606E+02  0.7818608E-02  0.1422348E+00
          2   -1    0    0  502    0  0.00000000000E+00  0.00000000000E+00  0.45385713722E+02  0.45385713722E+02  0.00000000000E+00 0. -1.
          1   -1    0    0  501    0 -0.00000000000E+00 -0.00000000000E+00 -0.62758553511E+03  0.62758553511E+03  0.00000000000E+00 0. -1.
         25    2    1    2    0    0  0.51941901377E+02 -0.36708694950E+02 -0.23239492443E+03  0.27143680915E+03  0.12500020423E+03 0.  0.
          2    1    1    2  501    0  0.33391590319E+02  0.14697185780E+02 -0.29608718975E+03  0.29832638084E+03  0.00000000000E+00 0. -1.
          1    1    1    2  502    0 -0.85333491695E+02  0.22011509171E+02 -0.53717707210E+02  0.10320805884E+03  0.00000000000E+00 0. -1.
         22    1    3    3    0    0  0.61894672622E+02 -0.20381111511E+02 -0.36656466689E+02  0.74766548372E+02  0.00000000000E+00 0.  1.
         22    1    3    3    0    0 -0.99527712451E+01 -0.16327583439E+02 -0.19573845774E+03  0.19667026078E+03  0.00000000000E+00 0.  1.
</event>
<event>
 7    1  0.5854318E-006  0.1273712E+03  0.7818608E-02  0.1348010E+00
          2   -1    0    0  502    0  0.00000000000E+00  0.00000000000E+00  0.18337133352E+04  0.18337133352E+04  0.00000000000E+00 0. -1.
          1   -1    0    0  501    0 -0.00000000000E+00 -0.00000000000E+00 -0.96065903995E+03  0.96065903995E+03  0.00000000000E+00 0. -1.
         25    2    1    2    0    0  0.14484180617E+03 -0.21888302858E+02  0.76017451975E+03  0.78418622297E+03  0.12499794081E+03 0.  0.
          2    1    1    2  501    0 -0.32437828033E+02 -0.27646435833E+02 -0.94461763048E+03  0.94557866194E+03  0.00000000000E+00 0. -1.
          1    1    1    2  502    0 -0.11240397813E+03  0.49534738691E+02  0.10574974059E+04  0.10646074902E+04  0.00000000000E+00 0. -1.
         22    1    3    3    0    0  0.23976655522E+01  0.12446797320E+01  0.33832765418E+03  0.33833843945E+03  0.00000000000E+00 0.  1.
         22    1    3    3    0    0  0.14244414061E+03 -0.23132982590E+02  0.42184686557E+03  0.44584778352E+03  0.00000000000E+00 0.  1.
</event>
<event>
 7    1  0.5854318E-006  0.1088491E+03  0.7818608E-02  0.1337715E+00
          2   -1    0    0  502    0  0.00000000000E+00  0.00000000000E+00  0.27182987075E+03  0.27182987075E+03  0.00000000000E+00 0. -1.
          1   -1    0    0  501    0 -0.00000000000E+00 -0.00000000000E+00 -0.83236376424E+03  0.83236376424E+03  0.00000000000E+00 0. -1.
         25    2    1    2    0    0  0.17127465950E+02 -0.13750547208E+03 -0.82247017322E+01  0.18681239271E+03  0.12502047597E+03 0.  0.
          2    1    1    2  501    0 -0.41723440318E+02  0.35069513776E+02 -0.71852679209E+03  0.72059105408E+03  0.00000000000E+00 0. -1.
          1    1    1    2  502    0  0.24595974367E+02  0.10243595830E+03  0.16621760034E+03  0.19679018820E+03  0.00000000000E+00 0. -1.
         22    1    3    3    0    0  0.25511015119E+02 -0.40731664924E+02 -0.59890679389E+02  0.76790454469E+02  0.00000000000E+00 0.  1.
         22    1    3    3    0    0 -0.83835491692E+01 -0.96773807156E+02  0.51665977656E+02  0.11002193825E+03  0.00000000000E+00 0.  1.
</event>
<event>
 7    1  0.5854318E-006  0.1244231E+03  0.7818608E-02  0.1254345E+00
          2   -1    0    0  502    0  0.00000000000E+00  0.00000000000E+00  0.16472625774E+03  0.16472625774E+03  0.00000000000E+00 0. -1.
          1   -1    0    0  501    0 -0.00000000000E+00 -0.00000000000E+00 -0.56117801225E+03  0.56117801225E+03  0.00000000000E+00 0. -1.
         25    2    1    2    0    0  0.12913352873E+03  0.16857089496E+03 -0.17077066619E+03  0.29979858914E+03  0.12499983499E+03 0.  0.
          2    1    1    2  501    0 -0.77141345265E+02 -0.79181609571E+02 -0.28583859526E+03  0.30647058095E+03  0.00000000000E+00 0. -1.
          1    1    1    2  502    0 -0.51992183461E+02 -0.89389285393E+02  0.60157506950E+02  0.11963509989E+03  0.00000000000E+00 0. -1.
         22    1    3    3    0    0  0.10781285751E+03  0.88993839730E+02 -0.40293244132E+02  0.14548904177E+03  0.00000000000E+00 0.  1.
         22    1    3    3    0    0  0.21320671221E+02  0.79577055234E+02 -0.13047742206E+03  0.15430954737E+03  0.00000000000E+00 0.  1.
</event>
<event>
 7    1  0.5854318E-006  0.1333639E+03  0.7818608E-02  0.1287557E+00
          2   -1    0    0  502    0  0.00000000000E+00  0.00000000000E+00  0.50806485421E+03  0.50806485421E+03  0.00000000000E+00 0. -1.
          1   -1    0    0  501    0 -0.00000000000E+00 -0.00000000000E+00 -0.36447098742E+04  0.36447098742E+04  0.00000000000E+00 0. -1.
         25    2    1    2    0    0 -0.20490909335E+02 -0.92011891456E+02  0.22343317117E+03  0.27282879657E+03  0.12500841861E+03 0.  0.
          2    1    1    2  501    0 -0.39827205858E+02  0.12754718489E+03 -0.36140411790E+04  0.36165104913E+04  0.00000000000E+00 0. -1.
          1    1    1    2  502    0  0.60318115193E+02 -0.35535293431E+02  0.25396298784E+03  0.26343544047E+03  0.00000000000E+00 0. -1.
         22    1    3    3    0    0  0.43324683260E+02 -0.37040487074E+02  0.15218165652E+03  0.16250625355E+03  0.00000000000E+00 0. -1.
         22    1    3    3    0    0 -0.63815592595E+02 -0.54971404382E+02  0.71251514651E+02  0.11032254302E+03  0.00000000000E+00 0. -1.
</event>
<event>
 7    1  0.5854318E-006  0.5482550E+02  0.7818608E-02  0.1499491E+00
          2   -1    0    0  502    0  0.00000000000E+00  0.00000000000E+00  0.18264398346E+04  0.18264398346E+04  0.00000000000E+00 0. -1.
          1   -1    0    0  501    0 -0.00000000000E+00 -0.00000000000E+00 -0.21452252613E+03  0.21452252613E+03  0.00000000000E+00 0. -1.
         25    2    1    2    0    0 -0.34356957751E+02 -0.33617450685E+02  0.96522826585E+03  0.97447408291E+03  0.12499439806E+03 0.  0.
          2    1    1    2  501    0  0.54020284524E+02  0.96829984867E+01 -0.20602621763E+03  0.21321058592E+03  0.00000000000E+00 0. -1.
          1    1    1    2  502    0 -0.19663326773E+02  0.23934452198E+02  0.85271526025E+03  0.85327769190E+03  0.00000000000E+00 0. -1.
         22    1    3    3    0    0 -0.66526521484E+02 -0.62036215580E+02  0.66547014562E+03  0.67165823513E+03  0.00000000000E+00 0. -1.
         22    1    3    3    0    0  0.32169563733E+02  0.28418764896E+02  0.29975812023E+03  0.30281584779E+03  0.00000000000E+00 0. -1.
</event>
<event>
 7    1  0.5854318E-006  0.1058255E+03  0.7818608E-02  0.1271881E+00
          2   -1    0    0  502    0  0.00000000000E+00  0.00000000000E+00  0.87739029733E+03  0.87739029733E+03  0.00000000000E+00 0. -1.
          1   -1    0    0  501    0 -0.00000000000E+00 -0.00000000000E+00 -0.16993663505E+04  0.16993663505E+04  0.00000000000E+00 0. -1.
         25    2    1    2    0    0 -0.11858243117E+03 -0.12425001199E+03  0.38037413017E+03  0.43567463276E+03  0.12501219245E+03 0.  0.
          2    1    1    2  501    0  0.10314051368E+03  0.22996265441E+02 -0.16644327623E+04  0.16677839231E+04  0.00000000000E+00 0. -1.
          1    1    1    2  502    0  0.15441917492E+02  0.10125374655E+03  0.46208257903E+03  0.47329809195E+03  0.00000000000E+00 0. -1.
         22    1    3    3    0    0 -0.12707065979E+02  0.25541462719E+02  0.61768226543E+02  0.68037854565E+02  0.00000000000E+00 0. -1.
         22    1    3    3    0    0 -0.10587536519E+03 -0.14979147471E+03  0.31860590363E+03  0.36763677819E+03  0.00000000000E+00 0. -1.
</event>
<event>
 7    1  0.8052168E-006  0.6941244E+02  0.7818608E-02  0.1453893E+00
          2   -1    0    0  502    0  0.00000000000E+00  0.00000000000E+00  0.17288828168E+04  0.17288828168E+04  0.00000000000E+00 0. -1.
          1   -1    0    0  501    0 -0.00000000000E+00 -0.00000000000E+00 -0.77474345495E+03  0.77474345495E+03  0.00000000000E+00 0. -1.
         25    2    1    2    0    0 -0.36304402648E+02 -0.60250731369E+01 -0.36759074110E+03  0.39000402097E+03  0.12500348905E+03 0.  0.
          2    1    1    2  501    0 -0.33167231246E+02  0.65938346992E+01 -0.39451996714E+03  0.39596660005E+03  0.00000000000E+00 0. -1.
          1    1    1    2  502    0  0.69471633894E+02 -0.56876156227E+00  0.17162500700E+04  0.17176556507E+04  0.00000000000E+00 0. -1.
         22    1    3    3    0    0 -0.44111096624E+02 -0.17006924359E+02 -0.39413702099E+02  0.61550501498E+02  0.00000000000E+00 0.  1.
         22    1    3    3    0    0  0.78066939765E+01  0.10981851222E+02 -0.32817703900E+03  0.32845351947E+03  0.00000000000E+00 0.  1.
</event>
<event>
 7    1  0.5854318E-006  0.1003334E+03  0.7818608E-02  0.1352477E+00
          2   -1    0    0  502    0  0.00000000000E+00  0.00000000000E+00  0.71266389722E+03  0.71266389722E+03  0.00000000000E+00 0. -1.
          1   -1    0    0  501    0 -0.00000000000E+00 -0.00000000000E+00 -0.33024713690E+03  0.33024713690E+03  0.00000000000E+00 0. -1.
         25    2    1    2    0    0  0.68664993044E+02  0.12620343576E+03  0.30332371736E+02  0.19283768434E+03  0.12499652499E+03 0.  0.
          2    1    1    2  501    0 -0.42444476763E+01 -0.51910675862E+02 -0.24218556345E+03  0.24772279013E+03  0.00000000000E+00 0. -1.
          1    1    1    2  502    0 -0.64420545368E+02 -0.74292759895E+02  0.59426995203E+03  0.60235055966E+03  0.00000000000E+00 0. -1.
         22    1    3    3    0    0  0.94172056934E+02  0.11975851547E+03  0.49608271508E+02  0.16022315356E+03  0.00000000000E+00 0.  1.
         22    1    3    3    0    0 -0.25507063890E+02  0.64449202851E+01 -0.19275899773E+02  0.32614530777E+02  0.00000000000E+00 0.  1.
</event>
<event>
 7    1  0.5854318E-006  0.7750227E+02  0.7818608E-02  0.1336993E+00
          2   -1    0    0  502    0  0.00000000000E+00  0.00000000000E+00  0.22167284181E+04  0.22167284181E+04  0.00000000000E+00 0. -1.
          1   -1    0    0  501    0 -0.00000000000E+00 -0.00000000000E+00 -0.50621451914E+02  0.50621451914E+02  0.00000000000E+00 0. -1.
         25    2    1    2    0    0  0.74280037925E+02  0.52920839329E+02  0.32024233526E+03  0.35566501600E+03  0.12499724415E+03 0.  0.
          2    1    1    2  501    0  0.45019918787E+00 -0.77030001345E+02  0.14189406331E+02  0.78327281572E+02  0.00000000000E+00 0. -1.
          1    1    1    2  502    0 -0.74730237113E+02  0.24109162016E+02  0.18316752246E+04  0.18333575725E+04  0.00000000000E+00 0. -1.
         22    1    3    3    0    0  0.52653501157E+02  0.90308425820E+02  0.26929322477E+03  0.28887167370E+03  0.00000000000E+00 0.  1.
         22    1    3    3    0    0  0.21626536768E+02 -0.37387586491E+02  0.50949110489E+02  0.66793342302E+02  0.00000000000E+00 0.  1.
</event>
<event>
 7    1  0.5854318E-006  0.1243971E+03  0.7818608E-02  0.1342087E+00
          2   -1    0    0  502    0  0.00000000000E+00  0.00000000000E+00  0.25745313102E+04  0.25745313102E+04  0.00000000000E+00 0. -1.
          1   -1    0    0  501    0 -0.00000000000E+00 -0.00000000000E+00 -0.29791139184E+02  0.29791139184E+02  0.00000000000E+00 0. -1.
         25    2    1    2    0    0 -0.15386389481E+03 -0.22086214343E+02  0.11410776109E+04  0.11583804814E+04  0.12500130599E+03 0.  0.
          2    1    1    2  501    0  0.11983107123E+03 -0.87410520724E+01  0.15347517495E+03  0.19491157213E+03  0.00000000000E+00 0. -1.
          1    1    1    2  502    0  0.34032823581E+02  0.30827266416E+02  0.12501873852E+04  0.12510303959E+04  0.00000000000E+00 0. -1.
         22    1    3    3    0    0 -0.81155589712E+02  0.17225790184E+02  0.24848431792E+03  0.26196834511E+03  0.00000000000E+00 0. -1.
         22    1    3    3    0    0 -0.72708305101E+02 -0.39312004527E+02  0.89259329300E+03  0.89641213626E+03  0.00000000000E+00 0. -1.
</event>
<event>
 7    1  0.5854318E-006  0.5221284E+02  0.7818608E-02  0.1482080E+00
          2   -1    0    0  502    0  0.00000000000E+00  0.00000000000E+00  0.62204203233E+03  0.62204203233E+03  0.00000000000E+00 0. -1.
          1   -1    0    0  501    0 -0.00000000000E+00 -0.00000000000E+00 -0.37128416388E+02  0.37128416388E+02  0.00000000000E+00 0. -1.
         25    2    1    2    0    0 -0.53354809173E+02 -0.13536851849E+02  0.17526956020E+03  0.22220522752E+03  0.12500304951E+03 0.  0.
          2    1    1    2  501    0  0.32266149763E+02  0.43591872978E+02  0.44985907872E+02  0.70463378555E+02  0.00000000000E+00 0. -1.
          1    1    1    2  502    0  0.21088659409E+02 -0.30055021128E+02  0.36465814787E+03  0.36650184264E+03  0.00000000000E+00 0. -1.
         22    1    3    3    0    0 -0.52613090382E+02 -0.46274883346E+02  0.17601676933E+03  0.18945027103E+03  0.00000000000E+00 0. -1.
         22    1    3    3    0    0 -0.74171879020E+00  0.32738031496E+02 -0.74720913541E+00  0.32754956488E+02  0.00000000000E+00 0. -1.
</event>
<event>
 7    1  0.5854318E-006  0.1526142E+03  0.7818608E-02  0.1202965E+00
          2   -1    0    0  502    0  0.00000000000E+00  0.00000000000E+00  0.24971043515E+04  0.24971043515E+04  0.00000000000E+00 0. -1.
          1   -1    0    0  501    0 -0.00000000000E+00 -0.00000000000E+00 -0.57763299938E+03  0.57763299938E+03  0.00000000000E+00 0. -1.
         25    2    1    2    0    0 -0.25705759277E+02 -0.13787599467E+02  0.14069099443E+03  0.19044248608E+03  0.12499400239E+03 0.  0.
          2    1    1    2  501    0 -0.64186217988E+02 -0.12835073254E+03 -0.54034656383E+03  0.55907798219E+03  0.00000000000E+00 0. -1.
          1    1    1    2  502    0  0.89891977265E+02  0.14213833201E+03  0.23191269215E+04  0.23252168826E+04  0.00000000000E+00 0. -1.
         22    1    3    3    0    0 -0.57027690345E+02 -0.38458124803E+02  0.13314663415E+03  0.14986397504E+03  0.00000000000E+00 0.  1.
         22    1    3    3    0    0  0.31321931068E+02  0.24670525336E+02  0.75443602751E+01  0.40578511039E+02  0.00000000000E+00 0.  1.
</event>
<event>
 7    1  0.5854318E-006  0.6416891E+02  0.7818608E-02  0.1408843E+00
          2   -1    0    0  502    0  0.00000000000E+00  0.00000000000E+00  0.22695648740E+04  0.22695648740E+04  0.00000000000E+00 0. -1.
          1   -1    0    0  501    0 -0.00000000000E+00 -0.00000000000E+00 -0.21346070281E+03  0.21346070281E+03  0.00000000000E+00 0. -1.
         25    2    1    2    0    0  0.24856851001E+02 -0.19210686653E+02  0.73055811065E+03  0.74183991855E+03  0.12499759277E+03 0.  0.
          2    1    1    2  501    0 -0.62494172855E+02 -0.15853253931E+02 -0.20237599341E+03  0.21239795199E+03  0.00000000000E+00 0. -1.
          1    1    1    2  502    0  0.37637321854E+02  0.35063940585E+02  0.15279220539E+04  0.15287877063E+04  0.00000000000E+00 0. -1.
         22    1    3    3    0    0  0.32472984464E+02 -0.54435714171E+02  0.65571890106E+03  0.65877539336E+03  0.00000000000E+00 0. -1.
         22    1    3    3    0    0 -0.76161334637E+01  0.35225027517E+02  0.74839209594E+02  0.83064525190E+02  0.00000000000E+00 0. -1.
</event>
<event>
 7    1  0.5854318E-006  0.7761295E+02  0.7818608E-02  0.1339843E+00
          2   -1    0    0  502    0  0.00000000000E+00  0.00000000000E+00  0.18228257590E+04  0.18228257590E+04  0.00000000000E+00 0. -1.
          1   -1    0    0  501    0 -0.00000000000E+00 -0.00000000000E+00 -0.73479453210E+03  0.73479453210E+03  0.00000000000E+00 0. -1.
         25    2    1    2    0    0  0.29874523554E+02 -0.18385418475E+02  0.16542376548E+03  0.21028754493E+03  0.12500127439E+03 0.  0.
          2    1    1    2  501    0 -0.54270354945E+02 -0.55484213283E+02 -0.70931929792E+03  0.71355282618E+03  0.00000000000E+00 0. -1.
          1    1    1    2  502    0  0.24395831391E+02  0.73869631758E+02  0.16319267593E+04  0.16337799200E+04  0.00000000000E+00 0. -1.
         22    1    3    3    0    0  0.46567654220E+02 -0.22848262053E+02  0.86774793549E+01  0.52591711765E+02  0.00000000000E+00 0. -1.
         22    1    3    3    0    0 -0.16693130666E+02  0.44628435776E+01  0.15674628613E+03  0.15769583317E+03  0.00000000000E+00 0. -1.
</event>
<event>
 7    1  0.5854318E-006  0.9874137E+02  0.7818608E-02  0.1406336E+00
          2   -1    0    0  502    0  0.00000000000E+00  0.00000000000E+00  0.83587170516E+03  0.83587170516E+03  0.00000000000E+00 0. -1.
          1   -1    0    0  501    0 -0.00000000000E+00 -0.00000000000E+00 -0.45370209347E+03  0.45370209347E+03  0.00000000000E+00 0. -1.
         25    2    1    2    0    0 -0.12187935779E+03 -0.28694238449E+02 -0.16309616791E+03  0.24063166602E+03  0.12500120609E+03 0.  0.
          2    1    1    2  501    0  0.32091629891E+02 -0.11505218168E+02 -0.24763055638E+03  0.24996626814E+03  0.00000000000E+00 0. -1.
          1    1    1    2  502    0  0.89787727903E+02  0.40199456616E+02  0.79289633599E+03  0.79897586448E+03  0.00000000000E+00 0. -1.
         22    1    3    3    0    0 -0.10213414259E+03 -0.51141723829E+02 -0.51853408757E+02  0.12544175939E+03  0.00000000000E+00 0.  1.
         22    1    3    3    0    0 -0.19745215200E+02  0.22447485380E+02 -0.11124275916E+03  0.11518990662E+03  0.00000000000E+00 0.  1.
</event>
<event>
 7    1  0.5854318E-006  0.3521115E+02  0.7818608E-02  0.1595132E+00
          2   -1    0    0  502    0  0.00000000000E+00  0.00000000000E+00  0.93849300639E+03  0.93849300639E+03  0.00000000000E+00 0. -1.
          1   -1    0    0  501    0 -0.00000000000E+00 -0.00000000000E+00 -0.75790069084E+02  0.75790069084E+02  0.00000000000E+00 0. -1.
         25    2    1    2    0    0 -0.38353558053E+01 -0.16964440001E+02  0.12071843024E+03  0.17464334603E+03  0.12499942694E+03 0.  0.
          2    1    1    2  501    0  0.22296493988E+02 -0.13414669969E+02 -0.44930894047E+02  0.51921789784E+02  0.00000000000E+00 0. -1.
          1    1    1    2  502    0 -0.18461138183E+02  0.30379109970E+02  0.78691540112E+03  0.78771793966E+03  0.00000000000E+00 0. -1.
         22    1    3    3    0    0 -0.16810788440E+01 -0.19183305325E+01 -0.26509992260E+02  0.26632418361E+02  0.00000000000E+00 0.  1.
         22    1    3    3    0    0 -0.21542769613E+01 -0.15046109469E+02  0.14722842250E+03  0.14801092767E+03  0.00000000000E+00 0.  1.
</event>
<event>
 7    1  0.5854318E-006  0.7817479E+02  0.7818608E-02  0.1345563E+00
          2   -1    0    0  502    0  0.00000000000E+00  0.00000000000E+00  0.98288415586E+03  0.98288415586E+03  0.00000000000E+00 0. -1.
          1   -1    0    0  501    0 -0.00000000000E+00 -0.00000000000E+00 -0.11710295106E+04  0.11710295106E+04  0.00000000000E+00 0. -1.
         25    2    1    2    0    0  0.96502632042E+02  0.90136784899E+02  0.43117107708E+03  0.46794332385E+03  0.12500023455E+03 0.  0.
          2    1    1    2  501    0 -0.27695682763E+02 -0.72977083042E+02 -0.11489560389E+04  0.11516043960E+04  0.00000000000E+00 0. -1.
          1    1    1    2  502    0 -0.68806949279E+02 -0.17159701857E+02  0.52963960703E+03  0.53436594668E+03  0.00000000000E+00 0. -1.
         22    1    3    3    0    0  0.10077755402E+03  0.77676644093E+02  0.20425177810E+03  0.24064198571E+03  0.00000000000E+00 0.  1.
         22    1    3    3    0    0 -0.42749219734E+01  0.12460140806E+02  0.22691929898E+03  0.22730133814E+03  0.00000000000E+00 0.  1.
</event>
<event>
 7    1  0.5854318E-006  0.1518477E+03  0.7818608E-02  0.1363290E+00
          2   -1    0    0  502    0  0.00000000000E+00  0.00000000000E+00  0.44964373289E+03  0.44964373289E+03  0.00000000000E+00 0. -1.
          1   -1    0    0  501    0 -0.00000000000E+00 -0.00000000000E+00 -0.12684449737E+04  0.12684449737E+04  0.00000000000E+00 0. -1.
         25    2    1    2    0    0  0.41998864477E+02  0.16096725512E+03  0.26691009868E+03  0.33844756316E+03  0.12502555896E+03 0.  0.
          2    1    1    2  501    0 -0.20570785948E+02 -0.23744500176E+02 -0.11996119385E+04  0.12000232337E+04  0.00000000000E+00 0. -1.
          1    1    1    2  502    0 -0.21428078529E+02 -0.13722275494E+03  0.11390059902E+03  0.17961790968E+03  0.00000000000E+00 0. -1.
         22    1    3    3    0    0  0.77933449727E+02  0.71957788910E+02  0.18015335731E+03  0.20906166105E+03  0.00000000000E+00 0. -1.
         22    1    3    3    0    0 -0.35934585250E+02  0.89009466205E+02  0.86756741377E+02  0.12938590211E+03  0.00000000000E+00 0. -1.
</event>
<event>
 7    1  0.5854318E-006  0.1750235E+03  0.7818608E-02  0.1224463E+00
          2   -1    0    0  502    0  0.00000000000E+00  0.00000000000E+00  0.17813893814E+04  0.17813893814E+04  0.00000000000E+00 0. -1.
          1   -1    0    0  501    0 -0.00000000000E+00 -0.00000000000E+00 -0.62385260024E+02  0.62385260024E+02  0.00000000000E+00 0. -1.
         25    2    1    2    0    0 -0.81756071509E+02  0.79621485615E+02  0.79000424085E+03  0.80793338162E+03  0.12500404945E+03 0.  0.
          2    1    1    2  501    0  0.68281768721E+02 -0.17831500078E+03  0.13079036891E+03  0.23144061882E+03  0.00000000000E+00 0. -1.
          1    1    1    2  502    0  0.13474302789E+02  0.98693515162E+02  0.79820951165E+03  0.80440064101E+03  0.00000000000E+00 0. -1.
         22    1    3    3    0    0  0.20828589432E+02  0.59224297820E+01  0.33565128620E+03  0.33634906160E+03  0.00000000000E+00 0. -1.
         22    1    3    3    0    0 -0.10258466094E+03  0.73699055833E+02  0.45435295464E+03  0.47158432001E+03  0.00000000000E+00 0. -1.
</event>
<event>
 7    1  0.5854318E-006  0.6976217E+02  0.7818608E-02  0.1465871E+00
          2   -1    0    0  502    0  0.00000000000E+00  0.00000000000E+00  0.81093472374E+02  0.81093472374E+02  0.00000000000E+00 0. -1.
          1   -1    0    0  501    0 -0.00000000000E+00 -0.00000000000E+00 -0.48200673443E+03  0.48200673443E+03  0.00000000000E+00 0. -1.
         25    2    1    2    0    0 -0.59058238885E+02  0.20447979674E+02 -0.12224926479E+03  0.18567684209E+03  0.12500004598E+03 0.  0.
          2    1    1    2  501    0  0.70900771114E+02  0.80304628141E+01 -0.31886660779E+03  0.32675269125E+03  0.00000000000E+00 0. -1.
          1    1    1    2  502    0 -0.11842532229E+02 -0.28478442488E+02  0.40202610520E+02  0.50670673459E+02  0.00000000000E+00 0. -1.
         22    1    3    3    0    0  0.36755469977E+02  0.22783729737E+02 -0.46622675538E+02  0.63590382829E+02  0.00000000000E+00 0.  1.
         22    1    3    3    0    0 -0.95813708862E+02 -0.23357500631E+01 -0.75626589249E+02  0.12208645926E+03  0.00000000000E+00 0.  1.
</event>
<event>
 7    1  0.5854318E-006  0.2171548E+03  0.7818608E-02  0.1315945E+00
          2   -1    0    0  502    0  0.00000000000E+00  0.00000000000E+00  0.13646711461E+04  0.13646711461E+04  0.00000000000E+00 0. -1.
          1   -1    0    0  501    0 -0.00000000000E+00 -0.00000000000E+00 -0.66281278401E+03  0.66281278401E+03  0.00000000000E+00 0. -1.
         25    2    1    2    0    0  0.19787543940E+03  0.83032293896E+02  0.29483323224E+03  0.38548818657E+03  0.12500182322E+03 0.  0.
          2    1    1    2  501    0 -0.18534322436E+03 -0.11368764151E+03 -0.59806317166E+03  0.63636196299E+03  0.00000000000E+00 0. -1.
          1    1    1    2  502    0 -0.12532215042E+02  0.30655347612E+02  0.10050883015E+04  0.10056337805E+04  0.00000000000E+00 0. -1.
         22    1    3    3    0    0  0.54344144977E+02 -0.56400947929E+01  0.11661326608E+02  0.55866656431E+02  0.00000000000E+00 0. -1.
         22    1    3    3    0    0  0.14353129442E+03  0.88672388689E+02  0.28317190563E+03  0.32962153014E+03  0.00000000000E+00 0. -1.
</event>
<event>
 7    1  0.5854318E-006  0.6535047E+02  0.7818608E-02  0.1500103E+00
          2   -1    0    0  502    0  0.00000000000E+00  0.00000000000E+00  0.11025651918E+04  0.11025651918E+04  0.00000000000E+00 0. -1.
          1   -1    0    0  501    0 -0.00000000000E+00 -0.00000000000E+00 -0.42270549877E+02  0.42270549877E+02  0.00000000000E+00 0. -1.
         25    2    1    2    0    0  0.20612377912E+02  0.47546916539E+02  0.29123210052E+03  0.32111728347E+03  0.12495836896E+03 0.  0.
          2    1    1    2  501    0  0.25871055968E+02  0.60257693747E+00 -0.19448953246E+02  0.32371846074E+02  0.00000000000E+00 0. -1.
          1    1    1    2  502    0 -0.46483433881E+02 -0.48149493477E+02  0.78851149470E+03  0.79134661218E+03  0.00000000000E+00 0. -1.
         22    1    3    3    0    0 -0.26660393955E+02  0.74264626402E+02  0.14416504351E+03  0.16434588863E+03  0.00000000000E+00 0.  1.
         22    1    3    3    0    0  0.47272771868E+02 -0.26717709863E+02  0.14706705701E+03  0.15677139484E+03  0.00000000000E+00 0.  1.
</event>
<event>
 7    1  0.5854318E-006  0.7647735E+02  0.7818608E-02  0.1471358E+00
          2   -1    0    0  502    0  0.00000000000E+00  0.00000000000E+00  0.14729213471E+04  0.14729213471E+04  0.00000000000E+00 0. -1.
          1   -1    0    0  501    0 -0.00000000000E+00 -0.00000000000E+00 -0.38297626261E+03  0.38297626261E+03  0.00000000000E+00 0. -1.
         25    2    1    2    0    0  0.50416298959E+02 -0.31754199582E+02  0.75345662748E+03  0.76607535836E+03  0.12499773116E+03 0.  0.
          2    1    1    2  501    0 -0.74211405121E+02  0.18893580440E+02 -0.37251412332E+03  0.38030392071E+03  0.00000000000E+00 0. -1.
          1    1    1    2  502    0  0.23795106162E+02  0.12860619143E+02  0.70900258038E+03  0.70951833069E+03  0.00000000000E+00 0. -1.
         22    1    3    3    0    0 -0.26609913668E+02 -0.96890877122E+00  0.46940579003E+03  0.47016042156E+03  0.00000000000E+00 0.  1.
         22    1    3    3    0    0  0.77026212627E+02 -0.30785290811E+02  0.28405083745E+03  0.29591493679E+03  0.00000000000E+00 0.  1.
</event>
<event>
 7    1  0.5854318E-006  0.9108875E+02  0.7818608E-02  0.1395097E+00
          2   -1    0    0  502    0  0.00000000000E+00  0.00000000000E+00  0.68434708833E+03  0.68434708833E+03  0.00000000000E+00 0. -1.
          1   -1    0    0  501    0 -0.00000000000E+00 -0.00000000000E+00 -0.15281002454E+04  0.15281002454E+04  0.00000000000E+00 0. -1.
         25    2    1    2    0    0  0.56468822246E+02  0.30209722221E+02 -0.47913487010E+02  0.14839918373E+03  0.12500104117E+03 0.  0.
          2    1    1    2  501    0  0.28975533261E+01  0.40287519089E+02 -0.14263075863E+04  0.14268793960E+04  0.00000000000E+00 0. -1.
          1    1    1    2  502    0 -0.59366375573E+02 -0.70497241311E+02  0.63046791627E+03  0.63716875396E+03  0.00000000000E+00 0. -1.
         22    1    3    3    0    0  0.76770706858E+02  0.62264732519E+02 -0.49241667105E+02  0.11043269501E+03  0.00000000000E+00 0.  1.
         22    1    3    3    0    0 -0.20301884611E+02 -0.32055010298E+02  0.13281800951E+01  0.37966488728E+02  0.00000000000E+00 0.  1.
</event>
<event>
 7    1  0.5854318E-006  0.1553159E+03  0.7818608E-02  0.1294270E+00
          2   -1    0    0  502    0  0.00000000000E+00  0.00000000000E+00  0.32304704095E+04  0.32304704095E+04  0.00000000000E+00 0. -1.
          1   -1    0    0  501    0 -0.00000000000E+00 -0.00000000000E+00 -0.89346391197E+03  0.89346391197E+03  0.00000000000E+00 0. -1.
         25    2    1    2    0    0  0.17508966342E+03 -0.93749198304E+02  0.31412169716E+03  0.39210095739E+03  0.12500167097E+03 0.  0.
          2    1    1    2  501    0 -0.56368593973E+02 -0.31264698486E+01 -0.85149885603E+03  0.85336832319E+03  0.00000000000E+00 0. -1.
          1    1    1    2  502    0 -0.11872106944E+03  0.96875668153E+02  0.28743836564E+04  0.28784650409E+04  0.00000000000E+00 0. -1.
         22    1    3    3    0    0  0.17630865342E+03 -0.11546717554E+03  0.29813780355E+03  0.36510760031E+03  0.00000000000E+00 0.  1.
         22    1    3    3    0    0 -0.12189899988E+01  0.21717977237E+02  0.15983893607E+02  0.26993357085E+02  0.00000000000E+00 0.  1.
</event>
<event>
 7    1  0.5854318E-006  0.8374443E+02  0.7818608E-02  0.1438364E+00
          2   -1    0    0  502    0  0.00000000000E+00  0.00000000000E+00  0.11871384701E+03  0.11871384701E+03  0.00000000000E+00 0. -1.
          1   -1    0    0  501    0 -0.00000000000E+00 -0.00000000000E+00 -0.39432560713E+03  0.39432560713E+03  0.00000000000E+00 0. -1.
         25    2    1    2    0    0 -0.50385448946E+02 -0.21131653880E+02  0.37677445536E+02  0.14151857098E+03  0.12499070273E+03 0.  0.
          2    1    1    2  501    0  0.81404777452E+02  0.26296119186E+02 -0.32641964506E+03  0.33744334096E+03  0.00000000000E+00 0. -1.
          1    1    1    2  502    0 -0.31019328506E+02 -0.51644653061E+01  0.13130439409E+02  0.34077542194E+02  0.00000000000E+00 0. -1.
         22    1    3    3    0    0 -0.15337923909E+02 -0.71782655158E+02  0.30574749455E+02  0.79516141730E+02  0.00000000000E+00 0. -1.
         22    1    3    3    0    0 -0.35047525037E+02  0.50651001278E+02  0.71026960810E+01  0.62002429253E+02  0.00000000000E+00 0. -1.
</event>
<event>
 7    1  0.5854318E-006  0.2198912E+03  0.7818608E-02  0.1168522E+00
          2   -1    0    0  502    0  0.00000000000E+00  0.00000000000E+00  0.54796027166E+03  0.54796027166E+03  0.00000000000E+00 0. -1.
          1   -1    0    0  501    0 -0.00000000000E+00 -0.00000000000E+00 -0.26252572289E+04  0.26252572289E+04  0.00000000000E+00 0. -1.
         25    2    1    2    0    0  0.12726569927E+03 -0.14685600217E+03  0.14215935009E+03  0.27128914057E+03  0.12500109354E+03 0.  0.
          2    1    1    2  501    0  0.12032267527E+03  0.82931866686E+02 -0.25103632403E+04  0.25146130595E+04  0.00000000000E+00 0. -1.
          1    1    1    2  502    0 -0.24758837454E+03  0.63924135488E+02  0.29090693301E+03  0.38731530047E+03  0.00000000000E+00 0. -1.
         22    1    3    3    0    0  0.60929512438E+02 -0.56382502060E+02  0.13549611969E+03  0.15890434379E+03  0.00000000000E+00 0.  1.
         22    1    3    3    0    0  0.66336186834E+02 -0.90473500114E+02  0.66632303919E+01  0.11238479677E+03  0.00000000000E+00 0.  1.
</event>
<event>
 7    1  0.5854318E-006  0.5713256E+02  0.7818608E-02  0.1430740E+00
          2   -1    0    0  502    0  0.00000000000E+00  0.00000000000E+00  0.48354440527E+03  0.48354440527E+03  0.00000000000E+00 0. -1.
          1   -1    0    0  501    0 -0.00000000000E+00 -0.00000000000E+00 -0.51877970318E+03  0.51877970318E+03  0.00000000000E+00 0. -1.
         25    2    1    2    0    0  0.11201030669E+02 -0.79561826435E+01 -0.69134388575E+01  0.12598430613E+03  0.12504193626E+03 0.  0.
          2    1    1    2  501    0  0.36602339344E+01 -0.48680364542E+02 -0.44897989629E+03  0.45162608702E+03  0.00000000000E+00 0. -1.
          1    1    1    2  502    0 -0.14861264604E+02  0.56636547185E+02  0.42065803724E+03  0.42471371530E+03  0.00000000000E+00 0. -1.
         22    1    3    3    0    0  0.44063926315E+02 -0.50119505913E+02  0.14679051911E+02  0.68330586419E+02  0.00000000000E+00 0.  1.
         22    1    3    3    0    0 -0.32862895646E+02  0.42163323270E+02 -0.21592490768E+02  0.57653719715E+02  0.00000000000E+00 0.  1.
</event>
<event>
 7    1  0.5854318E-006  0.5304196E+02  0.7818608E-02  0.1462735E+00
          2   -1    0    0  502    0  0.00000000000E+00  0.00000000000E+00  0.95563171460E+03  0.95563171460E+03  0.00000000000E+00 0. -1.
          1   -1    0    0  501    0 -0.00000000000E+00 -0.00000000000E+00 -0.58279880154E+03  0.58279880154E+03  0.00000000000E+00 0. -1.
         25    2    1    2    0    0 -0.22917621724E+02 -0.49829340796E+02  0.12883662822E+03  0.18770344540E+03  0.12500210420E+03 0.  0.
          2    1    1    2  501    0  0.41492820128E+02 -0.30449338703E+00 -0.55168918279E+03  0.55324741413E+03  0.00000000000E+00 0. -1.
          1    1    1    2  502    0 -0.18575198405E+02  0.50133834183E+02  0.79568546761E+03  0.79747965661E+03  0.00000000000E+00 0. -1.
         22    1    3    3    0    0 -0.54126986337E+02 -0.68558113000E+02  0.12296965594E+03  0.15083594330E+03  0.00000000000E+00 0. -1.
         22    1    3    3    0    0  0.31209364614E+02  0.18728772204E+02  0.58669722855E+01  0.36867502108E+02  0.00000000000E+00 0. -1.
</event>
<event>
 7    1  0.5854318E-006  0.1285024E+03  0.7818608E-02  0.1335762E+00
          2   -1    0    0  502    0  0.00000000000E+00  0.00000000000E+00  0.70210378002E+03  0.70210378002E+03  0.00000000000E+00 0. -1.
          1   -1    0    0  501    0 -0.00000000000E+00 -0.00000000000E+00 -0.16051399595E+03  0.16051399595E+03  0.00000000000E+00 0. -1.
         25    2    1    2    0    0  0.11288159042E+03 -0.79290082015E+00  0.39947055251E+02  0.17309840144E+03  0.12499762882E+03 0.  0.
          2    1    1    2  501    0 -0.13131896517E+03 -0.42396143109E+02 -0.41696079714E+02  0.14415500902E+03  0.00000000000E+00 0. -1.
          1    1    1    2  502    0  0.18437374752E+02  0.43189043929E+02  0.54333880854E+03  0.54536436551E+03  0.00000000000E+00 0. -1.
         22    1    3    3    0    0  0.91644380230E+02  0.20302185401E+02  0.79836708505E+02  0.12322650358E+03  0.00000000000E+00 0.  1.
         22    1    3    3    0    0  0.21237210185E+02 -0.21095086221E+02 -0.39889653254E+02  0.49871897857E+02  0.00000000000E+00 0.  1.
</event>
<event>
 7    1  0.5854318E-006  0.6642153E+02  0.7818608E-02  0.1413521E+00
          2   -1    0    0  502    0  0.00000000000E+00  0.00000000000E+00  0.28758005635E+03  0.28758005635E+03  0.00000000000E+00 0. -1.
          1   -1    0    0  501    0 -0.00000000000E+00 -0.00000000000E+00 -0.11632839494E+04  0.11632839494E+04  0.00000000000E+00 0. -1.
         25    2    1    2    0    0  0.84405534611E+01  0.73756873463E+02 -0.51384796634E+03  0.53402199517E+03  0.12501375717E+03 0.  0.
          2    1    1    2  501    0 -0.44460292646E+02 -0.17869564583E+02 -0.63444969510E+03  0.63625659491E+03  0.00000000000E+00 0. -1.
          1    1    1    2  502    0  0.36019739185E+02 -0.55887308880E+02  0.27259376840E+03  0.28058541565E+03  0.00000000000E+00 0. -1.
         22    1    3    3    0    0  0.23229627099E+02  0.72566172901E+01 -0.11220436751E+02  0.26798736360E+02  0.00000000000E+00 0. -1.
         22    1    3    3    0    0 -0.14789073637E+02  0.66500256173E+02 -0.50262752959E+03  0.50722325881E+03  0.00000000000E+00 0. -1.
</event>
<event>
 7    1  0.5854318E-006  0.2000706E+03  0.7818608E-02  0.1225796E+00
          2   -1    0    0  502    0  0.00000000000E+00  0.00000000000E+00  0.18604609142E+04  0.18604609142E+04  0.00000000000E+00 0. -1.
          1   -1    0    0  501    0 -0.00000000000E+00 -0.00000000000E+00 -0.99916386355E+03  0.99916386355E+03  0.00000000000E+00 0. -1.
         25    2    1    2    0    0  0.18571471340E+03  0.85633895287E+02  0.16157845931E+03  0.28906093512E+03  0.12500202760E+03 0.  0.
          2    1    1    2  501    0 -0.13108521343E+03 -0.15197440044E+03 -0.92350779316E+03  0.94506412248E+03  0.00000000000E+00 0. -1.
          1    1    1    2  502    0 -0.54629499974E+02  0.66340505154E+02  0.16232263845E+04  0.16254997202E+04  0.00000000000E+00 0. -1.
         22    1    3    3    0    0  0.14089716163E+03  0.85576198167E+02  0.17679877458E+03  0.24172939942E+03  0.00000000000E+00 0.  1.
         22    1    3    3    0    0  0.44817551770E+02  0.57697119465E-01 -0.15220315268E+02  0.47331535708E+02  0.00000000000E+00 0.  1.
</event>
<event>
 7    1  0.5854318E-006  0.9978122E+02  0.7818608E-02  0.1422029E+00
          2   -1    0    0  502    0  0.00000000000E+00  0.00000000000E+00  0.24636569361E+03  0.24636569361E+03  0.00000000000E+00 0. -1.
          1   -1    0    0  501    0 -0.00000000000E+00 -0.00000000000E+00 -0.93207957016E+03  0.93207957016E+03  0.00000000000E+00 0. -1.
         25    2    1    2    0    0 -0.47827147592E+02  0.55565990121E+02 -0.85021045990E+02  0.16803669965E+03  0.12503095163E+03 0.  0.
          2    1    1    2  501    0 -0.24601393353E+02  0.16941274163E+02 -0.79243401781E+03  0.79299678935E+03  0.00000000000E+00 0. -1.
          1    1    1    2  502    0  0.72428540945E+02 -0.72507264284E+02  0.19174118725E+03  0.21741177476E+03  0.00000000000E+00 0. -1.
         22    1    3    3    0    0 -0.81865748726E+02  0.53973556781E+01 -0.63345853197E+02  0.10365244512E+03  0.00000000000E+00 0.  1.
         22    1    3    3    0    0  0.34038601134E+02  0.50168634442E+02 -0.21675192793E+02  0.64384254531E+02  0.00000000000E+00 0.  1.
</event>
<event>
 7    1  0.5854318E-006  0.7414832E+02  0.7818608E-02  0.1353659E+00
          2   -1    0    0  502    0  0.00000000000E+00  0.00000000000E+00  0.23267137767E+03  0.23267137767E+03  0.00000000000E+00 0. -1.
          1   -1    0    0  501    0 -0.00000000000E+00 -0.00000000000E+00 -0.22619087604E+04  0.22619087604E+04  0.00000000000E+00 0. -1.
         25    2    1    2    0    0  0.64898719401E+02 -0.73938245693E+02 -0.49274795566E+02  0.16652743332E+03  0.12499869045E+03 0.  0.
          2    1    1    2  501    0 -0.74041819665E+02  0.47669054359E+01 -0.21463479615E+04  0.21476299696E+04  0.00000000000E+00 0. -1.
          1    1    1    2  502    0  0.91431002643E+01  0.69171340257E+02  0.16638537430E+03  0.18042273519E+03  0.00000000000E+00 0. -1.
         22    1    3    3    0    0  0.44832979124E+02  0.15089701756E+02 -0.58006434753E+02  0.74849459510E+02  0.00000000000E+00 0. -1.
         22    1    3    3    0    0  0.20065740277E+02 -0.89027947449E+02  0.87316391863E+01  0.91677973814E+02  0.00000000000E+00 0. -1.
</event>
<event>
 7    1  0.5854318E-006  0.6889885E+02  0.7818608E-02  0.1466866E+00
          2   -1    0    0  502    0  0.00000000000E+00  0.00000000000E+00  0.87534062227E+03  0.87534062227E+03  0.00000000000E+00 0. -1.
          1   -1    0    0  501    0 -0.00000000000E+00 -0.00000000000E+00 -0.21214599817E+04  0.21214599817E+04  0.00000000000E+00 0. -1.
         25    2    1    2    0    0 -0.75440370765E+02  0.49688146309E+02  0.28837319533E+03  0.32702279940E+03  0.12499860047E+03 0.  0.
          2    1    1    2  501    0  0.44562415344E+02 -0.52504707896E+02 -0.21011472190E+04  0.21022754789E+04  0.00000000000E+00 0. -1.
          1    1    1    2  502    0  0.30877955421E+02  0.28165615871E+01  0.56665466424E+03  0.56750232568E+03  0.00000000000E+00 0. -1.
         22    1    3    3    0    0  0.24270410492E+02  0.43882401481E+02  0.13481650786E+03  0.14384091482E+03  0.00000000000E+00 0. -1.
         22    1    3    3    0    0 -0.99710781257E+02  0.58057448283E+01  0.15355668747E+03  0.18318188458E+03  0.00000000000E+00 0. -1.
</event>
<event>
 7    1  0.5854318E-006  0.1319187E+03  0.7818608E-02  0.1360990E+00
          2   -1    0    0  502    0  0.00000000000E+00  0.00000000000E+00  0.84298072343E+02  0.84298072343E+02  0.00000000000E+00 0. -1.
          1   -1    0    0  501    0 -0.00000000000E+00 -0.00000000000E+00 -0.74697105184E+03  0.74697105184E+03  0.00000000000E+00 0. -1.
         25    2    1    2    0    0 -0.14124785103E+03  0.77986290904E+02 -0.20177801341E+03  0.28699454836E+03  0.12497474587E+03 0.  0.
          2    1    1    2  501    0  0.11529863475E+03 -0.51800400213E+02 -0.48435566006E+03  0.50057712899E+03  0.00000000000E+00 0. -1.
          1    1    1    2  502    0  0.25949216278E+02 -0.26185890691E+02  0.23460693981E+02  0.43697446822E+02  0.00000000000E+00 0. -1.
         22    1    3    3    0    0 -0.53812381920E+01 -0.29958905591E+02 -0.26675237212E+02  0.40472978998E+02  0.00000000000E+00 0.  1.
         22    1    3    3    0    0 -0.13586661284E+03  0.10794519649E+03 -0.17510277620E+03  0.24652156937E+03  0.00000000000E+00 0.  1.
</event>
<event>
 7    1  0.5854318E-006  0.9082552E+02  0.7818608E-02  0.1459644E+00
          2   -1    0    0  502    0  0.00000000000E+00  0.00000000000E+00  0.23425294821E+04  0.23425294821E+04  0.00000000000E+00 0. -1.
          1   -1    0    0  501    0 -0.00000000000E+00 -0.00000000000E+00 -0.80013129393E+02  0.80013129393E+02  0.00000000000E+00 0. -1.
         25    2    1    2    0    0 -0.97071073948E+02 -0.59890715317E+02  0.40633038124E+03  0.44015922324E+03  0.12500428757E+03 0.  0.
          2    1    1    2  501    0  0.19892911506E+02  0.14778551838E+02 -0.59582313234E+02  0.64530501106E+02  0.00000000000E+00 0. -1.
          1    1    1    2  502    0  0.77178162442E+02  0.45112163478E+02  0.19157682847E+04  0.19178528871E+04  0.00000000000E+00 0. -1.
         22    1    3    3    0    0  0.27720000746E+02 -0.30013782220E+02  0.93741792595E+02  0.10225824780E+03  0.00000000000E+00 0. -1.
         22    1    3    3    0    0 -0.12479107469E+03 -0.29876933097E+02  0.31258858864E+03  0.33790097544E+03  0.00000000000E+00 0. -1.
</event>
<event>
 7    1  0.5854318E-006  0.1890869E+03  0.7818608E-02  0.1322641E+00
          2   -1    0    0  502    0  0.00000000000E+00  0.00000000000E+00  0.12605482045E+04  0.12605482045E+04  0.00000000000E+00 0. -1.
          1   -1    0    0  501    0 -0.00000000000E+00 -0.00000000000E+00 -0.80830369539E+03  0.80830369539E+03  0.00000000000E+00 0. -1.
         25    2    1    2    0    0  0.85475331353E+02 -0.14682701584E+03 -0.11360970000E+03  0.23957410377E+03  0.12499752963E+03 0.  0.
          2    1    1    2  501    0 -0.18189878316E+02 -0.30861487811E+02 -0.62365832452E+03  0.62468632837E+03  0.00000000000E+00 0. -1.
          1    1    1    2  502    0 -0.67285453037E+02  0.17768850365E+03  0.11895125336E+04  0.12045914677E+04  0.00000000000E+00 0. -1.
         22    1    3    3    0    0  0.36493968113E+02  0.10904676483E+02  0.17259149970E+01  0.38127423994E+02  0.00000000000E+00 0.  1.
         22    1    3    3    0    0  0.48981363240E+02 -0.15773169232E+03 -0.11533561499E+03  0.20144667978E+03  0.00000000000E+00 0.  1.
</event>
<event>
 7    1  0.5854318E-006  0.5711813E+03  0.7818608E-02  0.1116687E+00
          2   -1    0    0  502    0  0.00000000000E+00  0.00000000000E+00  0.50658489209E+04  0.50658489209E+04  0.00000000000E+00 0. -1.
          1   -1    0    0  501    0 -0.00000000000E+00 -0.00000000000E+00 -0.20004034001E+04  0.20004034001E+04  0.00000000000E+00 0. -1.
         25    2    1    2    0    0  0.63231322978E+03 -0.16134976202E+01  0.19164595439E+04  0.20219459334E+04  0.12500220086E+03 0.  0.
          2    1    1    2  501    0 -0.90691182772E+02 -0.52619595065E+02 -0.19222997740E+04  0.19251571712E+04  0.00000000000E+00 0. -1.
          1    1    1    2  502    0 -0.54162204701E+03  0.54233092685E+02  0.30712857510E+04  0.31191492164E+04  0.00000000000E+00 0. -1.
         22    1    3    3    0    0  0.47143061214E+03 -0.45160199010E+02  0.15138947754E+04  0.15862419918E+04  0.00000000000E+00 0.  1.
         22    1    3    3    0    0  0.16088261764E+03  0.43546701390E+02  0.40256476849E+03  0.43570394156E+03  0.00000000000E+00 0.  1.
</event>
<event>
 7    1  0.5854318E-006  0.1199524E+03  0.7818608E-02  0.1253208E+00
          2   -1    0    0  502    0  0.00000000000E+00  0.00000000000E+00  0.13655451857E+03  0.13655451857E+03  0.00000000000E+00 0. -1.
          1   -1    0    0  501    0 -0.00000000000E+00 -0.00000000000E+00 -0.13149838357E+04  0.13149838357E+04  0.00000000000E+00 0. -1.
         25    2    1    2    0    0  0.23578943635E+02  0.18001807480E+02 -0.33853598369E+03  0.36209277579E+03  0.12499813746E+03 0.  0.
          2    1    1    2  501    0  0.47145478400E+01  0.10837898828E+03 -0.92702716296E+03  0.93335287696E+03  0.00000000000E+00 0. -1.
          1    1    1    2  502    0 -0.28293491475E+02 -0.12638079576E+03  0.87133829568E+02  0.15609270147E+03  0.00000000000E+00 0. -1.
         22    1    3    3    0    0  0.38431766734E+02 -0.34602460041E+01 -0.21871861671E+02  0.44354845616E+02  0.00000000000E+00 0. -1.
         22    1    3    3    0    0 -0.14852823099E+02  0.21462053484E+02 -0.31666412202E+03  0.31773793017E+03  0.00000000000E+00 0. -1.
</event>
<event>
 7    1  0.5854318E-006  0.7282988E+02  0.7818608E-02  0.1460623E+00
          2   -1    0    0  502    0  0.00000000000E+00  0.00000000000E+00  0.19290454124E+04  0.19290454124E+04  0.00000000000E+00 0. -1.
          1   -1    0    0  501    0 -0.00000000000E+00 -0.00000000000E+00 -0.15056039770E+04  0.15056039770E+04  0.00000000000E+00 0. -1.
         25    2    1    2    0    0  0.64530693371E+02  0.19406023314E+02  0.55150095711E+03  0.56949149387E+03  0.12500580694E+03 0.  0.
          2    1    1    2  501    0 -0.72112455638E+02  0.10328584489E+02 -0.14955499974E+04  0.14973231718E+04  0.00000000000E+00 0. -1.
          1    1    1    2  502    0  0.75817622671E+01 -0.29734607803E+02  0.13674904758E+04  0.13678347237E+04  0.00000000000E+00 0. -1.
         22    1    3    3    0    0  0.11421017593E+02 -0.39753299348E+02  0.35673158960E+03  0.35912141605E+03  0.00000000000E+00 0.  1.
         22    1    3    3    0    0  0.53109675779E+02  0.59159322661E+02  0.19476936752E+03  0.21037007782E+03  0.00000000000E+00 0.  1.
</event>
<event>
 7    1  0.5854318E-006  0.3675700E+02  0.7818608E-02  0.1559308E+00
          2   -1    0    0  502    0  0.00000000000E+00  0.00000000000E+00  0.82141727409E+03  0.82141727409E+03  0.00000000000E+00 0. -1.
          1   -1    0    0  501    0 -0.00000000000E+00 -0.00000000000E+00 -0.66035063513E+02  0.66035063513E+02  0.00000000000E+00 0. -1.
         25    2    1    2    0    0 -0.26825482137E+02  0.57323887964E+02  0.13255043553E+03  0.19287239205E+03  0.12499802812E+03 0.  0.
          2    1    1    2  501    0  0.23705453825E+02 -0.26357524484E+02 -0.26652033321E+02  0.44350857017E+02  0.00000000000E+00 0. -1.
          1    1    1    2  502    0  0.31200283123E+01 -0.30966363481E+02  0.64948380837E+03  0.65022908854E+03  0.00000000000E+00 0. -1.
         22    1    3    3    0    0 -0.36217718784E+02  0.64175086287E+02  0.15273330278E+03  0.16958073779E+03  0.00000000000E+00 0.  1.
         22    1    3    3    0    0  0.93922366464E+01 -0.68511983227E+01 -0.20182867248E+02  0.23291654257E+02  0.00000000000E+00 0.  1.
</event>
<event>
 7    1  0.6826062E-006  0.6987648E+02  0.7818608E-02  0.1403093E+00
          2   -1    0    0  502    0  0.00000000000E+00  0.00000000000E+00  0.67216585574E+03  0.67216585574E+03  0.00000000000E+00 0. -1.
          1   -1    0    0  501    0 -0.00000000000E+00 -0.00000000000E+00 -0.23517102347E+04  0.23517102347E+04  0.00000000000E+00 0. -1.
         25    2    1    2    0    0  0.47135324939E+02  0.64223101276E+01 -0.44090416976E+03  0.46074443589E+03  0.12500385340E+03 0.  0.
          2    1    1    2  501    0 -0.45890603435E+02 -0.55825246952E+02 -0.18992758637E+04  0.19006502077E+04  0.00000000000E+00 0. -1.
          1    1    1    2  502    0 -0.12447215040E+01  0.49402936825E+02  0.66063565446E+03  0.66248144687E+03  0.00000000000E+00 0. -1.
         22    1    3    3    0    0  0.71712509265E+02 -0.36176574433E+00 -0.12733484453E+03  0.14614026649E+03  0.00000000000E+00 0.  1.
         22    1    3    3    0    0 -0.24577184327E+02  0.67840758720E+01 -0.31356932523E+03  0.31460416939E+03  0.00000000000E+00 0.  1.
</event>
<event>
 7    1  0.5854318E-006  0.8310671E+02  0.7818608E-02  0.1409998E+00
          2   -1    0    0  502    0  0.00000000000E+00  0.00000000000E+00  0.63068209014E+03  0.63068209014E+03  0.00000000000E+00 0. -1.
          1   -1    0    0  501    0 -0.00000000000E+00 -0.00000000000E+00 -0.22930941757E+03  0.22930941757E+03  0.00000000000E+00 0. -1.
         25    2    1    2    0    0  0.47052680223E+02 -0.76446748628E+01  0.56177412058E+03  0.57748415823E+03  0.12500157876E+03 0.  0.
          2    1    1    2  501    0 -0.76537498635E+02  0.33720595747E+02 -0.20596378261E+03  0.22229742919E+03  0.00000000000E+00 0. -1.
          1    1    1    2  502    0  0.29484818413E+02 -0.26075920885E+02  0.45562334604E+02  0.60209920290E+02  0.00000000000E+00 0. -1.
         22    1    3    3    0    0 -0.14047708256E+02  0.14433220646E+02  0.43091621567E+03  0.43138664895E+03  0.00000000000E+00 0. -1.
         22    1    3    3    0    0  0.61100388479E+02 -0.22077895508E+02  0.13085790491E+03  0.14609750928E+03  0.00000000000E+00 0. -1.
</event>
<event>
 7    1  0.5854318E-006  0.8100865E+02  0.7818608E-02  0.1377560E+00
          2   -1    0    0  502    0  0.00000000000E+00  0.00000000000E+00  0.19462771968E+03  0.19462771968E+03  0.00000000000E+00 0. -1.
          1   -1    0    0  501    0 -0.00000000000E+00 -0.00000000000E+00 -0.24045188759E+03  0.24045188759E+03  0.00000000000E+00 0. -1.
         25    2    1    2    0    0 -0.35149526372E+02 -0.35630303563E+02  0.49201257067E+02  0.14335700244E+03  0.12500183484E+03 0.  0.
          2    1    1    2  501    0  0.83531549681E+02  0.15688091903E+02 -0.17592110778E+03  0.19537623239E+03  0.00000000000E+00 0. -1.
          1    1    1    2  502    0 -0.48382023310E+02  0.19942211660E+02  0.80895682806E+02  0.96346372438E+02  0.00000000000E+00 0. -1.
         22    1    3    3    0    0 -0.69566771830E+02 -0.13821750558E+02  0.68203585927E+02  0.98398707637E+02  0.00000000000E+00 0. -1.
         22    1    3    3    0    0  0.34417245458E+02 -0.21808553005E+02 -0.19002328860E+02  0.44958294799E+02  0.00000000000E+00 0. -1.
</event>
<event>
 7    1  0.1524035E-005  0.8343246E+02  0.7818608E-02  0.1350235E+00
          2   -1    0    0  502    0  0.00000000000E+00  0.00000000000E+00  0.16326411988E+04  0.16326411988E+04  0.00000000000E+00 0. -1.
          1   -1    0    0  501    0 -0.00000000000E+00 -0.00000000000E+00 -0.17527910029E+04  0.17527910029E+04  0.00000000000E+00 0. -1.
         25    2    1    2    0    0 -0.60570518307E+02 -0.53886691252E+02 -0.22961505458E+03  0.27371666832E+03  0.12500071217E+03 0.  0.
          2    1    1    2  501    0  0.46458688361E+01  0.84679219838E+02 -0.14992937233E+04  0.15016903219E+04  0.00000000000E+00 0. -1.
          1    1    1    2  502    0  0.55924649471E+02 -0.30792528586E+02  0.16087589736E+04  0.16100252115E+04  0.00000000000E+00 0. -1.
         22    1    3    3    0    0 -0.59149042257E+02 -0.83713815288E+02 -0.10968347365E+03  0.15012353734E+03  0.00000000000E+00 0.  1.
         22    1    3    3    0    0 -0.14214760501E+01  0.29827124036E+02 -0.11993158093E+03  0.12359313098E+03  0.00000000000E+00 0.  1.
</event>
<event>
 7    1  0.5854318E-006  0.1351004E+03  0.7818608E-02  0.1340055E+00
          2   -1    0    0  502    0  0.00000000000E+00  0.00000000000E+00  0.15317454021E+03  0.15317454021E+03  0.00000000000E+00 0. -1.
          1   -1    0    0  501    0 -0.00000000000E+00 -0.00000000000E+00 -0.10368343352E+04  0.10368343352E+04  0.00000000000E+00 0. -1.
         25    2    1    2    0    0  0.14567238083E+03 -0.24148564190E+02 -0.50288611628E+03  0.53881607220E+03  0.12499887208E+03 0.  0.
          2    1    1    2  501    0 -0.24780676722E+02 -0.35179211530E+02 -0.48125297157E+03  0.48317293127E+03  0.00000000000E+00 0. -1.
          1    1    1    2  502    0 -0.12089170410E+03  0.59327775720E+02  0.10047929283E+03  0.16801987198E+03  0.00000000000E+00 0. -1.
         22    1    3    3    0    0 -0.76250687889E+01 -0.37162204540E+02 -0.13045404541E+03  0.13585812116E+03  0.00000000000E+00 0. -1.
         22    1    3    3    0    0  0.15329744961E+03  0.13013640351E+02 -0.37243207087E+03  0.40295795104E+03  0.00000000000E+00 0. -1.
</event>
<event>
 7    1  0.5854318E-006  0.6910999E+02  0.7818608E-02  0.1457687E+00
          2   -1    0    0  502    0  0.00000000000E+00  0.00000000000E+00  0.76884271355E+03  0.76884271355E+03  0.00000000000E+00 0. -1.
          1   -1    0    0  501    0 -0.00000000000E+00 -0.00000000000E+00 -0.71844313280E+03  0.71844313280E+03  0.00000000000E+00 0. -1.
         25    2    1    2    0    0 -0.18846947039E+02  0.36266642299E+02 -0.19927175032E+03  0.23876346210E+03  0.12501313372E+03 0.  0.
          2    1    1    2  501    0  0.24106409891E+02 -0.68880977468E+02 -0.49639213097E+03  0.50172787021E+03  0.00000000000E+00 0. -1.
          1    1    1    2  502    0 -0.52594628520E+01  0.32614335169E+02  0.74606346203E+03  0.74679451403E+03  0.00000000000E+00 0. -1.
         22    1    3    3    0    0  0.23795729999E+02  0.43397762847E+02 -0.18411063115E+02  0.52806910829E+02  0.00000000000E+00 0.  1.
         22    1    3    3    0    0 -0.42642677039E+02 -0.71311205477E+01 -0.18086068720E+03  0.18595655127E+03  0.00000000000E+00 0.  1.
</event>
<event>
 7    1  0.5854318E-006  0.4620893E+02  0.7818608E-02  0.1538415E+00
          2   -1    0    0  502    0  0.00000000000E+00  0.00000000000E+00  0.12982094724E+04  0.12982094724E+04  0.00000000000E+00 0. -1.
          1   -1    0    0  501    0 -0.00000000000E+00 -0.00000000000E+00 -0.45334157824E+02  0.45334157824E+02  0.00000000000E+00 0. -1.
         25    2    1    2    0    0  0.50616411341E+02 -0.20637886174E+02  0.16031388284E+03  0.21050979431E+03  0.12500355607E+03 0.  0.
          2    1    1    2  501    0 -0.45409884613E+02 -0.71977084235E+01  0.63035460995E+01  0.46406888718E+02  0.00000000000E+00 0. -1.
          1    1    1    2  502    0 -0.52065267287E+01  0.27835594597E+02  0.10862578857E+04  0.10866269472E+04  0.00000000000E+00 0. -1.
         22    1    3    3    0    0  0.89894827655E+02 -0.23336091562E+02  0.86823213854E+02  0.12713742042E+03  0.00000000000E+00 0. -1.
         22    1    3    3    0    0 -0.39278416313E+02  0.26982053886E+01  0.73490668983E+02  0.83372373890E+02  0.00000000000E+00 0. -1.
</event>
<event>
 7    1  0.5854318E-006  0.7819962E+02  0.7818608E-02  0.1426732E+00
          2   -1    0    0  502    0  0.00000000000E+00  0.00000000000E+00  0.10385305172E+04  0.10385305172E+04  0.00000000000E+00 0. -1.
          1   -1    0    0  501    0 -0.00000000000E+00 -0.00000000000E+00 -0.95274152531E+03  0.95274152531E+03  0.00000000000E+00 0. -1.
         25    2    1    2    0    0  0.85324358364E+02 -0.38250510116E+02  0.15398058030E+03  0.21925976909E+03  0.12498591752E+03 0.  0.
          2    1    1    2  501    0 -0.31927284571E+02 -0.18236531828E+02 -0.91796004177E+03  0.91869611998E+03  0.00000000000E+00 0. -1.
          1    1    1    2  502    0 -0.53397073793E+02  0.56487041943E+02  0.84976845333E+03  0.85331615341E+03  0.00000000000E+00 0. -1.
         22    1    3    3    0    0  0.10119310865E+03  0.11798120322E+02  0.11642742729E+03  0.15470806931E+03  0.00000000000E+00 0.  1.
         22    1    3    3    0    0 -0.15868750291E+02 -0.50048630438E+02  0.37553153002E+02  0.64551699783E+02  0.00000000000E+00 0.  1.
</event>
<event>
 7    1  0.5854318E-006  0.1376723E+03  0.7818608E-02  0.1354637E+00
          2   -1    0    0  502    0  0.00000000000E+00  0.00000000000E+00  0.20137327637E+04  0.20137327637E+04  0.00000000000E+00 0. -1.
          1   -1    0    0  501    0 -0.00000000000E+00 -0.00000000000E+00 -0.74276233719E+02  0.74276233719E+02  0.00000000000E+00 0. -1.
         25    2    1    2    0    0  0.10494106108E+03  0.98353177065E+02  0.25656138913E+03  0.31958848390E+03  0.12500831535E+03 0.  0.
          2    1    1    2  501    0 -0.12049321720E+03 -0.64484756152E+02  0.67192878688E+02  0.15228848320E+03  0.00000000000E+00 0. -1.
          1    1    1    2  502    0  0.15552156121E+02 -0.33868420913E+02  0.16157022622E+04  0.16161320303E+04  0.00000000000E+00 0. -1.
         22    1    3    3    0    0  0.59056182285E+02  0.53579382286E+02  0.31772816506E+02  0.85836441800E+02  0.00000000000E+00 0. -1.
         22    1    3    3    0    0  0.45884878797E+02  0.44773794779E+02  0.22478857262E+03  0.23375204209E+03  0.00000000000E+00 0. -1.
</event>
<event>
 7    1  0.5854318E-006  0.5569446E+02  0.7818608E-02  0.1552815E+00
          2   -1    0    0  502    0  0.00000000000E+00  0.00000000000E+00  0.22088226181E+04  0.22088226181E+04  0.00000000000E+00 0. -1.
          1   -1    0    0  501    0 -0.00000000000E+00 -0.00000000000E+00 -0.64196479369E+01  0.64196479369E+01  0.00000000000E+00 0. -1.
         25    2    1    2    0    0 -0.66218816356E+02  0.13251039452E+02  0.10546120627E+04  0.10641393813E+04  0.12500199395E+03 0.  0.
          2    1    1    2  501    0  0.46511677193E+02 -0.21613772145E+02  0.43854026172E+03  0.44152922034E+03  0.00000000000E+00 0. -1.
          1    1    1    2  502    0  0.19707139163E+02  0.83627326927E+01  0.70925064578E+03  0.70957366437E+03  0.00000000000E+00 0. -1.
         22    1    3    3    0    0 -0.92119044505E+02  0.12725459485E+02  0.47893221042E+03  0.48787694951E+03  0.00000000000E+00 0. -1.
         22    1    3    3    0    0  0.25900228149E+02  0.52557996733E+00  0.57567985225E+03  0.57626243183E+03  0.00000000000E+00 0. -1.
</event>
<event>
 7    1  0.5854318E-006  0.9615255E+02  0.7818608E-02  0.1433376E+00
          2   -1    0    0  502    0  0.00000000000E+00  0.00000000000E+00  0.30301807578E+04  0.30301807578E+04  0.00000000000E+00 0. -1.
          1   -1    0    0  501    0 -0.00000000000E+00 -0.00000000000E+00 -0.80490397248E+03  0.80490397248E+03  0.00000000000E+00 0. -1.
         25    2    1    2    0    0 -0.47292246851E+02  0.66814741161E+02  0.22254999331E+03  0.26805816293E+03  0.12500365172E+03 0.  0.
          2    1    1    2  501    0  0.14718720877E+02  0.24328845964E+02 -0.78105011061E+03  0.78156753308E+03  0.00000000000E+00 0. -1.
          1    1    1    2  502    0  0.32573525974E+02 -0.91143587125E+02  0.27837769026E+04  0.27854590342E+04  0.00000000000E+00 0. -1.
         22    1    3    3    0    0 -0.25841326517E+02  0.99059606402E+02  0.11613922016E+03  0.15481892080E+03  0.00000000000E+00 0.  1.
         22    1    3    3    0    0 -0.21450920333E+02 -0.32244865241E+02  0.10641077315E+03  0.11323924214E+03  0.00000000000E+00 0.  1.
</event>
<event>
 7    1  0.5854318E-006  0.4917896E+02  0.7818608E-02  0.1529101E+00
          2   -1    0    0  502    0  0.00000000000E+00  0.00000000000E+00  0.35652730721E+03  0.35652730721E+03  0.00000000000E+00 0. -1.
          1   -1    0    0  501    0 -0.00000000000E+00 -0.00000000000E+00 -0.55069389859E+03  0.55069389859E+03  0.00000000000E+00 0. -1.
         25    2    1    2    0    0  0.43078079415E+02  0.61789200748E+02 -0.83554182922E+02  0.16816878234E+03  0.12500324642E+03 0.  0.
          2    1    1    2  501    0 -0.22002176362E+02 -0.17775740202E+02 -0.42246195661E+03  0.42340781463E+03  0.00000000000E+00 0. -1.
          1    1    1    2  502    0 -0.21075903053E+02 -0.44013460546E+02  0.31184954816E+03  0.31564460883E+03  0.00000000000E+00 0. -1.
         22    1    3    3    0    0 -0.28449206538E+02  0.66572013997E+01  0.16362610689E+02  0.33487470966E+02  0.00000000000E+00 0. -1.
         22    1    3    3    0    0  0.71527285953E+02  0.55131999349E+02 -0.99916793611E+02  0.13468131137E+03  0.00000000000E+00 0. -1.
</event>
<event>
 7    1  0.5854318E-006  0.1447255E+03  0.7818608E-02  0.1213039E+00
          2   -1    0    0  502    0  0.00000000000E+00  0.00000000000E+00  0.54414040147E+03  0.54414040147E+03  0.00000000000E+00 0. -1.
          1   -1    0    0  501    0 -0.00000000000E+00 -0.00000000000E+00 -0.60851309902E+03  0.60851309902E+03  0.00000000000E+00 0. -1.
         25    2    1    2    0    0  0.19812282446E+02 -0.13377042840E+02 -0.17895807854E+03  0.21959530305E+03  0.12499852573E+03 0.  0.
          2    1    1    2  501    0  0.12970614626E+03  0.40380280922E+02 -0.38637675250E+03  0.40956226185E+03  0.00000000000E+00 0. -1.
          1    1    1    2  502    0 -0.14951842871E+03 -0.27003238082E+02  0.50096213349E+03  0.52349593559E+03  0.00000000000E+00 0. -1.
         22    1    3    3    0    0  0.64399832194E+02  0.23426830519E+02 -0.11009175690E+03  0.12967786902E+03  0.00000000000E+00 0.  1.
         22    1    3    3    0    0 -0.44587549748E+02 -0.36803873359E+02 -0.68866321639E+02  0.89917434032E+02  0.00000000000E+00 0.  1.
</event>
<event>
 7    1  0.5854318E-006  0.8827574E+02  0.7818608E-02  0.1365183E+00
          2   -1    0    0  502    0  0.00000000000E+00  0.00000000000E+00  0.17613944313E+03  0.17613944313E+03  0.00000000000E+00 0. -1.
          1   -1    0    0  501    0 -0.00000000000E+00 -0.00000000000E+00 -0.14101969947E+04  0.14101969947E+04  0.00000000000E+00 0. -1.
         25    2    1    2    0    0 -0.94125514843E+02  0.10104890017E+03 -0.14976899282E+03  0.23902466781E+03  0.12502618862E+03 0.  0.
          2    1    1    2  501    0  0.66244070955E+02 -0.55748761769E+02 -0.12088089787E+04  0.12119056681E+04  0.00000000000E+00 0. -1.
          1    1    1    2  502    0  0.27881443888E+02 -0.45300138398E+02  0.12452041995E+03  0.13540610192E+03  0.00000000000E+00 0. -1.
         22    1    3    3    0    0 -0.43731093442E+02  0.14275239326E+02  0.13005723310E+02  0.47805228064E+02  0.00000000000E+00 0. -1.
         22    1    3    3    0    0 -0.50394421402E+02  0.86773660842E+02 -0.16277471613E+03  0.19121943974E+03  0.00000000000E+00 0. -1.
</event>
<event>
 7    1  0.5854318E-006  0.1054528E+03  0.7818608E-02  0.1363157E+00
          2   -1    0    0  502    0  0.00000000000E+00  0.00000000000E+00  0.21327543760E+04  0.21327543760E+04  0.00000000000E+00 0. -1.
          1   -1    0    0  501    0 -0.00000000000E+00 -0.00000000000E+00 -0.32287174672E+03  0.32287174672E+03  0.00000000000E+00 0. -1.
         25    2    1    2    0    0 -0.36441576325E+02  0.10704511820E+03 -0.81187473134E+02  0.18709040568E+03  0.12499907315E+03 0.  0.
          2    1    1    2  501    0  0.45246419639E+02 -0.19432448235E+01 -0.18465767395E+03  0.19013014290E+03  0.00000000000E+00 0. -1.
          1    1    1    2  502    0 -0.88048433143E+01 -0.10510187338E+03  0.20757277763E+04  0.20784055741E+04  0.00000000000E+00 0. -1.
         22    1    3    3    0    0  0.13611125069E+02 -0.15714117612E+02 -0.45153286227E+02  0.49709309742E+02  0.00000000000E+00 0. -1.
         22    1    3    3    0    0 -0.50052701394E+02  0.12275923581E+03 -0.36034186907E+02  0.13738109594E+03  0.00000000000E+00 0. -1.
</event>
<event>
 7    1  0.5854318E-006  0.1729266E+03  0.7818608E-02  0.1358816E+00
          2   -1    0    0  502    0  0.00000000000E+00  0.00000000000E+00  0.13345353797E+04  0.13345353797E+04  0.00000000000E+00 0. -1.
          1   -1    0    0  501    0 -0.00000000000E+00 -0.00000000000E+00 -0.17442322844E+04  0.17442322844E+04  0.00000000000E+00 0. -1.
         25    2    1    2    0    0 -0.30845759574E+01  0.14862118608E+03 -0.65873124603E+03  0.68676751795E+03  0.12499999063E+03 0.  0.
          2    1    1    2  501    0  0.15526705344E+02  0.24067867509E+02 -0.10656145441E+04  0.10659993890E+04  0.00000000000E+00 0. -1.
          1    1    1    2  502    0 -0.12442129387E+02 -0.17268905359E+03  0.13146488855E+04  0.13260007571E+04  0.00000000000E+00 0. -1.
         22    1    3    3    0    0 -0.31813495698E+02  0.60681619206E+02 -0.10510504867E+03  0.12546485035E+03  0.00000000000E+00 0.  1.
         22    1    3    3    0    0  0.28728919741E+02  0.87939566871E+02 -0.55362619736E+03  0.56130266760E+03  0.00000000000E+00 0.  1.
</event>
<event>
 7    1  0.5854318E-006  0.4002101E+02  0.7818608E-02  0.1612293E+00
          2   -1    0    0  502    0  0.00000000000E+00  0.00000000000E+00  0.21904610912E+03  0.21904610912E+03  0.00000000000E+00 0. -1.
          1   -1    0    0  501    0 -0.00000000000E+00 -0.00000000000E+00 -0.18301880064E+03  0.18301880064E+03  0.00000000000E+00 0. -1.
         25    2    1    2    0    0  0.37392485048E+01 -0.21780654149E+02  0.89959017354E+02  0.15558161235E+03  0.12499853769E+03 0.  0.
          2    1    1    2  501    0  0.27889626954E+00 -0.20655985616E+02 -0.14471954897E+03  0.14618650888E+03  0.00000000000E+00 0. -1.
          1    1    1    2  502    0 -0.40181447744E+01  0.42436639765E+02  0.90787840087E+02  0.10029678853E+03  0.00000000000E+00 0. -1.
         22    1    3    3    0    0 -0.44654789205E+01 -0.41938241217E+02  0.11494982568E+03  0.12244271723E+03  0.00000000000E+00 0. -1.
         22    1    3    3    0    0  0.82047274253E+01  0.20157587069E+02 -0.24990808331E+02  0.33138895117E+02  0.00000000000E+00 0. -1.
</event>
<event>
 7    1  0.5854318E-006  0.9846281E+02  0.7818608E-02  0.1323462E+00
          2   -1    0    0  502    0  0.00000000000E+00  0.00000000000E+00  0.12412917758E+04  0.12412917758E+04  0.00000000000E+00 0. -1.
          1   -1    0    0  501    0 -0.00000000000E+00 -0.00000000000E+00 -0.10009927145E+04  0.10009927145E+04  0.00000000000E+00 0. -1.
         25    2    1    2    0    0 -0.54160959997E+02 -0.44649634181E+02  0.11078570706E+03  0.18117872359E+03  0.12500103028E+03 0.  0.
          2    1    1    2  501    0  0.99056327331E+02 -0.68138946043E+01 -0.96217440325E+03  0.96728391251E+03  0.00000000000E+00 0. -1.
          1    1    1    2  502    0 -0.44895367335E+02  0.51463528785E+02  0.10916877575E+04  0.10938218542E+04  0.00000000000E+00 0. -1.
         22    1    3    3    0    0 -0.32323705894E+02 -0.41329250078E+02  0.13711519054E+03  0.14681111795E+03  0.00000000000E+00 0.  1.
         22    1    3    3    0    0 -0.21837254103E+02 -0.33203841034E+01 -0.26329483480E+02  0.34367605644E+02  0.00000000000E+00 0.  1.
</event>
<event>
 7    1  0.5854318E-006  0.7320021E+02  0.7818608E-02  0.1358367E+00
          2   -1    0    0  502    0  0.00000000000E+00  0.00000000000E+00  0.23081035437E+04  0.23081035437E+04  0.00000000000E+00 0. -1.
          1   -1    0    0  501    0 -0.00000000000E+00 -0.00000000000E+00 -0.19824543409E+03  0.19824543409E+03  0.00000000000E+00 0. -1.
         25    2    1    2    0    0 -0.12357922295E+02  0.10748863668E+03 -0.13569191737E+02  0.16587376561E+03  0.12499383142E+03 0.  0.
          2    1    1    2  501    0 -0.39096186164E+02 -0.55537693058E+02 -0.97236409670E+02  0.11860803720E+03  0.00000000000E+00 0. -1.
          1    1    1    2  502    0  0.51454108459E+02 -0.51950943619E+02  0.22206637111E+04  0.22218671750E+04  0.00000000000E+00 0. -1.
         22    1    3    3    0    0  0.20236876225E+02  0.12050336464E+03  0.11518019806E+02  0.12273246037E+03  0.00000000000E+00 0.  1.
         22    1    3    3    0    0 -0.32594798520E+02 -0.13014727960E+02 -0.25087211543E+02  0.43141305236E+02  0.00000000000E+00 0.  1.
</event>
<event>
 7    1  0.5854318E-006  0.9964663E+02  0.7818608E-02  0.1355264E+00
          2   -1    0    0  502    0  0.00000000000E+00  0.00000000000E+00  0.11811063429E+04  0.11811063429E+04  0.00000000000E+00 0. -1.
          1   -1    0    0  501    0 -0.00000000000E+00 -0.00000000000E+00 -0.14917646558E+03  0.14917646558E+03  0.00000000000E+00 0. -1.
         25    2    1    2    0    0  0.79681982038E+02  0.12645209450E+03  0.63083960707E+03  0.66024466169E+03  0.12500021192E+03 0.  0.
          2    1    1    2  501    0 -0.52736511446E+02 -0.82895436048E+02 -0.11509033102E+03  0.15132275854E+03  0.00000000000E+00 0. -1.
          1    1    1    2  502    0 -0.26945470592E+02 -0.43556658457E+02  0.51618060130E+03  0.51871538828E+03  0.00000000000E+00 0. -1.
         22    1    3    3    0    0 -0.25445963547E+02  0.10686313457E+01  0.15451575488E+03  0.15660063071E+03  0.00000000000E+00 0. -1.
         22    1    3    3    0    0  0.10512794559E+03  0.12538346316E+03  0.47632385219E+03  0.50364403098E+03  0.00000000000E+00 0. -1.
</event>
<event>
 7    1  0.5854318E-006  0.1640888E+03  0.7818608E-02  0.1200346E+00
          2   -1    0    0  502    0  0.00000000000E+00  0.00000000000E+00  0.30719622946E+03  0.30719622946E+03  0.00000000000E+00 0. -1.
          1   -1    0    0  501    0 -0.00000000000E+00 -0.00000000000E+00 -0.33714203858E+04  0.33714203858E+04  0.00000000000E+00 0. -1.
         25    2    1    2    0    0 -0.55890782266E+02  0.14388283915E+03 -0.23137665306E+04  0.23222762762E+04  0.12500197693E+03 0.  0.
          2    1    1    2  501    0 -0.62406919034E+02 -0.21359553553E+03 -0.10252661385E+04  0.10491369458E+04  0.00000000000E+00 0. -1.
          1    1    1    2  502    0  0.11829770130E+03  0.69712696384E+02  0.27480851269E+03  0.30720339324E+03  0.00000000000E+00 0. -1.
         22    1    3    3    0    0 -0.39607481179E+02  0.36125310357E+02 -0.15333928626E+04  0.15343296457E+04  0.00000000000E+00 0.  1.
         22    1    3    3    0    0 -0.16283301087E+02  0.10775752879E+03 -0.78037366798E+03  0.78794663054E+03  0.00000000000E+00 0.  1.
</event>
<event>
 7    1  0.5854318E-006  0.9012181E+02  0.7818608E-02  0.1356895E+00
          2   -1    0    0  502    0  0.00000000000E+00  0.00000000000E+00  0.58273898418E+03  0.58273898418E+03  0.00000000000E+00 0. -1.
          1   -1    0    0  501    0 -0.00000000000E+00 -0.00000000000E+00 -0.28110702784E+03  0.28110702784E+03  0.00000000000E+00 0. -1.
         25    2    1    2    0    0  0.82758102861E+02 -0.11231406451E+03 -0.10271197889E+02  0.18760100682E+03  0.12500115031E+03 0.  0.
          2    1    1    2  501    0 -0.17336143927E+02  0.53096524447E+02 -0.17381873037E+03  0.18257254400E+03  0.00000000000E+00 0. -1.
          1    1    1    2  502    0 -0.65421958935E+02  0.59217540063E+02  0.48572188461E+03  0.49367246120E+03  0.00000000000E+00 0. -1.
         22    1    3    3    0    0  0.33422728657E+02 -0.19888980149E+02 -0.60100091270E+02  0.71586809490E+02  0.00000000000E+00 0. -1.
         22    1    3    3    0    0  0.49335374204E+02 -0.92425084361E+02  0.49828893381E+02  0.11601419733E+03  0.00000000000E+00 0. -1.
</event>
<event>
 7    1  0.5854318E-006  0.5071024E+02  0.7818608E-02  0.1569055E+00
          2   -1    0    0  502    0  0.00000000000E+00  0.00000000000E+00  0.24491220591E+04  0.24491220591E+04  0.00000000000E+00 0. -1.
          1   -1    0    0  501    0 -0.00000000000E+00 -0.00000000000E+00 -0.23890727672E+02  0.23890727672E+02  0.00000000000E+00 0. -1.
         25    2    1    2    0    0  0.80998976232E+01 -0.61799443937E+02  0.67956878888E+03  0.69377565531E+03  0.12500456582E+03 0.  0.
          2    1    1    2  501    0  0.13465307775E+02  0.16394058686E+02 -0.95779974247E+01  0.23276978076E+02  0.00000000000E+00 0. -1.
          1    1    1    2  502    0 -0.21565205399E+02  0.45405385250E+02  0.17552405400E+04  0.17559601534E+04  0.00000000000E+00 0. -1.
         22    1    3    3    0    0  0.61748596923E+02 -0.29294491764E+02  0.47240700629E+03  0.47732529376E+03  0.00000000000E+00 0. -1.
         22    1    3    3    0    0 -0.53648699299E+02 -0.32504952173E+02  0.20716178259E+03  0.21645036156E+03  0.00000000000E+00 0. -1.
</event>
<event>
 7    1  0.5854318E-006  0.1443942E+03  0.7818608E-02  0.1286611E+00
          2   -1    0    0  502    0  0.00000000000E+00  0.00000000000E+00  0.42529328406E+03  0.42529328406E+03  0.00000000000E+00 0. -1.
          1   -1    0    0  501    0 -0.00000000000E+00 -0.00000000000E+00 -0.21177284287E+04  0.21177284287E+04  0.00000000000E+00 0. -1.
         25    2    1    2    0    0  0.14587725144E+03  0.63857914350E+02 -0.48291129156E+02  0.20812239638E+03  0.12499957203E+03 0.  0.
          2    1    1    2  501    0 -0.14434374940E+03  0.13617310986E+01 -0.19837950123E+04  0.19890398747E+04  0.00000000000E+00 0. -1.
          1    1    1    2  502    0 -0.15335020455E+01 -0.65219645449E+02  0.33965099680E+03  0.34585944169E+03  0.00000000000E+00 0. -1.
         22    1    3    3    0    0  0.80594400545E+02 -0.29102004587E+02 -0.27252757458E+01  0.85731039875E+02  0.00000000000E+00 0.  1.
         22    1    3    3    0    0  0.65282850896E+02  0.92959918938E+02 -0.45565853411E+02  0.12239135650E+03  0.00000000000E+00 0.  1.
</event>
<event>
 7    1  0.5854318E-006  0.1027293E+03  0.7818608E-02  0.1429927E+00
          2   -1    0    0  502    0  0.00000000000E+00  0.00000000000E+00  0.10573587376E+04  0.10573587376E+04  0.00000000000E+00 0. -1.
          1   -1    0    0  501    0 -0.00000000000E+00 -0.00000000000E+00 -0.11230260076E+03  0.11230260076E+03  0.00000000000E+00 0. -1.
         25    2    1    2    0    0 -0.59247207589E+02 -0.11409083408E+03  0.27066936824E+02  0.18134022500E+03  0.12499883241E+03 0.  0.
          2    1    1    2  501    0  0.79619304597E+01  0.26131578526E+02 -0.26677583524E+02  0.38183048537E+02  0.00000000000E+00 0. -1.
          1    1    1    2  502    0  0.51285277129E+02  0.87959255558E+02  0.94466678357E+03  0.95013806484E+03  0.00000000000E+00 0. -1.
         22    1    3    3    0    0 -0.64710000114E+02 -0.56329669746E+01  0.32454408345E+02  0.72611314908E+02  0.00000000000E+00 0.  1.
         22    1    3    3    0    0  0.54627925250E+01 -0.10845786711E+03 -0.53874715209E+01  0.10872891009E+03  0.00000000000E+00 0.  1.
</event>
<event>
 7    1  0.1055786E-005  0.1004962E+03  0.7818608E-02  0.1348093E+00
          2   -1    0    0  502    0  0.00000000000E+00  0.00000000000E+00  0.15539512016E+04  0.15539512016E+04  0.00000000000E+00 0. -1.
          1   -1    0    0  501    0 -0.00000000000E+00 -0.00000000000E+00 -0.23936555004E+04  0.23936555004E+04  0.00000000000E+00 0. -1.
         25    2    1    2    0    0  0.34474723206E+02 -0.12987039059E+03 -0.87881667000E+03  0.89777452176E+03  0.12500211022E+03 0.  0.
          2    1    1    2  501    0  0.24128930202E+02  0.48287190728E+02 -0.15032416750E+04  0.15042105543E+04  0.00000000000E+00 0. -1.
          1    1    1    2  502    0 -0.58603653408E+02  0.81583199860E+02  0.15423540462E+04  0.15456216260E+04  0.00000000000E+00 0. -1.
         22    1    3    3    0    0 -0.17865917171E+02 -0.65208559174E+02 -0.15385952881E+03  0.16805981611E+03  0.00000000000E+00 0.  1.
         22    1    3    3    0    0  0.52340640377E+02 -0.64661831413E+02 -0.72495714119E+03  0.72971470565E+03  0.00000000000E+00 0.  1.
</event>
<event>
 7    1  0.5854318E-006  0.1046080E+03  0.7818608E-02  0.1398938E+00
          2   -1    0    0  502    0  0.00000000000E+00  0.00000000000E+00  0.24851664223E+03  0.24851664223E+03  0.00000000000E+00 0. -1.
          1   -1    0    0  501    0 -0.00000000000E+00 -0.00000000000E+00 -0.34792529612E+03  0.34792529612E+03  0.00000000000E+00 0. -1.
         25    2    1    2    0    0  0.66818380125E+02 -0.99522269317E+02  0.37727495054E+02  0.17725459460E+03  0.12500579751E+03 0.  0.
          2    1    1    2  501    0 -0.32727849641E+02  0.98276970680E+02 -0.26622544756E+03  0.28566670096E+03  0.00000000000E+00 0. -1.
          1    1    1    2  502    0 -0.34090530485E+02  0.12452986376E+01  0.12908929861E+03  0.13352064279E+03  0.00000000000E+00 0. -1.
         22    1    3    3    0    0  0.67222337034E+02 -0.70899811447E+02 -0.31246362510E+02  0.10257661054E+03  0.00000000000E+00 0. -1.
         22    1    3    3    0    0 -0.40395690875E+00 -0.28622457871E+02  0.68973857565E+02  0.74677984059E+02  0.00000000000E+00 0. -1.
</event>
<event>
 7    1  0.5854318E-006  0.1436981E+03  0.7818608E-02  0.1389850E+00
          2   -1    0    0  502    0  0.00000000000E+00  0.00000000000E+00  0.41243618166E+04  0.41243618166E+04  0.00000000000E+00 0. -1.
          1   -1    0    0  501    0 -0.00000000000E+00 -0.00000000000E+00 -0.57623942366E+03  0.57623942366E+03  0.00000000000E+00 0. -1.
         25    2    1    2    0    0 -0.10037622779E+03 -0.64742495181E+02 -0.20585316015E+03  0.26882448245E+03  0.12499640407E+03 0.  0.
          2    1    1    2  501    0 -0.13609734376E+02 -0.22973512632E+02 -0.33710890825E+03  0.33816478701E+03  0.00000000000E+00 0. -1.
          1    1    1    2  502    0  0.11398596216E+03  0.87716007812E+02  0.40910844613E+04  0.40936119708E+04  0.00000000000E+00 0. -1.
         22    1    3    3    0    0 -0.56296113572E+01 -0.72190328648E+02 -0.56708403791E+02  0.91972708642E+02  0.00000000000E+00 0.  1.
         22    1    3    3    0    0 -0.94746616430E+02  0.74478334672E+01 -0.14914475636E+03  0.17685177381E+03  0.00000000000E+00 0.  1.
</event>
<event>
 7    1  0.5854318E-006  0.6174337E+02  0.7818608E-02  0.1530789E+00
          2   -1    0    0  502    0  0.00000000000E+00  0.00000000000E+00  0.19093880033E+03  0.19093880033E+03  0.00000000000E+00 0. -1.
          1   -1    0    0  501    0 -0.00000000000E+00 -0.00000000000E+00 -0.95665552095E+03  0.95665552095E+03  0.00000000000E+00 0. -1.
         25    2    1    2    0    0  0.25910950178E+02  0.69594812640E+02 -0.27484628958E+03  0.31093818703E+03  0.12500903156E+03 0.  0.
          2    1    1    2  501    0 -0.35558597208E+02 -0.49511706464E+02 -0.66163856472E+03  0.66444067699E+03  0.00000000000E+00 0. -1.
          1    1    1    2  502    0  0.96476470300E+01 -0.20083106176E+02  0.17076813367E+03  0.17221545727E+03  0.00000000000E+00 0. -1.
         22    1    3    3    0    0  0.10176899390E+02 -0.28312400780E+02 -0.16720494338E+02  0.34419997822E+02  0.00000000000E+00 0.  1.
         22    1    3    3    0    0  0.15734050788E+02  0.97907213420E+02 -0.25812579524E+03  0.27651818920E+03  0.00000000000E+00 0.  1.
</event>
<event>
 7    1  0.5854318E-006  0.5684000E+02  0.7818608E-02  0.1538975E+00
          2   -1    0    0  502    0  0.00000000000E+00  0.00000000000E+00  0.24917206654E+04  0.24917206654E+04  0.00000000000E+00 0. -1.
          1   -1    0    0  501    0 -0.00000000000E+00 -0.00000000000E+00 -0.48480723407E+03  0.48480723407E+03  0.00000000000E+00 0. -1.
         25    2    1    2    0    0 -0.44041686022E+02  0.58673840086E+02  0.12630544538E+04  0.12713433698E+04  0.12500048498E+03 0.  0.
          2    1    1    2  501    0  0.44176355574E+02 -0.35736249170E+02 -0.47887557348E+03  0.48223484401E+03  0.00000000000E+00 0. -1.
          1    1    1    2  502    0 -0.13466955272E+00 -0.22937590916E+02  0.12227345510E+04  0.12229496856E+04  0.00000000000E+00 0. -1.
         22    1    3    3    0    0 -0.44224111536E+02  0.44018535744E+02  0.23375785068E+03  0.24194242349E+03  0.00000000000E+00 0.  1.
         22    1    3    3    0    0  0.18242551418E+00  0.14655304342E+02  0.10292966031E+04  0.10294009463E+04  0.00000000000E+00 0.  1.
</event>
<event>
 7    1  0.5854318E-006  0.1216751E+03  0.7818608E-02  0.1408967E+00
          2   -1    0    0  502    0  0.00000000000E+00  0.00000000000E+00  0.28986793305E+04  0.28986793305E+04  0.00000000000E+00 0. -1.
          1   -1    0    0  501    0 -0.00000000000E+00 -0.00000000000E+00 -0.65581748266E+03  0.65581748266E+03  0.00000000000E+00 0. -1.
         25    2    1    2    0    0  0.36098328514E+02  0.13446634663E+03  0.21076009688E+03  0.28183018575E+03  0.12499658983E+03 0.  0.
          2    1    1    2  501    0  0.12964767354E+02 -0.23799689312E+02 -0.61860434615E+03  0.61919774505E+03  0.00000000000E+00 0. -1.
          1    1    1    2  502    0 -0.49063095867E+02 -0.11066665732E+03  0.26507060972E+04  0.26534688824E+04  0.00000000000E+00 0. -1.
         22    1    3    3    0    0  0.56811391942E+02  0.74324039958E+02  0.19502828318E+03  0.21630448079E+03  0.00000000000E+00 0.  1.
         22    1    3    3    0    0 -0.20713063428E+02  0.60142306673E+02  0.15731813696E+02  0.65525704961E+02  0.00000000000E+00 0.  1.
</event>
<event>
 7    1  0.5854318E-006  0.2429222E+03  0.7818608E-02  0.1216164E+00
          2   -1    0    0  502    0  0.00000000000E+00  0.00000000000E+00  0.27955356731E+04  0.27955356731E+04  0.00000000000E+00 0. -1.
          1   -1    0    0  501    0 -0.00000000000E+00 -0.00000000000E+00 -0.14861922655E+03  0.14861922655E+03  0.00000000000E+00 0. -1.
         25    2    1    2    0    0  0.24756436838E+03  0.14419207627E+03  0.25356182381E+03  0.40249018469E+03  0.12500111570E+03 0.  0.
          2    1    1    2  501    0 -0.74947658078E+02  0.22657118577E+02 -0.45809939137E+02  0.90714094810E+02  0.00000000000E+00 0. -1.
          1    1    1    2  502    0 -0.17261671030E+03 -0.16684919485E+03  0.24391645619E+04  0.24509506202E+04  0.00000000000E+00 0. -1.
         22    1    3    3    0    0  0.69837803002E+02  0.20506477049E+02  0.14046684405E+03  0.15820483117E+03  0.00000000000E+00 0.  1.
         22    1    3    3    0    0  0.17772656537E+03  0.12368559923E+03  0.11309497976E+03  0.24428535352E+03  0.00000000000E+00 0.  1.
</event>
<event>
 7    1  0.5854318E-006  0.2442758E+03  0.7818608E-02  0.1258663E+00
          2   -1    0    0  502    0  0.00000000000E+00  0.00000000000E+00  0.37505386427E+04  0.37505386427E+04  0.00000000000E+00 0. -1.
          1   -1    0    0  501    0 -0.00000000000E+00 -0.00000000000E+00 -0.32117032932E+03  0.32117032932E+03  0.00000000000E+00 0. -1.
         25    2    1    2    0    0  0.12049950687E+03 -0.24877684048E+03  0.13196532775E+01  0.30337588432E+03  0.12500055274E+03 0.  0.
          2    1    1    2  501    0 -0.86990851699E+02  0.21103334081E+03 -0.93322662195E+02  0.24660007805E+03  0.00000000000E+00 0. -1.
          1    1    1    2  502    0 -0.33508655166E+02  0.37743499668E+02  0.35213713223E+04  0.35217330097E+04  0.00000000000E+00 0. -1.
         22    1    3    3    0    0 -0.13890042189E+02 -0.17502219241E+02 -0.26251453678E+02  0.34473174652E+02  0.00000000000E+00 0.  1.
         22    1    3    3    0    0  0.13438954905E+03 -0.23127462124E+03  0.27571106956E+02  0.26890270966E+03  0.00000000000E+00 0.  1.
</event>
<event>
 7    1  0.5854318E-006  0.6007172E+02  0.7818608E-02  0.1458413E+00
          2   -1    0    0  502    0  0.00000000000E+00  0.00000000000E+00  0.30900466978E+04  0.30900466978E+04  0.00000000000E+00 0. -1.
          1   -1    0    0  501    0 -0.00000000000E+00 -0.00000000000E+00 -0.50361528128E+02  0.50361528128E+02  0.00000000000E+00 0. -1.
         25    2    1    2    0    0  0.14375465436E+02  0.38626122017E+02  0.11092094795E+04  0.11169910865E+04  0.12499914631E+03 0.  0.
          2    1    1    2  501    0 -0.51555141376E+02 -0.31775117103E+02 -0.26479680431E+02  0.66096627334E+02  0.00000000000E+00 0. -1.
          1    1    1    2  502    0  0.37179675939E+02 -0.68510049133E+01  0.19569553706E+04  0.19573205121E+04  0.00000000000E+00 0. -1.
         22    1    3    3    0    0  0.25485319228E+02 -0.16526638731E+02  0.70575306462E+02  0.76834270779E+02  0.00000000000E+00 0. -1.
         22    1    3    3    0    0 -0.11109853792E+02  0.55152760747E+02  0.10386341730E+04  0.10401568157E+04  0.00000000000E+00 0. -1.
</event>
<event>
 7    1  0.5854318E-006  0.5893797E+02  0.7818608E-02  0.1509408E+00
          2   -1    0    0  502    0  0.00000000000E+00  0.00000000000E+00  0.33772339503E+03  0.33772339503E+03  0.00000000000E+00 0. -1.
          1   -1    0    0  501    0 -0.00000000000E+00 -0.00000000000E+00 -0.21287582149E+03  0.21287582149E+03  0.00000000000E+00 0. -1.
         25    2    1    2    0    0  0.68500072552E+02 -0.38154506703E+02 -0.74093711129E+02  0.16511583534E+03  0.12500133891E+03 0.  0.
          2    1    1    2  501    0 -0.11643519390E+02  0.24280147960E+02 -0.88313394913E+02  0.92327421982E+02  0.00000000000E+00 0. -1.
          1    1    1    2  502    0 -0.56856553162E+02  0.13874358743E+02  0.28725467959E+03  0.29315595920E+03  0.00000000000E+00 0. -1.
         22    1    3    3    0    0  0.58485618260E+02 -0.13499007005E+01  0.21395148193E+02  0.62290786970E+02  0.00000000000E+00 0. -1.
         22    1    3    3    0    0  0.10014454293E+02 -0.36804606002E+02 -0.95488859322E+02  0.10282504837E+03  0.00000000000E+00 0. -1.
</event>
<event>
 7    1  0.5854318E-006  0.3123362E+02  0.7818608E-02  0.1643150E+00
          2   -1    0    0  502    0  0.00000000000E+00  0.00000000000E+00  0.33416332028E+03  0.33416332028E+03  0.00000000000E+00 0. -1.
          1   -1    0    0  501    0 -0.00000000000E+00 -0.00000000000E+00 -0.39274644097E+03  0.39274644097E+03  0.00000000000E+00 0. -1.
         25    2    1    2    0    0  0.19747091674E+02 -0.48482183143E+02 -0.62581281089E+02  0.14926955907E+03  0.12499805922E+03 0.  0.
          2    1    1    2  501    0 -0.38373243625E+01  0.21791717703E+02 -0.28556182235E+03  0.28641780392E+03  0.00000000000E+00 0. -1.
          1    1    1    2  502    0 -0.15909767311E+02  0.26690465441E+02  0.28955998275E+03  0.29122239827E+03  0.00000000000E+00 0. -1.
         22    1    3    3    0    0  0.30134585140E+02 -0.74312192892E+02 -0.82489775535E+02  0.11504328882E+03  0.00000000000E+00 0. -1.
         22    1    3    3    0    0 -0.10387493467E+02  0.25830009749E+02  0.19908494446E+02  0.34226270250E+02  0.00000000000E+00 0. -1.
</event>
<event>
 7    1  0.5854318E-006  0.6209216E+02  0.7818608E-02  0.1395337E+00
          2   -1    0    0  502    0  0.00000000000E+00  0.00000000000E+00  0.74831616842E+03  0.74831616842E+03  0.00000000000E+00 0. -1.
          1   -1    0    0  501    0 -0.00000000000E+00 -0.00000000000E+00 -0.13166836143E+04  0.13166836143E+04  0.00000000000E+00 0. -1.
         25    2    1    2    0    0 -0.12140602441E+01 -0.24880901816E+02  0.50703988556E+02  0.13717375502E+03  0.12500084557E+03 0.  0.
          2    1    1    2  501    0 -0.59045791421E+02  0.33489419917E+01 -0.12711951802E+04  0.12725701580E+04  0.00000000000E+00 0. -1.
          1    1    1    2  502    0  0.60259851665E+02  0.21531959824E+02  0.65212374574E+03  0.65525586970E+03  0.00000000000E+00 0. -1.
         22    1    3    3    0    0  0.23935479543E+02 -0.57823763834E+02  0.67865303932E+02  0.92315731718E+02  0.00000000000E+00 0.  1.
         22    1    3    3    0    0 -0.25149539787E+02  0.32942862018E+02 -0.17161315376E+02  0.44858023306E+02  0.00000000000E+00 0.  1.
</event>
<event>
 7    1  0.5854318E-006  0.1284605E+03  0.7818608E-02  0.1249945E+00
          2   -1    0    0  502    0  0.00000000000E+00  0.00000000000E+00  0.15151840565E+04  0.15151840565E+04  0.00000000000E+00 0. -1.
          1   -1    0    0  501    0 -0.00000000000E+00 -0.00000000000E+00 -0.43996450366E+03  0.43996450366E+03  0.00000000000E+00 0. -1.
         25    2    1    2    0    0 -0.54661958174E+02  0.51569627913E+02 -0.94720419366E+02  0.17388320690E+03  0.12496421728E+03 0.  0.
          2    1    1    2  501    0  0.15815179369E+03 -0.36069080593E+02 -0.28212517634E+03  0.32543445353E+03  0.00000000000E+00 0. -1.
          1    1    1    2  502    0 -0.10348983552E+03 -0.15500547320E+02  0.14520651485E+04  0.14558308997E+04  0.00000000000E+00 0. -1.
         22    1    3    3    0    0 -0.68987461087E+02  0.37825047760E+02 -0.11891500864E+03  0.14258605579E+03  0.00000000000E+00 0. -1.
         22    1    3    3    0    0  0.14325502913E+02  0.13744580154E+02  0.24194589275E+02  0.31297151108E+02  0.00000000000E+00 0. -1.
</event>
<event>
 7    1  0.5854318E-006  0.1674956E+03  0.7818608E-02  0.1197621E+00
          2   -1    0    0  502    0  0.00000000000E+00  0.00000000000E+00  0.28583810503E+04  0.28583810503E+04  0.00000000000E+00 0. -1.
          1   -1    0    0  501    0 -0.00000000000E+00 -0.00000000000E+00 -0.44124477147E+03  0.44124477147E+03  0.00000000000E+00 0. -1.
         25    2    1    2    0    0  0.23500345564E+03 -0.11078601520E+03  0.51184325949E+03  0.58746083028E+03  0.12500615785E+03 0.  0.
          2    1    1    2  501    0 -0.98270017398E+02  0.13323282398E+03 -0.38426870954E+03  0.41841417619E+03  0.00000000000E+00 0. -1.
          1    1    1    2  502    0 -0.13673343824E+03 -0.22446808779E+02  0.22895617289E+04  0.22937508153E+04  0.00000000000E+00 0. -1.
         22    1    3    3    0    0 -0.74116379756E+01  0.43570664121E+01  0.69811496845E+02  0.70338904576E+02  0.00000000000E+00 0.  1.
         22    1    3    3    0    0  0.24241509362E+03 -0.11514308161E+03  0.44203176264E+03  0.51712192570E+03  0.00000000000E+00 0.  1.
</event>
<event>
 7    1  0.5854318E-006  0.2336777E+03  0.7818608E-02  0.1131931E+00
          2   -1    0    0  502    0  0.00000000000E+00  0.00000000000E+00  0.13929484101E+04  0.13929484101E+04  0.00000000000E+00 0. -1.
          1   -1    0    0  501    0 -0.00000000000E+00 -0.00000000000E+00 -0.81353224930E+03  0.81353224930E+03  0.00000000000E+00 0. -1.
         25    2    1    2    0    0 -0.14340732520E+03 -0.23499527793E+03  0.72873208692E+03  0.78896385689E+03  0.12500028560E+03 0.  0.
          2    1    1    2  501    0  0.23107483386E+03  0.41836958146E+02 -0.74713973124E+03  0.78317538771E+03  0.00000000000E+00 0. -1.
          1    1    1    2  502    0 -0.87667508665E+02  0.19315831979E+03  0.59782380511E+03  0.63434141481E+03  0.00000000000E+00 0. -1.
         22    1    3    3    0    0 -0.90332006060E+02 -0.22051937285E+03  0.65475428843E+03  0.69677244731E+03  0.00000000000E+00 0. -1.
         22    1    3    3    0    0 -0.53075319139E+02 -0.14475905079E+02  0.73977798492E+02  0.92191409574E+02  0.00000000000E+00 0. -1.
</event>
<event>
 7    1  0.5854318E-006  0.5985697E+02  0.7818608E-02  0.1420979E+00
          2   -1    0    0  502    0  0.00000000000E+00  0.00000000000E+00  0.22466669118E+03  0.22466669118E+03  0.00000000000E+00 0. -1.
          1   -1    0    0  501    0 -0.00000000000E+00 -0.00000000000E+00 -0.13171980351E+04  0.13171980351E+04  0.00000000000E+00 0. -1.
         25    2    1    2    0    0  0.15772726789E+02  0.10492365663E+03 -0.16419027285E+03  0.23203150676E+03  0.12498968677E+03 0.  0.
          2    1    1    2  501    0 -0.20955334207E+02 -0.54995425901E+02 -0.11149951832E+04  0.11165473037E+04  0.00000000000E+00 0. -1.
          1    1    1    2  502    0  0.51826074175E+01 -0.49928230725E+02  0.18665411217E+03  0.19328591576E+03  0.00000000000E+00 0. -1.
         22    1    3    3    0    0  0.21377917632E+02  0.68173526471E+02 -0.84838033667E+01  0.71948731701E+02  0.00000000000E+00 0.  1.
         22    1    3    3    0    0 -0.56051908424E+01  0.36750130154E+02 -0.15570646949E+03  0.16008277506E+03  0.00000000000E+00 0.  1.
</event>
<event>
 7    1  0.5854318E-006  0.9610712E+02  0.7818608E-02  0.1351761E+00
          2   -1    0    0  502    0  0.00000000000E+00  0.00000000000E+00  0.11294647165E+03  0.11294647165E+03  0.00000000000E+00 0. -1.
          1   -1    0    0  501    0 -0.00000000000E+00 -0.00000000000E+00 -0.13532067424E+04  0.13532067424E+04  0.00000000000E+00 0. -1.
         25    2    1    2    0    0 -0.52296697562E+02  0.45887865810E+02 -0.10624469996E+03  0.17819928493E+03  0.12500563217E+03 0.  0.
          2    1    1    2  501    0  0.16103466040E+02  0.52282482821E+02 -0.11744938389E+04  0.11757672207E+04  0.00000000000E+00 0. -1.
          1    1    1    2  502    0  0.36193231522E+02 -0.98170348631E+02  0.40478268126E+02  0.11218670843E+03  0.00000000000E+00 0. -1.
         22    1    3    3    0    0 -0.90765624387E+01  0.57737741270E+02  0.46101892268E+01  0.58628360009E+02  0.00000000000E+00 0.  1.
         22    1    3    3    0    0 -0.43220135123E+02 -0.11849875460E+02 -0.11085488919E+03  0.11957092492E+03  0.00000000000E+00 0.  1.
</event>
<event>
 7    1  0.5854318E-006  0.5873608E+02  0.7818608E-02  0.1426561E+00
          2   -1    0    0  502    0  0.00000000000E+00  0.00000000000E+00  0.30976227249E+04  0.30976227249E+04  0.00000000000E+00 0. -1.
          1   -1    0    0  501    0 -0.00000000000E+00 -0.00000000000E+00 -0.89389664446E+03  0.89389664446E+03  0.00000000000E+00 0. -1.
         25    2    1    2    0    0  0.16197742786E+02  0.46378495191E+02  0.22376022957E+03  0.26097167509E+03  0.12499697265E+03 0.  0.
          2    1    1    2  501    0  0.32753712567E+02 -0.48899122707E+02 -0.87409087930E+03  0.87607008576E+03  0.00000000000E+00 0. -1.
          1    1    1    2  502    0 -0.48951455353E+02  0.25206275164E+01  0.28540567302E+04  0.28544776086E+04  0.00000000000E+00 0. -1.
         22    1    3    3    0    0  0.61199550475E+02  0.20887967830E+02  0.18603925680E+03  0.19695760267E+03  0.00000000000E+00 0. -1.
         22    1    3    3    0    0 -0.45001807689E+02  0.25490527361E+02  0.37720972770E+02  0.64014072415E+02  0.00000000000E+00 0. -1.
</event>
<event>
 7    1  0.5854318E-006  0.1190512E+03  0.7818608E-02  0.1301966E+00
          2   -1    0    0  502    0  0.00000000000E+00  0.00000000000E+00  0.62892441740E+03  0.62892441740E+03  0.00000000000E+00 0. -1.
          1   -1    0    0  501    0 -0.00000000000E+00 -0.00000000000E+00 -0.20341495027E+03  0.20341495027E+03  0.00000000000E+00 0. -1.
         25    2    1    2    0    0  0.16570432278E+03 -0.34624710738E+02  0.32566445909E+03  0.38773561025E+03  0.12499908143E+03 0.  0.
          2    1    1    2  501    0 -0.68593214828E+02 -0.13461858300E+00 -0.15509640889E+03  0.16958756821E+03  0.00000000000E+00 0. -1.
          1    1    1    2  502    0 -0.97111107948E+02  0.34759329321E+02  0.25494141692E+03  0.27501618920E+03  0.00000000000E+00 0. -1.
         22    1    3    3    0    0  0.58490068284E+02  0.28737667121E+02  0.40927299432E+02  0.76954437418E+02  0.00000000000E+00 0.  1.
         22    1    3    3    0    0  0.10721425449E+03 -0.63362377859E+02  0.28473715966E+03  0.31078117283E+03  0.00000000000E+00 0.  1.
</event>
<event>
 7    1  0.5854318E-006  0.1328141E+03  0.7818608E-02  0.1260086E+00
          2   -1    0    0  502    0  0.00000000000E+00  0.00000000000E+00  0.13977560894E+04  0.13977560894E+04  0.00000000000E+00 0. -1.
          1   -1    0    0  501    0 -0.00000000000E+00 -0.00000000000E+00 -0.13846564727E+03  0.13846564727E+03  0.00000000000E+00 0. -1.
         25    2    1    2    0    0  0.12504803925E+02  0.57813722914E+02  0.42524437470E+02  0.14468007866E+03  0.12500080280E+03 0.  0.
          2    1    1    2  501    0 -0.52302918071E+02  0.75125110089E+02 -0.58573414100E+02  0.10867484642E+03  0.00000000000E+00 0. -1.
          1    1    1    2  502    0  0.39798114146E+02 -0.13293883300E+03  0.12753394188E+04  0.12828668116E+04  0.00000000000E+00 0. -1.
         22    1    3    3    0    0 -0.18858150201E+02 -0.26954483874E+02 -0.16427308548E+02  0.36769967311E+02  0.00000000000E+00 0. -1.
         22    1    3    3    0    0  0.31362954127E+02  0.84768206788E+02  0.58951746019E+02  0.10791011135E+03  0.00000000000E+00 0. -1.
</event>
<event>
 7    1  0.5854318E-006  0.3442697E+02  0.7818608E-02  0.1610649E+00
          2   -1    0    0  502    0  0.00000000000E+00  0.00000000000E+00  0.15349171891E+04  0.15349171891E+04  0.00000000000E+00 0. -1.
          1   -1    0    0  501    0 -0.00000000000E+00 -0.00000000000E+00 -0.25238824855E+03  0.25238824855E+03  0.00000000000E+00 0. -1.
         25    2    1    2    0    0  0.31230835422E+02 -0.45255375531E+02 -0.70362255535E+02  0.15361811310E+03  0.12499705426E+03 0.  0.
          2    1    1    2  501    0 -0.25573091724E+02  0.21674829249E+02 -0.13829701428E+03  0.14230195150E+03  0.00000000000E+00 0. -1.
          1    1    1    2  502    0 -0.56577436981E+01  0.23580546282E+02  0.14911882103E+04  0.14913853730E+04  0.00000000000E+00 0. -1.
         22    1    3    3    0    0 -0.30627790676E+02  0.72025107308E+01  0.15867376627E+02  0.35237925075E+02  0.00000000000E+00 0.  1.
         22    1    3    3    0    0  0.61858626099E+02 -0.52457886262E+02 -0.86229632163E+02  0.11838018802E+03  0.00000000000E+00 0.  1.
</event>
<event>
 7    1  0.5854318E-006  0.7563201E+02  0.7818608E-02  0.1372786E+00
          2   -1    0    0  502    0  0.00000000000E+00  0.00000000000E+00  0.88817125109E+03  0.88817125109E+03  0.00000000000E+00 0. -1.
          1   -1    0    0  501    0 -0.00000000000E+00 -0.00000000000E+00 -0.11631584809E+04  0.11631584809E+04  0.00000000000E+00 0. -1.
         25    2    1    2    0    0 -0.37718021088E+02  0.12206518041E+03 -0.97094762173E+03  0.98726224061E+03  0.12499956083E+03 0.  0.
          2    1    1    2  501    0 -0.26962795119E+01 -0.58230394499E+02 -0.17776648368E+03  0.18708012050E+03  0.00000000000E+00 0. -1.
          1    1    1    2  502    0  0.40414300600E+02 -0.63834785912E+02  0.87372687558E+03  0.87698737089E+03  0.00000000000E+00 0. -1.
         22    1    3    3    0    0 -0.45918184291E+02  0.41440230532E+02 -0.14898645435E+03  0.16131564070E+03  0.00000000000E+00 0.  1.
         22    1    3    3    0    0  0.82001632027E+01  0.80624949879E+02 -0.82196116738E+03  0.82594659991E+03  0.00000000000E+00 0.  1.
</event>
<event>
 7    1  0.5854318E-006  0.5743875E+02  0.7818608E-02  0.1470673E+00
          2   -1    0    0  502    0  0.00000000000E+00  0.00000000000E+00  0.27762325957E+03  0.27762325957E+03  0.00000000000E+00 0. -1.
          1   -1    0    0  501    0 -0.00000000000E+00 -0.00000000000E+00 -0.32316996294E+03  0.32316996294E+03  0.00000000000E+00 0. -1.
         25    2    1    2    0    0  0.23680265201E+02  0.95525663439E+01  0.38652477241E+02  0.13330884397E+03  0.12500090960E+03 0.  0.
          2    1    1    2  501    0 -0.42454108869E+02 -0.40492587508E+02 -0.27096543967E+03  0.27724406305E+03  0.00000000000E+00 0. -1.
          1    1    1    2  502    0  0.18773843669E+02  0.30940021164E+02  0.18676625906E+03  0.19024031549E+03  0.00000000000E+00 0. -1.
         22    1    3    3    0    0 -0.37134196536E+02 -0.74571825274E+01 -0.23606731394E+02  0.44629988693E+02  0.00000000000E+00 0.  1.
         22    1    3    3    0    0  0.60814461737E+02  0.17009748871E+02  0.62259208635E+02  0.88678855275E+02  0.00000000000E+00 0.  1.
</event>
<event>
 7    1  0.5854318E-006  0.9371334E+02  0.7818608E-02  0.1315883E+00
          2   -1    0    0  502    0  0.00000000000E+00  0.00000000000E+00  0.14682379969E+04  0.14682379969E+04  0.00000000000E+00 0. -1.
          1   -1    0    0  501    0 -0.00000000000E+00 -0.00000000000E+00 -0.12524247788E+04  0.12524247788E+04  0.00000000000E+00 0. -1.
         25    2    1    2    0    0  0.14900651668E+03 -0.77284284527E+02  0.35204902153E+02  0.21222573922E+03  0.12499830640E+03 0.  0.
          2    1    1    2  501    0 -0.76351080825E+02  0.52441989056E+02 -0.11609719796E+04  0.11646611469E+04  0.00000000000E+00 0. -1.
          1    1    1    2  502    0 -0.72655435851E+02  0.24842295471E+02  0.13415802956E+04  0.13437758896E+04  0.00000000000E+00 0. -1.
         22    1    3    3    0    0  0.42246584491E+02 -0.90507982275E+02  0.29786782804E+01  0.99926679525E+02  0.00000000000E+00 0.  1.
         22    1    3    3    0    0  0.10675993219E+03  0.13223697748E+02  0.32226223873E+02  0.11229905969E+03  0.00000000000E+00 0.  1.
</event>
<event>
 7    1  0.5854318E-006  0.1558730E+03  0.7818608E-02  0.1274037E+00
          2   -1    0    0  502    0  0.00000000000E+00  0.00000000000E+00  0.49653106552E+03  0.49653106552E+03  0.00000000000E+00 0. -1.
          1   -1    0    0  501    0 -0.00000000000E+00 -0.00000000000E+00 -0.31055097417E+03  0.31055097417E+03  0.00000000000E+00 0. -1.
         25    2    1    2    0    0 -0.13778069441E+03  0.16114237745E+03  0.66305474352E+02  0.25489707616E+03  0.12500287173E+03 0.  0.
          2    1    1    2  501    0  0.31716552485E+02 -0.60274913977E+02 -0.19423362888E+03  0.20582931653E+03  0.00000000000E+00 0. -1.
          1    1    1    2  502    0  0.10606414193E+03 -0.10086746347E+03  0.31390824587E+03  0.34635564701E+03  0.00000000000E+00 0. -1.
         22    1    3    3    0    0 -0.54211819024E+02  0.33053547895E+02  0.79090942413E+02  0.10142403819E+03  0.00000000000E+00 0. -1.
         22    1    3    3    0    0 -0.83568875386E+02  0.12808882955E+03 -0.12785468061E+02  0.15347303797E+03  0.00000000000E+00 0. -1.
</event>
<event>
 7    1  0.5854318E-006  0.1321434E+03  0.7818608E-02  0.1401876E+00
          2   -1    0    0  502    0  0.00000000000E+00  0.00000000000E+00  0.12178933766E+03  0.12178933766E+03  0.00000000000E+00 0. -1.
          1   -1    0    0  501    0 -0.00000000000E+00 -0.00000000000E+00 -0.15917178710E+04  0.15917178710E+04  0.00000000000E+00 0. -1.
         25    2    1    2    0    0 -0.23556575753E+02 -0.15246745030E+03 -0.23578236841E+03  0.30825677803E+03  0.12501072069E+03 0.  0.
          2    1    1    2  501    0  0.78175987849E+01  0.25199588924E+02 -0.12714294518E+04  0.12717031827E+04  0.00000000000E+00 0. -1.
          1    1    1    2  502    0  0.15738976968E+02  0.12726786138E+03  0.37283286864E+02  0.13354724788E+03  0.00000000000E+00 0. -1.
         22    1    3    3    0    0  0.19319094814E+02 -0.10358924409E+03 -0.60965625183E+02  0.12174056994E+03  0.00000000000E+00 0.  1.
         22    1    3    3    0    0 -0.42875670567E+02 -0.48878206215E+02 -0.17481674323E+03  0.18651620809E+03  0.00000000000E+00 0.  1.
</event>
<event>
 7    1  0.5854318E-006  0.1011370E+03  0.7818608E-02  0.1327902E+00
          2   -1    0    0  502    0  0.00000000000E+00  0.00000000000E+00  0.60275665450E+03  0.60275665450E+03  0.00000000000E+00 0. -1.
          1   -1    0    0  501    0 -0.00000000000E+00 -0.00000000000E+00 -0.18165205887E+04  0.18165205887E+04  0.00000000000E+00 0. -1.
         25    2    1    2    0    0 -0.38166336257E+02  0.35604623940E+01 -0.37263636707E+03  0.39490608050E+03  0.12499441680E+03 0.  0.
          2    1    1    2  501    0 -0.61513752332E+02  0.17391114978E+02 -0.14276446610E+04  0.14290751103E+04  0.00000000000E+00 0. -1.
          1    1    1    2  502    0  0.99680088589E+02 -0.20951577372E+02  0.58651709388E+03  0.59529605246E+03  0.00000000000E+00 0. -1.
         22    1    3    3    0    0  0.33390262649E+02  0.37550207961E+02 -0.11863719852E+03  0.12883987205E+03  0.00000000000E+00 0.  1.
         22    1    3    3    0    0 -0.71556598906E+02 -0.33989745567E+02 -0.25399916855E+03  0.26606620844E+03  0.00000000000E+00 0.  1.
</event>
<event>
 7    1  0.5854318E-006  0.8984654E+02  0.7818608E-02  0.1360414E+00
          2   -1    0    0  502    0  0.00000000000E+00  0.00000000000E+00  0.28181445065E+03  0.28181445065E+03  0.00000000000E+00 0. -1.
          1   -1    0    0  501    0 -0.00000000000E+00 -0.00000000000E+00 -0.15436586869E+04  0.15436586869E+04  0.00000000000E+00 0. -1.
         25    2    1    2    0    0 -0.64402254612E+02 -0.17144283380E+02 -0.33545691145E+03  0.36414057794E+03  0.12500177682E+03 0.  0.
          2    1    1    2  501    0  0.61473408668E+02  0.71455987614E+02 -0.11892105434E+04  0.11929403399E+04  0.00000000000E+00 0. -1.
          1    1    1    2  502    0  0.29288459438E+01 -0.54311704234E+02  0.26282321859E+03  0.26839221968E+03  0.00000000000E+00 0. -1.
         22    1    3    3    0    0 -0.52045390156E+02  0.28882584665E+01 -0.35051701038E+02  0.62814699069E+02  0.00000000000E+00 0.  1.
         22    1    3    3    0    0 -0.12356864456E+02 -0.20032541847E+02 -0.30040521042E+03  0.30132587887E+03  0.00000000000E+00 0.  1.
</event>
<event>
 7    1  0.5854318E-006  0.1065202E+03  0.7818608E-02  0.1287458E+00
          2   -1    0    0  502    0  0.00000000000E+00  0.00000000000E+00  0.64952999600E+03  0.64952999600E+03  0.00000000000E+00 0. -1.
          1   -1    0    0  501    0 -0.00000000000E+00 -0.00000000000E+00 -0.21830328300E+04  0.21830328300E+04  0.00000000000E+00 0. -1.
         25    2    1    2    0    0  0.59841974281E+01  0.16530571935E+03 -0.18384709246E+03  0.27710356463E+03  0.12499936263E+03 0.  0.
          2    1    1    2  501    0  0.46061451835E+02 -0.94680033663E+02 -0.19479366734E+04  0.19507801643E+04  0.00000000000E+00 0. -1.
          1    1    1    2  502    0 -0.52045649263E+02 -0.70625685683E+02  0.59828093179E+03  0.60467909707E+03  0.00000000000E+00 0. -1.
         22    1    3    3    0    0  0.28020895588E+02  0.10754148156E+02 -0.90183553923E+02  0.95046807891E+02  0.00000000000E+00 0.  1.
         22    1    3    3    0    0 -0.22036698160E+02  0.15455157119E+03 -0.93663538533E+02  0.18205675674E+03  0.00000000000E+00 0.  1.
</event>
<event>
 7    1  0.5854318E-006  0.6742907E+02  0.7818608E-02  0.1372544E+00
          2   -1    0    0  502    0  0.00000000000E+00  0.00000000000E+00  0.11261591534E+04  0.11261591534E+04  0.00000000000E+00 0. -1.
          1   -1    0    0  501    0 -0.00000000000E+00 -0.00000000000E+00 -0.66005815285E+02  0.66005815285E+02  0.00000000000E+00 0. -1.
         25    2    1    2    0    0  0.20715131598E+02  0.45469511217E+02  0.28902805738E+03  0.31883963079E+03  0.12499959634E+03 0.  0.
          2    1    1    2  501    0 -0.69021953737E+02  0.15744064625E+01 -0.25688093429E+02  0.73664014264E+02  0.00000000000E+00 0. -1.
          1    1    1    2  502    0  0.48306822139E+02 -0.47043917680E+02  0.79681337415E+03  0.79966132361E+03  0.00000000000E+00 0. -1.
         22    1    3    3    0    0  0.54461137882E+02 -0.21949462957E+02  0.11298876144E+03  0.12733520595E+03  0.00000000000E+00 0. -1.
         22    1    3    3    0    0 -0.33746006284E+02  0.67418974175E+02  0.17603929594E+03  0.19150442484E+03  0.00000000000E+00 0. -1.
</event>
<event>
 7    1  0.5854318E-006  0.7861659E+02  0.7818608E-02  0.1349404E+00
          2   -1    0    0  502    0  0.00000000000E+00  0.00000000000E+00  0.12089779088E+04  0.12089779088E+04  0.00000000000E+00 0. -1.
          1   -1    0    0  501    0 -0.00000000000E+00 -0.00000000000E+00 -0.14021980107E+04  0.14021980107E+04  0.00000000000E+00 0. -1.
         25    2    1    2    0    0  0.53394674204E+02  0.13445185469E+03  0.90918557316E+02  0.21170708977E+03  0.12500166132E+03 0.  0.
          2    1    1    2  501    0 -0.18236265913E+02 -0.75972551366E+02 -0.13395637525E+04  0.13418403173E+04  0.00000000000E+00 0. -1.
          1    1    1    2  502    0 -0.35158408291E+02 -0.58479303320E+02  0.10554250933E+04  0.10576285124E+04  0.00000000000E+00 0. -1.
         22    1    3    3    0    0  0.77697049171E+02  0.14145754705E+03  0.61009157882E+02  0.17253749277E+03  0.00000000000E+00 0.  1.
         22    1    3    3    0    0 -0.24302374967E+02 -0.70056923615E+01  0.29909399434E+02  0.39169596998E+02  0.00000000000E+00 0.  1.
</event>
<event>
 7    1  0.5854318E-006  0.4403250E+02  0.7818608E-02  0.1581149E+00
          2   -1    0    0  502    0  0.00000000000E+00  0.00000000000E+00  0.28677441539E+03  0.28677441539E+03  0.00000000000E+00 0. -1.
          1   -1    0    0  501    0 -0.00000000000E+00 -0.00000000000E+00 -0.56513551629E+03  0.56513551629E+03  0.00000000000E+00 0. -1.
         25    2    1    2    0    0  0.38784851152E+02  0.17752140372E+02 -0.56816769859E+02  0.14378847483E+03  0.12501030754E+03 0.  0.
          2    1    1    2  501    0  0.51780500963E+01 -0.22064134712E+02 -0.46254799757E+03  0.46310289170E+03  0.00000000000E+00 0. -1.
          1    1    1    2  502    0 -0.43962901249E+02  0.43119943407E+01  0.24100366654E+03  0.24501856514E+03  0.00000000000E+00 0. -1.
         22    1    3    3    0    0  0.20430657988E+01  0.10378120344E+02 -0.91868919875E+02  0.92475823536E+02  0.00000000000E+00 0. -1.
         22    1    3    3    0    0  0.36741785354E+02  0.73740200278E+01  0.35052150016E+02  0.51312651297E+02  0.00000000000E+00 0. -1.
</event>
<event>
 7    1  0.5854318E-006  0.4059559E+02  0.7818608E-02  0.1597117E+00
          2   -1    0    0  502    0  0.00000000000E+00  0.00000000000E+00  0.46847796902E+03  0.46847796902E+03  0.00000000000E+00 0. -1.
          1   -1    0    0  501    0 -0.00000000000E+00 -0.00000000000E+00 -0.30036978249E+03  0.30036978249E+03  0.00000000000E+00 0. -1.
         25    2    1    2    0    0 -0.51364332447E+02  0.35023607293E+02  0.12927699259E+03  0.19026811879E+03  0.12499787398E+03 0.  0.
          2    1    1    2  501    0  0.35402734456E+02 -0.19450228967E+02 -0.26795572717E+03  0.27098327760E+03  0.00000000000E+00 0. -1.
          1    1    1    2  502    0  0.15961597992E+02 -0.15573378326E+02  0.30678692110E+03  0.30759635512E+03  0.00000000000E+00 0. -1.
         22    1    3    3    0    0  0.32959900238E+02  0.21598953697E+02  0.85873917907E+02  0.94483858945E+02  0.00000000000E+00 0. -1.
         22    1    3    3    0    0 -0.84324232685E+02  0.13424653596E+02  0.43403074686E+02  0.95784259846E+02  0.00000000000E+00 0. -1.
</event>
<event>
 7    1  0.5854318E-006  0.5014417E+02  0.7818608E-02  0.1570646E+00
          2   -1    0    0  502    0  0.00000000000E+00  0.00000000000E+00  0.25469214439E+04  0.25469214439E+04  0.00000000000E+00 0. -1.
          1   -1    0    0  501    0 -0.00000000000E+00 -0.00000000000E+00 -0.30949004578E+02  0.30949004578E+02  0.00000000000E+00 0. -1.
         25    2    1    2    0    0 -0.24319974304E+02  0.31498014481E+02  0.18910499389E+04  0.18955939593E+04  0.12499200431E+03 0.  0.
          2    1    1    2  501    0  0.12052510349E+02 -0.48839726313E+02 -0.62989490503E+01  0.50697718205E+02  0.00000000000E+00 0. -1.
          1    1    1    2  502    0  0.12267463955E+02  0.17341711832E+02  0.63122144946E+03  0.63157877094E+03  0.00000000000E+00 0. -1.
         22    1    3    3    0    0  0.37175215556E+02  0.49267344152E+02  0.11998575837E+04  0.12014439184E+04  0.00000000000E+00 0. -1.
         22    1    3    3    0    0 -0.61495189860E+02 -0.17769329671E+02  0.69119235520E+03  0.69415004095E+03  0.00000000000E+00 0. -1.
</event>
<event>
 7    1  0.5854318E-006  0.9340764E+02  0.7818608E-02  0.1433623E+00
          2   -1    0    0  502    0  0.00000000000E+00  0.00000000000E+00  0.35911246681E+03  0.35911246681E+03  0.00000000000E+00 0. -1.
          1   -1    0    0  501    0 -0.00000000000E+00 -0.00000000000E+00 -0.51265729804E+03  0.51265729804E+03  0.00000000000E+00 0. -1.
         25    2    1    2    0    0 -0.49339651605E+02  0.41867431155E+02 -0.36111658232E+03  0.38757710122E+03  0.12499416127E+03 0.  0.
          2    1    1    2  501    0 -0.21281162891E+02  0.20016755868E+02 -0.13028999152E+03  0.13352542941E+03  0.00000000000E+00 0. -1.
          1    1    1    2  502    0  0.70620814496E+02 -0.61884187023E+02  0.33786174261E+03  0.35066723423E+03  0.00000000000E+00 0. -1.
         22    1    3    3    0    0  0.15111802850E+02  0.36780342979E+02 -0.28972455200E+02  0.49199221288E+02  0.00000000000E+00 0.  1.
         22    1    3    3    0    0 -0.64451454455E+02  0.50870881758E+01 -0.33214412712E+03  0.33837787993E+03  0.00000000000E+00 0.  1.
</event>
<event>
 7    1  0.5854318E-006  0.4674752E+02  0.7818608E-02  0.1574804E+00
          2   -1    0    0  502    0  0.00000000000E+00  0.00000000000E+00  0.50667875935E+02  0.50667875935E+02  0.00000000000E+00 0. -1.
          1   -1    0    0  501    0 -0.00000000000E+00 -0.00000000000E+00 -0.58375897000E+03  0.58375897000E+03  0.00000000000E+00 0. -1.
         25    2    1    2    0    0 -0.41173191918E+02  0.20160942185E+02 -0.17959620590E+03  0.22356417566E+03  0.12499779255E+03 0.  0.
          2    1    1    2  501    0  0.13111142783E+02  0.17917888618E+02 -0.36210366372E+03  0.36278370426E+03  0.00000000000E+00 0. -1.
          1    1    1    2  502    0  0.28062049135E+02 -0.38078830803E+02  0.86087755479E+01  0.48078966018E+02  0.00000000000E+00 0. -1.
         22    1    3    3    0    0  0.40693432970E+02 -0.71758116110E+00 -0.26091365042E+02  0.48344903965E+02  0.00000000000E+00 0. -1.
         22    1    3    3    0    0 -0.81866624888E+02  0.20878523346E+02 -0.15350484086E+03  0.17521927170E+03  0.00000000000E+00 0. -1.
</event>
<event>
 7    1  0.5854318E-006  0.4488776E+02  0.7818608E-02  0.1576140E+00
          2   -1    0    0  502    0  0.00000000000E+00  0.00000000000E+00  0.93839943977E+02  0.93839943977E+02  0.00000000000E+00 0. -1.
          1   -1    0    0  501    0 -0.00000000000E+00 -0.00000000000E+00 -0.15360908241E+03  0.15360908241E+03  0.00000000000E+00 0. -1.
         25    2    1    2    0    0 -0.60821187584E+01  0.24404815951E+02 -0.10754566898E+02  0.12800038679E+03  0.12504339686E+03 0.  0.
          2    1    1    2  501    0  0.19159667786E+02 -0.43241677355E+02 -0.72539559369E+02  0.86596323268E+02  0.00000000000E+00 0. -1.
          1    1    1    2  502    0 -0.13077549027E+02  0.18836861404E+02  0.23524987831E+02  0.32852316335E+02  0.00000000000E+00 0. -1.
         22    1    3    3    0    0  0.47230049489E-01  0.75419632565E+02  0.40515044484E+00  0.75420735570E+02  0.00000000000E+00 0.  1.
         22    1    3    3    0    0 -0.61293488079E+01 -0.51014816614E+02 -0.11159717343E+02  0.52579651217E+02  0.00000000000E+00 0.  1.
</event>
<event>
 7    1  0.5854318E-006  0.8193572E+02  0.7818608E-02  0.1351626E+00
          2   -1    0    0  502    0  0.00000000000E+00  0.00000000000E+00  0.49195981741E+03  0.49195981741E+03  0.00000000000E+00 0. -1.
          1   -1    0    0  501    0 -0.00000000000E+00 -0.00000000000E+00 -0.73690891956E+03  0.73690891956E+03  0.00000000000E+00 0. -1.
         25    2    1    2    0    0 -0.92172588266E+01 -0.12756497351E+03 -0.52011192896E+03  0.54999937834E+03  0.12500046881E+03 0.  0.
          2    1    1    2  501    0  0.16178296892E+02  0.63701597180E+02 -0.19425695947E+03  0.20507412581E+03  0.00000000000E+00 0. -1.
          1    1    1    2  502    0 -0.69610380659E+01  0.63863376330E+02  0.46941978628E+03  0.47379523282E+03  0.00000000000E+00 0. -1.
         22    1    3    3    0    0 -0.32563020958E+02 -0.12646343338E+03 -0.28229402792E+03  0.31103579941E+03  0.00000000000E+00 0. -1.
         22    1    3    3    0    0  0.23345762132E+02 -0.11015401289E+01 -0.23781790104E+03  0.23896357893E+03  0.00000000000E+00 0. -1.
</event>
<event>
 7    1  0.5854318E-006  0.1095673E+03  0.7818608E-02  0.1310739E+00
          2   -1    0    0  502    0  0.00000000000E+00  0.00000000000E+00  0.19756669807E+04  0.19756669807E+04  0.00000000000E+00 0. -1.
          1   -1    0    0  501    0 -0.00000000000E+00 -0.00000000000E+00 -0.19604778950E+03  0.19604778950E+03  0.00000000000E+00 0. -1.
         25    2    1    2    0    0 -0.10334988860E+03 -0.41876821941E+02  0.82647108058E+03  0.84326917217E+03  0.12495431971E+03 0.  0.
          2    1    1    2  501    0  0.10661236796E+03 -0.26842267238E+02 -0.17040297597E+03  0.20279023284E+03  0.00000000000E+00 0. -1.
          1    1    1    2  502    0 -0.32624793625E+01  0.68719089179E+02  0.11235510865E+04  0.11256553651E+04  0.00000000000E+00 0. -1.
         22    1    3    3    0    0 -0.21434768537E+02 -0.74618213345E+02  0.44585365933E+03  0.45256249579E+03  0.00000000000E+00 0.  1.
         22    1    3    3    0    0 -0.81915120059E+02  0.32741391404E+02  0.38061742125E+03  0.39070667638E+03  0.00000000000E+00 0.  1.
</event>
<event>
 7    1  0.5854318E-006  0.1436509E+03  0.7818608E-02  0.1290000E+00
          2   -1    0    0  502    0  0.00000000000E+00  0.00000000000E+00  0.60128608323E+03  0.60128608323E+03  0.00000000000E+00 0. -1.
          1   -1    0    0  501    0 -0.00000000000E+00 -0.00000000000E+00 -0.15951055011E+04  0.15951055011E+04  0.00000000000E+00 0. -1.
         25    2    1    2    0    0  0.18677565873E+03 -0.27169882375E+02 -0.81065622462E+03  0.84167203917E+03  0.12499983123E+03 0.  0.
          2    1    1    2  501    0 -0.44666600520E+02  0.45164331372E+02 -0.75883743389E+03  0.76149141367E+03  0.00000000000E+00 0. -1.
          1    1    1    2  502    0 -0.14210905821E+03 -0.17994448998E+02  0.57567424065E+03  0.59322813147E+03  0.00000000000E+00 0. -1.
         22    1    3    3    0    0 -0.40425819967E+01  0.20048393595E+02 -0.27795094717E+02  0.34508663336E+02  0.00000000000E+00 0. -1.
         22    1    3    3    0    0  0.19081824073E+03 -0.47218275969E+02 -0.78286112990E+03  0.80716337584E+03  0.00000000000E+00 0. -1.
</event>
<event>
 7    1  0.5854318E-006  0.2978121E+03  0.7818608E-02  0.1195677E+00
          2   -1    0    0  502    0  0.00000000000E+00  0.00000000000E+00  0.24012922567E+04  0.24012922567E+04  0.00000000000E+00 0. -1.
          1   -1    0    0  501    0 -0.00000000000E+00 -0.00000000000E+00 -0.29033174744E+04  0.29033174744E+04  0.00000000000E+00 0. -1.
         25    2    1    2    0    0 -0.28732700194E+03  0.74856312904E+02 -0.57979546693E+02  0.32733308847E+03  0.12500019738E+03 0.  0.
          2    1    1    2  501    0  0.25857669644E+03 -0.14908730374E+03 -0.27017410251E+04  0.27181783420E+04  0.00000000000E+00 0. -1.
          1    1    1    2  502    0  0.28750305504E+02  0.74230990837E+02  0.22576953541E+04  0.22590983007E+04  0.00000000000E+00 0. -1.
         22    1    3    3    0    0 -0.29367601317E+03  0.54883880947E+02 -0.43619458600E+02  0.30192796867E+03  0.00000000000E+00 0. -1.
         22    1    3    3    0    0  0.63490112268E+01  0.19972431958E+02 -0.14360088093E+02  0.25405119797E+02  0.00000000000E+00 0. -1.
</event>
<event>
 7    1  0.5854318E-006  0.6257840E+02  0.7818608E-02  0.1530866E+00
          2   -1    0    0  502    0  0.00000000000E+00  0.00000000000E+00  0.35681530447E+03  0.35681530447E+03  0.00000000000E+00 0. -1.
          1   -1    0    0  501    0 -0.00000000000E+00 -0.00000000000E+00 -0.14306309983E+03  0.14306309983E+03  0.00000000000E+00 0. -1.
         25    2    1    2    0    0 -0.25764313145E+02  0.41264402528E+02 -0.56920606317E+02  0.14571004985E+03  0.12499964982E+03 0.  0.
          2    1    1    2  501    0 -0.21971722292E+02 -0.16517246799E-01 -0.35398319706E+02  0.41662907859E+02  0.00000000000E+00 0. -1.
          1    1    1    2  502    0  0.47736035436E+02 -0.41247885282E+02  0.30607113066E+03  0.31250544658E+03  0.00000000000E+00 0. -1.
         22    1    3    3    0    0  0.82057738957E+01 -0.40960247811E+02 -0.34592448010E+01  0.41917096757E+02  0.00000000000E+00 0. -1.
         22    1    3    3    0    0 -0.33970087041E+02  0.82224650339E+02 -0.53461361516E+02  0.10379295309E+03  0.00000000000E+00 0. -1.
</event>
<event>
 7    1  0.5854318E-006  0.1123046E+03  0.7818608E-02  0.1274218E+00
          2   -1    0    0  502    0  0.00000000000E+00  0.00000000000E+00  0.25636236414E+04  0.25636236414E+04  0.00000000000E+00 0. -1.
          1   -1    0    0  501    0 -0.00000000000E+00 -0.00000000000E+00 -0.55515954149E+03  0.55515954149E+03  0.00000000000E+00 0. -1.
         25    2    1    2    0    0 -0.18148306079E+03  0.49540107046E+02 -0.90793434782E+02  0.24343194792E+03  0.12500136763E+03 0.  0.
          2    1    1    2  501    0  0.92576977722E+02  0.18304730445E+02 -0.38103071260E+03  0.39254294530E+03  0.00000000000E+00 0. -1.
          1    1    1    2  502    0  0.88906083073E+02 -0.67844837490E+02  0.24802882473E+04  0.24828082897E+04  0.00000000000E+00 0. -1.
         22    1    3    3    0    0 -0.15961605495E+03  0.13717553820E+02 -0.20429083664E+02  0.16150171436E+03  0.00000000000E+00 0. -1.
         22    1    3    3    0    0 -0.21867005846E+02  0.35822553225E+02 -0.70364351118E+02  0.81930233568E+02  0.00000000000E+00 0. -1.
</event>
<event>
 7    1  0.5854318E-006  0.4865728E+02  0.7818608E-02  0.1507142E+00
          2   -1    0    0  502    0  0.00000000000E+00  0.00000000000E+00  0.12220954093E+04  0.12220954093E+04  0.00000000000E+00 0. -1.
          1   -1    0    0  501    0 -0.00000000000E+00 -0.00000000000E+00 -0.32211156905E+02  0.32211156905E+02  0.00000000000E+00 0. -1.
         25    2    1    2    0    0  0.18571486622E+02 -0.60177062419E+02  0.10242081120E+04  0.10337280571E+04  0.12500104158E+03 0.  0.
          2    1    1    2  501    0  0.11847707468E+02  0.47069383640E+02 -0.30486267949E+01  0.48633210606E+02  0.00000000000E+00 0. -1.
          1    1    1    2  502    0 -0.30419194091E+02  0.13107678779E+02  0.16872476723E+03  0.17194529853E+03  0.00000000000E+00 0. -1.
         22    1    3    3    0    0  0.13084829768E+02 -0.99116361249E+02  0.68745680749E+03  0.69468851149E+03  0.00000000000E+00 0.  1.
         22    1    3    3    0    0  0.54866568540E+01  0.38939298830E+02  0.33675130452E+03  0.33903954562E+03  0.00000000000E+00 0.  1.
</event>
<event>
 7    1  0.5854318E-006  0.6297801E+02  0.7818608E-02  0.1530708E+00
          2   -1    0    0  502    0  0.00000000000E+00  0.00000000000E+00  0.14099388533E+04  0.14099388533E+04  0.00000000000E+00 0. -1.
          1   -1    0    0  501    0 -0.00000000000E+00 -0.00000000000E+00 -0.52325518821E+03  0.52325518821E+03  0.00000000000E+00 0. -1.
         25    2    1    2    0    0  0.43058350138E+02 -0.14385618717E+02  0.31556339488E+03  0.34244182796E+03  0.12500072721E+03 0.  0.
          2    1    1    2  501    0 -0.62877488995E+02  0.51743622012E+01 -0.50775302010E+03  0.51165758283E+03  0.00000000000E+00 0. -1.
          1    1    1    2  502    0  0.19819138858E+02  0.92112565163E+01  0.10788732903E+04  0.10790946307E+04  0.00000000000E+00 0. -1.
         22    1    3    3    0    0 -0.90205940297E+01  0.25165511188E+02  0.78582998653E+01  0.27864438749E+02  0.00000000000E+00 0. -1.
         22    1    3    3    0    0  0.52078944167E+02 -0.39551129906E+02  0.30770509501E+03  0.31457738921E+03  0.00000000000E+00 0. -1.
</event>
<event>
 7    1  0.5854318E-006  0.7302711E+02  0.7818608E-02  0.1422868E+00
          2   -1    0    0  502    0  0.00000000000E+00  0.00000000000E+00  0.13127164795E+04  0.13127164795E+04  0.00000000000E+00 0. -1.
          1   -1    0    0  501    0 -0.00000000000E+00 -0.00000000000E+00 -0.39482531483E+02  0.39482531483E+02  0.00000000000E+00 0. -1.
         25    2    1    2    0    0 -0.14245062875E+02 -0.54414708972E+02  0.19906023297E+03  0.24168310573E+03  0.12498745886E+03 0.  0.
          2    1    1    2  501    0  0.54084715884E+02  0.61981938564E+02  0.77502809603E+02  0.11302036408E+03  0.00000000000E+00 0. -1.
          1    1    1    2  502    0 -0.39839653009E+02 -0.75672295919E+01  0.99667090544E+03  0.99749554117E+03  0.00000000000E+00 0. -1.
         22    1    3    3    0    0 -0.86998463344E+01 -0.86677653032E+02  0.80241742143E+02  0.11843749425E+03  0.00000000000E+00 0.  1.
         22    1    3    3    0    0 -0.55452165406E+01  0.32262944059E+02  0.11881849083E+03  0.12324561148E+03  0.00000000000E+00 0.  1.
</event>
<event>
 7    1  0.5854318E-006  0.1545274E+03  0.7818608E-02  0.1315386E+00
          2   -1    0    0  502    0  0.00000000000E+00  0.00000000000E+00  0.37039156246E+03  0.37039156246E+03  0.00000000000E+00 0. -1.
          1   -1    0    0  501    0 -0.00000000000E+00 -0.00000000000E+00 -0.15083203571E+03  0.15083203571E+03  0.00000000000E+00 0. -1.
         25    2    1    2    0    0 -0.87142637347E+02 -0.11859175111E+03  0.22192676017E+03  0.29417141662E+03  0.12500997083E+03 0.  0.
          2    1    1    2  501    0 -0.46156222359E+02  0.75827812074E+01 -0.23419231803E+02  0.52310188793E+02  0.00000000000E+00 0. -1.
          1    1    1    2  502    0  0.13329885971E+03  0.11100896990E+03  0.21051998386E+02  0.17474199276E+03  0.00000000000E+00 0. -1.
         22    1    3    3    0    0 -0.36431464203E+02 -0.12088069315E+01  0.13430039386E+03  0.13915929214E+03  0.00000000000E+00 0.  1.
         22    1    3    3    0    0 -0.50711173144E+02 -0.11738294418E+03  0.87626366308E+02  0.15501212448E+03  0.00000000000E+00 0.  1.
</event>
<event>
 7    1  0.5854318E-006  0.5881961E+02  0.7818608E-02  0.1480104E+00
          2   -1    0    0  502    0  0.00000000000E+00  0.00000000000E+00  0.38269752680E+03  0.38269752680E+03  0.00000000000E+00 0. -1.
          1   -1    0    0  501    0 -0.00000000000E+00 -0.00000000000E+00 -0.10827055313E+04  0.10827055313E+04  0.00000000000E+00 0. -1.
         25    2    1    2    0    0  0.81497273030E+02  0.15605304603E+02  0.41559730411E+02  0.15568241320E+03  0.12499788616E+03 0.  0.
          2    1    1    2  501    0 -0.58133116326E+02  0.77686788777E+01 -0.10238408929E+04  0.10255193735E+04  0.00000000000E+00 0. -1.
          1    1    1    2  502    0 -0.23364156703E+02 -0.23373983481E+02  0.28227315798E+03  0.28420127135E+03  0.00000000000E+00 0. -1.
         22    1    3    3    0    0  0.17163443481E+01 -0.21043759100E+02 -0.33884419986E+02  0.39924172537E+02  0.00000000000E+00 0. -1.
         22    1    3    3    0    0  0.79780928681E+02  0.36649063703E+02  0.75444150398E+02  0.11575824066E+03  0.00000000000E+00 0. -1.
</event>
<event>
 7    1  0.5854318E-006  0.2452739E+03  0.7818608E-02  0.1296905E+00
          2   -1    0    0  502    0  0.00000000000E+00  0.00000000000E+00  0.17911300084E+04  0.17911300084E+04  0.00000000000E+00 0. -1.
          1   -1    0    0  501    0 -0.00000000000E+00 -0.00000000000E+00 -0.96942143550E+03  0.96942143550E+03  0.00000000000E+00 0. -1.
         25    2    1    2    0    0  0.27285184127E+03  0.51751463281E+02  0.10812007564E+04  0.11232745369E+04  0.12499707405E+03 0.  0.
          2    1    1    2  501    0 -0.24231409309E+03 -0.34886085867E+02 -0.93212624172E+03  0.96373880756E+03  0.00000000000E+00 0. -1.
          1    1    1    2  502    0 -0.30537748176E+02 -0.16865377414E+02  0.67263405827E+03  0.67353809942E+03  0.00000000000E+00 0. -1.
         22    1    3    3    0    0  0.27031530273E+03  0.44370216142E+02  0.87391660622E+03  0.91584349842E+03  0.00000000000E+00 0. -1.
         22    1    3    3    0    0  0.25365385386E+01  0.73812471394E+01  0.20728415016E+03  0.20743103853E+03  0.00000000000E+00 0. -1.
</event>
<event>
 7    1  0.5854318E-006  0.7860089E+02  0.7818608E-02  0.1407267E+00
          2   -1    0    0  502    0  0.00000000000E+00  0.00000000000E+00  0.46000714957E+03  0.46000714957E+03  0.00000000000E+00 0. -1.
          1   -1    0    0  501    0 -0.00000000000E+00 -0.00000000000E+00 -0.16288625765E+04  0.16288625765E+04  0.00000000000E+00 0. -1.
         25    2    1    2    0    0 -0.96580027972E+02  0.22659961695E+01 -0.27155414038E+03  0.31416426614E+03  0.12499879367E+03 0.  0.
          2    1    1    2  501    0  0.71292154593E+02  0.31911613753E+02 -0.13338280879E+04  0.13361131278E+04  0.00000000000E+00 0. -1.
          1    1    1    2  502    0  0.25287873379E+02 -0.34177609923E+02  0.43652680128E+03  0.43859233212E+03  0.00000000000E+00 0. -1.
         22    1    3    3    0    0  0.13123724814E+02 -0.19175300186E+02 -0.31935465587E+01  0.23454701658E+02  0.00000000000E+00 0.  1.
         22    1    3    3    0    0 -0.10970375279E+03  0.21441296356E+02 -0.26836059382E+03  0.29070956448E+03  0.00000000000E+00 0.  1.
</event>
<event>
 7    1  0.5854318E-006  0.4357088E+02  0.7818608E-02  0.1585521E+00
          2   -1    0    0  502    0  0.00000000000E+00  0.00000000000E+00  0.50557329766E+03  0.50557329766E+03  0.00000000000E+00 0. -1.
          1   -1    0    0  501    0 -0.00000000000E+00 -0.00000000000E+00 -0.14280154074E+04  0.14280154074E+04  0.00000000000E+00 0. -1.
         25    2    1    2    0    0 -0.29075978213E+02 -0.62974075274E+01 -0.72030342244E+03  0.73167467174E+03  0.12500294011E+03 0.  0.
          2    1    1    2  501    0 -0.41672353584E+01 -0.21903433729E+02 -0.70089833755E+03  0.70125288294E+03  0.00000000000E+00 0. -1.
          1    1    1    2  502    0  0.33243213571E+02  0.28200841256E+02  0.49875965029E+03  0.50066115033E+03  0.00000000000E+00 0. -1.
         22    1    3    3    0    0 -0.34076739763E+02  0.23648372336E+02 -0.75391617547E+02  0.86048624064E+02  0.00000000000E+00 0.  1.
         22    1    3    3    0    0  0.50007615507E+01 -0.29945779863E+02 -0.64491180489E+03  0.64562604767E+03  0.00000000000E+00 0.  1.
</event>
<event>
 7    1  0.5854318E-006  0.1473227E+03  0.7818608E-02  0.1239450E+00
          2   -1    0    0  502    0  0.00000000000E+00  0.00000000000E+00  0.14809365639E+03  0.14809365639E+03  0.00000000000E+00 0. -1.
          1   -1    0    0  501    0 -0.00000000000E+00 -0.00000000000E+00 -0.50094158468E+03  0.50094158468E+03  0.00000000000E+00 0. -1.
         25    2    1    2    0    0 -0.92825344048E+00  0.12562391721E+03 -0.15805136452E+03  0.23746177825E+03  0.12500252827E+03 0.  0.
          2    1    1    2  501    0 -0.10142389429E+03  0.35816147219E+00 -0.22469360548E+03  0.24652413869E+03  0.00000000000E+00 0. -1.
          1    1    1    2  502    0  0.10235214773E+03 -0.12598207868E+03  0.29897041703E+02  0.16504932413E+03  0.00000000000E+00 0. -1.
         22    1    3    3    0    0  0.74947172474E+01  0.20084346962E+00  0.18941354633E+02  0.20371206151E+02  0.00000000000E+00 0.  1.
         22    1    3    3    0    0 -0.84229706879E+01  0.12542307374E+03 -0.17699271915E+03  0.21709057210E+03  0.00000000000E+00 0.  1.
</event>
<event>
 7    1  0.5854318E-006  0.1197472E+03  0.7818608E-02  0.1345825E+00
          2   -1    0    0  502    0  0.00000000000E+00  0.00000000000E+00  0.68469809648E+03  0.68469809648E+03  0.00000000000E+00 0. -1.
          1   -1    0    0  501    0 -0.00000000000E+00 -0.00000000000E+00 -0.91626120175E+02  0.91626120175E+02  0.00000000000E+00 0. -1.
         25    2    1    2    0    0  0.66900690930E+02 -0.11088850446E+03  0.27715015518E+03  0.33046789766E+03  0.12499943998E+03 0.  0.
          2    1    1    2  501    0 -0.93956021923E+02  0.73449989721E+02 -0.71750192811E+01  0.11947433175E+03  0.00000000000E+00 0. -1.
          1    1    1    2  502    0  0.27055330993E+02  0.37438514737E+02  0.32309684040E+03  0.32638198725E+03  0.00000000000E+00 0. -1.
         22    1    3    3    0    0 -0.21646431990E+02  0.22721408907E+01  0.10014930621E+03  0.10248714152E+03  0.00000000000E+00 0.  1.
         22    1    3    3    0    0  0.88547122919E+02 -0.11316064535E+03  0.17700084897E+03  0.22798075614E+03  0.00000000000E+00 0.  1.
</event>
<event>
 7    1  0.5854318E-006  0.8582462E+02  0.7818608E-02  0.1373856E+00
          2   -1    0    0  502    0  0.00000000000E+00  0.00000000000E+00  0.41474931794E+03  0.41474931794E+03  0.00000000000E+00 0. -1.
          1   -1    0    0  501    0 -0.00000000000E+00 -0.00000000000E+00 -0.17436712826E+04  0.17436712826E+04  0.00000000000E+00 0. -1.
         25    2    1    2    0    0  0.13304625131E+03  0.15525798113E+02 -0.18182438710E+01  0.18321802460E+03  0.12499273232E+03 0.  0.
          2    1    1    2  501    0 -0.50418940861E+02 -0.71189433614E+01 -0.16454311569E+04  0.16462188314E+04  0.00000000000E+00 0. -1.
          1    1    1    2  502    0 -0.82627310451E+02 -0.84068547520E+01  0.31832743604E+03  0.32898374455E+03  0.00000000000E+00 0. -1.
         22    1    3    3    0    0  0.63498300253E+02  0.61484082559E+02 -0.32812450023E+02  0.94281405482E+02  0.00000000000E+00 0.  1.
         22    1    3    3    0    0  0.69547951059E+02 -0.45958284446E+02  0.30994206152E+02  0.88936619121E+02  0.00000000000E+00 0.  1.
</event>
<event>
 7    1  0.5854318E-006  0.6258261E+02  0.7818608E-02  0.1478054E+00
          2   -1    0    0  502    0  0.00000000000E+00  0.00000000000E+00  0.13053194013E+04  0.13053194013E+04  0.00000000000E+00 0. -1.
          1   -1    0    0  501    0 -0.00000000000E+00 -0.00000000000E+00 -0.13420390686E+04  0.13420390686E+04  0.00000000000E+00 0. -1.
         25    2    1    2    0    0  0.19074502375E+02 -0.32689479597E+02 -0.86415719973E+01  0.13089486676E+03  0.12500540252E+03 0.  0.
          2    1    1    2  501    0 -0.10690642824E+02 -0.29646643702E+02 -0.12712805277E+04  0.12716711027E+04  0.00000000000E+00 0. -1.
          1    1    1    2  502    0 -0.83838595510E+01  0.62336123299E+02  0.12432024324E+04  0.12447925005E+04  0.00000000000E+00 0. -1.
         22    1    3    3    0    0  0.84708799864E+01 -0.59199795112E+02  0.41779105448E+02  0.72951115147E+02  0.00000000000E+00 0.  1.
         22    1    3    3    0    0  0.10603622389E+02  0.26510315516E+02 -0.50420677446E+02  0.57943751609E+02  0.00000000000E+00 0.  1.
</event>
<event>
 7    1  0.5854318E-006  0.1869682E+03  0.7818608E-02  0.1187122E+00
          2   -1    0    0  502    0  0.00000000000E+00  0.00000000000E+00  0.25172040026E+04  0.25172040026E+04  0.00000000000E+00 0. -1.
          1   -1    0    0  501    0 -0.00000000000E+00 -0.00000000000E+00 -0.63270033102E+03  0.63270033102E+03  0.00000000000E+00 0. -1.
         25    2    1    2    0    0  0.16420571940E+03 -0.18953261918E+03  0.10514340479E+04  0.10881257950E+04  0.12497222285E+03 0.  0.
          2    1    1    2  501    0  0.49527409715E+01  0.13924578458E+03 -0.60097527310E+03  0.61691587518E+03  0.00000000000E+00 0. -1.
          1    1    1    2  502    0 -0.16915846037E+03  0.50286834596E+02  0.14340448967E+04  0.14448626635E+04  0.00000000000E+00 0. -1.
         22    1    3    3    0    0  0.59744035705E+02 -0.57353303914E+01  0.13696991473E+03  0.14954264060E+03  0.00000000000E+00 0. -1.
         22    1    3    3    0    0  0.10446168369E+03 -0.18379728879E+03  0.91446413320E+03  0.93858315435E+03  0.00000000000E+00 0. -1.
</event>
<event>
 7    1  0.5854318E-006  0.5471423E+02  0.7818608E-02  0.1431427E+00
          2   -1    0    0  502    0  0.00000000000E+00  0.00000000000E+00  0.23372660342E+03  0.23372660342E+03  0.00000000000E+00 0. -1.
          1   -1    0    0  501    0 -0.00000000000E+00 -0.00000000000E+00 -0.26242878764E+03  0.26242878764E+03  0.00000000000E+00 0. -1.
         25    2    1    2    0    0 -0.24346801433E+02  0.34421007847E+02 -0.35244181287E+02  0.13654470676E+03  0.12499892843E+03 0.  0.
          2    1    1    2  501    0  0.47819048813E+02  0.16880302762E+02 -0.16836189644E+03  0.17583325688E+03  0.00000000000E+00 0. -1.
          1    1    1    2  502    0 -0.23472247380E+02 -0.51301310610E+02  0.17490389351E+03  0.18377742742E+03  0.00000000000E+00 0. -1.
         22    1    3    3    0    0  0.18589261136E+02  0.70189035734E+02 -0.44641676611E+01  0.72746066284E+02  0.00000000000E+00 0.  1.
         22    1    3    3    0    0 -0.42936062570E+02 -0.35768027887E+02 -0.30780013626E+02  0.63798640477E+02  0.00000000000E+00 0.  1.
</event>
<event>
 7    1  0.5854318E-006  0.3903656E+02  0.7818608E-02  0.1549547E+00
          2   -1    0    0  502    0  0.00000000000E+00  0.00000000000E+00  0.15138356687E+04  0.15138356687E+04  0.00000000000E+00 0. -1.
          1   -1    0    0  501    0 -0.00000000000E+00 -0.00000000000E+00 -0.78303199327E+03  0.78303199327E+03  0.00000000000E+00 0. -1.
         25    2    1    2    0    0 -0.10750664085E+02 -0.68028165343E+02  0.43617387261E+03  0.45892978056E+03  0.12500195310E+03 0.  0.
          2    1    1    2  501    0  0.86694107988E+00  0.31178391017E+02 -0.77099734027E+03  0.77162798184E+03  0.00000000000E+00 0. -1.
          1    1    1    2  502    0  0.98837230050E+01  0.36849774326E+02  0.10656271431E+04  0.10663098996E+04  0.00000000000E+00 0. -1.
         22    1    3    3    0    0 -0.10452100721E+02 -0.35972199961E+02  0.42236809425E+03  0.42402600465E+03  0.00000000000E+00 0. -1.
         22    1    3    3    0    0 -0.29856336354E+00 -0.32055965381E+02  0.13805778359E+02  0.34903775909E+02  0.00000000000E+00 0. -1.
</event>
<event>
 7    1  0.5854318E-006  0.1203354E+03  0.7818608E-02  0.1358937E+00
          2   -1    0    0  502    0  0.00000000000E+00  0.00000000000E+00  0.73214417329E+03  0.73214417329E+03  0.00000000000E+00 0. -1.
          1   -1    0    0  501    0 -0.00000000000E+00 -0.00000000000E+00 -0.85293143935E+03  0.85293143935E+03  0.00000000000E+00 0. -1.
         25    2    1    2    0    0  0.72442779353E+02 -0.63205008435E+02 -0.51869122110E+02  0.16600660981E+03  0.12499983720E+03 0.  0.
          2    1    1    2  501    0 -0.82738401888E+01 -0.40276131955E+02 -0.73792609961E+03  0.73907073526E+03  0.00000000000E+00 0. -1.
          1    1    1    2  502    0 -0.64168939164E+02  0.10348114039E+03  0.66900795566E+03  0.67999826758E+03  0.00000000000E+00 0. -1.
         22    1    3    3    0    0  0.37819639539E+02 -0.80350255167E+02  0.13744148870E+02  0.89863175263E+02  0.00000000000E+00 0. -1.
         22    1    3    3    0    0  0.34623139814E+02  0.17145246732E+02 -0.65613270980E+02  0.76143434548E+02  0.00000000000E+00 0. -1.
</event>
<event>
 7    1  0.5854318E-006  0.7572908E+02  0.7818608E-02  0.1354053E+00
          2   -1    0    0  502    0  0.00000000000E+00  0.00000000000E+00  0.96103369825E+03  0.96103369825E+03  0.00000000000E+00 0. -1.
          1   -1    0    0  501    0 -0.00000000000E+00 -0.00000000000E+00 -0.18338037739E+03  0.18338037739E+03  0.00000000000E+00 0. -1.
         25    2    1    2    0    0 -0.13201112129E+03 -0.41056040031E+02  0.30041819064E+03  0.35353821675E+03  0.12500258747E+03 0.  0.
          2    1    1    2  501    0  0.73918135036E+02  0.55414785007E+01 -0.14610232847E+03  0.16383067190E+03  0.00000000000E+00 0. -1.
          1    1    1    2  502    0  0.58092986252E+02  0.35514561530E+02  0.62333745869E+03  0.62704518699E+03  0.00000000000E+00 0. -1.
         22    1    3    3    0    0 -0.14229379402E+03 -0.59225962155E+02  0.29356328699E+03  0.33156393332E+03  0.00000000000E+00 0. -1.
         22    1    3    3    0    0  0.10282672731E+02  0.18169922124E+02  0.68549036433E+01  0.21974283434E+02  0.00000000000E+00 0. -1.
</event>
<event>
 7    1  0.5854318E-006  0.1980957E+03  0.7818608E-02  0.1304564E+00
          2   -1    0    0  502    0  0.00000000000E+00  0.00000000000E+00  0.87983326165E+02  0.87983326165E+02  0.00000000000E+00 0. -1.
          1   -1    0    0  501    0 -0.00000000000E+00 -0.00000000000E+00 -0.23905296256E+04  0.23905296256E+04  0.00000000000E+00 0. -1.
         25    2    1    2    0    0  0.16529933217E+03 -0.49854223707E+02 -0.31364250547E+03  0.37921838056E+03  0.12500258428E+03 0.  0.
          2    1    1    2  501    0 -0.18305635685E+03  0.85978734175E+02 -0.20310033923E+04  0.20410479544E+04  0.00000000000E+00 0. -1.
          1    1    1    2  502    0  0.17757024677E+02 -0.36124510469E+02  0.42099598389E+02  0.58246616781E+02  0.00000000000E+00 0. -1.
         22    1    3    3    0    0  0.15128860886E+03 -0.84924600557E+02 -0.27524088578E+03  0.32535822743E+03  0.00000000000E+00 0.  1.
         22    1    3    3    0    0  0.14010723313E+02  0.35070376850E+02 -0.38401619695E+02  0.53860153131E+02  0.00000000000E+00 0.  1.
</event>
<event>
 7    1  0.5854318E-006  0.4733096E+02  0.7818608E-02  0.1584945E+00
          2   -1    0    0  502    0  0.00000000000E+00  0.00000000000E+00  0.20195845152E+04  0.20195845152E+04  0.00000000000E+00 0. -1.
          1   -1    0    0  501    0 -0.00000000000E+00 -0.00000000000E+00 -0.11219743688E+03  0.11219743688E+03  0.00000000000E+00 0. -1.
         25    2    1    2    0    0  0.82859897092E+01 -0.59407882217E+02  0.61054230596E+03  0.62608687712E+03  0.12499966498E+03 0.  0.
          2    1    1    2  501    0 -0.15815232871E+02  0.13196425376E+02 -0.10301421691E+03  0.10505330132E+03  0.00000000000E+00 0. -1.
          1    1    1    2  502    0  0.75292431615E+01  0.46211456841E+02  0.13998589893E+04  0.14006417737E+04  0.00000000000E+00 0. -1.
         22    1    3    3    0    0  0.28907146385E+01 -0.58678048630E+02  0.10346995126E+03  0.11898529504E+03  0.00000000000E+00 0. -1.
         22    1    3    3    0    0  0.53952750707E+01 -0.72983358714E+00  0.50707235470E+03  0.50710158208E+03  0.00000000000E+00 0. -1.
</event>
<event>
 7    1  0.5854318E-006  0.1092759E+03  0.7818608E-02  0.1441298E+00
          2   -1    0    0  502    0  0.00000000000E+00  0.00000000000E+00  0.18426358270E+04  0.18426358270E+04  0.00000000000E+00 0. -1.
          1   -1    0    0  501    0 -0.00000000000E+00 -0.00000000000E+00 -0.70656258562E+02  0.70656258562E+02  0.00000000000E+00 0. -1.
         25    2    1    2    0    0  0.12547671094E+03  0.32737331473E+02  0.45723921653E+03  0.49143617594E+03  0.12500270408E+03 0.  0.
          2    1    1    2  501    0 -0.23562793444E+02 -0.80108745926E+00 -0.48769736048E+02  0.54169494462E+02  0.00000000000E+00 0. -1.
          1    1    1    2  502    0 -0.10191391750E+03 -0.31936244013E+02  0.13635100879E+04  0.13676864151E+04  0.00000000000E+00 0. -1.
         22    1    3    3    0    0  0.69271841694E+02  0.63189713631E+02  0.14467273390E+03  0.17239990689E+03  0.00000000000E+00 0. -1.
         22    1    3    3    0    0  0.56204869247E+02 -0.30452382159E+02  0.31256648263E+03  0.31903626905E+03  0.00000000000E+00 0. -1.
</event>
<event>
 7    1  0.5854318E-006  0.1254583E+03  0.7818608E-02  0.1354809E+00
          2   -1    0    0  502    0  0.00000000000E+00  0.00000000000E+00  0.20270175431E+03  0.20270175431E+03  0.00000000000E+00 0. -1.
          1   -1    0    0  501    0 -0.00000000000E+00 -0.00000000000E+00 -0.34401753079E+03  0.34401753079E+03  0.00000000000E+00 0. -1.
         25    2    1    2    0    0 -0.23720717227E+02  0.12648316098E+03 -0.18182523540E+03  0.25543025650E+03  0.12499414893E+03 0.  0.
          2    1    1    2  501    0 -0.37337717231E+02 -0.16539643214E+02 -0.96817999445E+02  0.10507801836E+03  0.00000000000E+00 0. -1.
          1    1    1    2  502    0  0.61058434458E+02 -0.10994351776E+03  0.13732745836E+03  0.18621101025E+03  0.00000000000E+00 0. -1.
         22    1    3    3    0    0  0.36745970531E+02  0.73014147113E+02 -0.14556194344E+03  0.16694194023E+03  0.00000000000E+00 0.  1.
         22    1    3    3    0    0 -0.60466687758E+02  0.53469013866E+02 -0.36263291961E+02  0.88488316269E+02  0.00000000000E+00 0.  1.
</event>
<event>
 7    1  0.5854318E-006  0.9471118E+02  0.7818608E-02  0.1359376E+00
          2   -1    0    0  502    0  0.00000000000E+00  0.00000000000E+00  0.88875238895E+03  0.88875238895E+03  0.00000000000E+00 0. -1.
          1   -1    0    0  501    0 -0.00000000000E+00 -0.00000000000E+00 -0.47718144671E+03  0.47718144671E+03  0.00000000000E+00 0. -1.
         25    2    1    2    0    0  0.11075955755E+03 -0.89935621799E+02  0.49566914946E+02  0.19605557958E+03  0.12499926228E+03 0.  0.
          2    1    1    2  501    0 -0.64041016156E+02  0.66990117619E+02 -0.39771917419E+03  0.40837417785E+03  0.00000000000E+00 0. -1.
          1    1    1    2  502    0 -0.46718541397E+02  0.22945504181E+02  0.75972320149E+03  0.76150407823E+03  0.00000000000E+00 0. -1.
         22    1    3    3    0    0 -0.71281128684E+01 -0.61753460986E+01 -0.29686357599E+02  0.31148430458E+02  0.00000000000E+00 0. -1.
         22    1    3    3    0    0  0.11788767042E+03 -0.83760275701E+02  0.79253272545E+02  0.16490714912E+03  0.00000000000E+00 0. -1.
</event>
<event>
 7    1  0.5854318E-006  0.2376788E+03  0.7818608E-02  0.1209771E+00
          2   -1    0    0  502    0  0.00000000000E+00  0.00000000000E+00  0.18116552474E+03  0.18116552474E+03  0.00000000000E+00 0. -1.
          1   -1    0    0  501    0 -0.00000000000E+00 -0.00000000000E+00 -0.29871100895E+04  0.29871100895E+04  0.00000000000E+00 0. -1.
         25    2    1    2    0    0  0.25536725575E+03 -0.10556577125E+02 -0.63395638188E+03  0.69487366029E+03  0.12499933202E+03 0.  0.
          2    1    1    2  501    0 -0.21943998563E+03  0.88305360855E+02 -0.23039616033E+04  0.23160722816E+04  0.00000000000E+00 0. -1.
          1    1    1    2  502    0 -0.35927270118E+02 -0.77748783730E+02  0.13197342042E+03  0.15732967237E+03  0.00000000000E+00 0. -1.
         22    1    3    3    0    0  0.24618521166E+03  0.21080485342E+02 -0.51133132095E+03  0.56790075285E+03  0.00000000000E+00 0. -1.
         22    1    3    3    0    0  0.91820440900E+01 -0.31637062467E+02 -0.12262506094E+03  0.12697290745E+03  0.00000000000E+00 0. -1.
</event>
<event>
 7    1  0.5854318E-006  0.6775893E+02  0.7818608E-02  0.1505763E+00
          2   -1    0    0  502    0  0.00000000000E+00  0.00000000000E+00  0.10362920327E+04  0.10362920327E+04  0.00000000000E+00 0. -1.
          1   -1    0    0  501    0 -0.00000000000E+00 -0.00000000000E+00 -0.17610265704E+03  0.17610265704E+03  0.00000000000E+00 0. -1.
         25    2    1    2    0    0 -0.37324576937E+02 -0.26499519083E+02  0.16320702924E+03  0.21061164677E+03  0.12500153121E+03 0.  0.
          2    1    1    2  501    0  0.60629175900E+02  0.32276618781E+02 -0.14448145116E+03  0.15997676963E+03  0.00000000000E+00 0. -1.
          1    1    1    2  502    0 -0.23304598964E+02 -0.57770996982E+01  0.84146379753E+03  0.84180627330E+03  0.00000000000E+00 0. -1.
         22    1    3    3    0    0  0.33246975930E+02 -0.51416754202E+01  0.24252262961E+01  0.33729511665E+02  0.00000000000E+00 0.  1.
         22    1    3    3    0    0 -0.70571552866E+02 -0.21357843662E+02  0.16078180295E+03  0.17688213510E+03  0.00000000000E+00 0.  1.
</event>
<event>
 7    1  0.5854318E-006  0.2785053E+02  0.7818608E-02  0.1650934E+00
          2   -1    0    0  502    0  0.00000000000E+00  0.00000000000E+00  0.11420834182E+04  0.11420834182E+04  0.00000000000E+00 0. -1.
          1   -1    0    0  501    0 -0.00000000000E+00 -0.00000000000E+00 -0.21075246654E+03  0.21075246654E+03  0.00000000000E+00 0. -1.
         25    2    1    2    0    0  0.51226046433E+02 -0.36128161089E+01  0.16030391178E+03  0.20966185439E+03  0.12499435498E+03 0.  0.
          2    1    1    2  501    0 -0.23577373469E+02  0.28073225304E+01 -0.18511521297E+03  0.18663176490E+03  0.00000000000E+00 0. -1.
          1    1    1    2  502    0 -0.27648672964E+02  0.80549357847E+00  0.95614225281E+03  0.95654226543E+03  0.00000000000E+00 0. -1.
         22    1    3    3    0    0  0.79091694077E+02  0.35835754022E+02  0.10233303486E+03  0.13420785135E+03  0.00000000000E+00 0. -1.
         22    1    3    3    0    0 -0.27865647644E+02 -0.39448570131E+02  0.57970876920E+02  0.75454003041E+02  0.00000000000E+00 0. -1.
</event>
<event>
 7    1  0.5854318E-006  0.5100714E+02  0.7818608E-02  0.1444945E+00
          2   -1    0    0  502    0  0.00000000000E+00  0.00000000000E+00  0.17955407686E+03  0.17955407686E+03  0.00000000000E+00 0. -1.
          1   -1    0    0  501    0 -0.00000000000E+00 -0.00000000000E+00 -0.42217901735E+03  0.42217901735E+03  0.00000000000E+00 0. -1.
         25    2    1    2    0    0 -0.71575475227E+02  0.28168481483E+02 -0.19108378643E+03  0.24094523151E+03  0.12500031659E+03 0.  0.
          2    1    1    2  501    0  0.47392539649E+02  0.14628691815E+02 -0.19913725137E+03  0.20522109131E+03  0.00000000000E+00 0. -1.
          1    1    1    2  502    0  0.24182935578E+02 -0.42797173297E+02  0.14759609731E+03  0.15556677138E+03  0.00000000000E+00 0. -1.
         22    1    3    3    0    0  0.87956349821E+01  0.58714002460E+02 -0.61938056402E+02  0.85796387514E+02  0.00000000000E+00 0.  1.
         22    1    3    3    0    0 -0.80371110209E+02 -0.30545520978E+02 -0.12914573003E+03  0.15514884400E+03  0.00000000000E+00 0.  1.
</event>
<event>
 7    1  0.5854318E-006  0.6368558E+02  0.7818608E-02  0.1439073E+00
          2   -1    0    0  502    0  0.00000000000E+00  0.00000000000E+00  0.18001420143E+04  0.18001420143E+04  0.00000000000E+00 0. -1.
          1   -1    0    0  501    0 -0.00000000000E+00 -0.00000000000E+00 -0.55178611015E+03  0.55178611015E+03  0.00000000000E+00 0. -1.
         25    2    1    2    0    0 -0.16334611001E+02  0.83045230569E+02  0.25439410805E+03  0.29581213311E+03  0.12500050420E+03 0.  0.
          2    1    1    2  501    0 -0.18332518326E+02 -0.60908828349E+02 -0.52889380794E+03  0.53270500906E+03  0.00000000000E+00 0. -1.
          1    1    1    2  502    0  0.34667129327E+02 -0.22136402219E+02  0.15228556040E+04  0.15234109822E+04  0.00000000000E+00 0. -1.
         22    1    3    3    0    0 -0.40078499715E+02  0.92105678878E+02  0.10904668516E+03  0.14825964307E+03  0.00000000000E+00 0. -1.
         22    1    3    3    0    0  0.23743888715E+02 -0.90604483095E+01  0.14534742289E+03  0.14755249004E+03  0.00000000000E+00 0. -1.
</event>
<event>
 7    1  0.5854318E-006  0.2629640E+02  0.7818608E-02  0.1668678E+00
          2   -1    0    0  502    0  0.00000000000E+00  0.00000000000E+00  0.97417418609E+03  0.97417418609E+03  0.00000000000E+00 0. -1.
          1   -1    0    0  501    0 -0.00000000000E+00 -0.00000000000E+00 -0.20348397577E+03  0.20348397577E+03  0.00000000000E+00 0. -1.
         25    2    1    2    0    0  0.29135108703E+02  0.47487637143E+01 -0.13881407866E+03  0.18909019092E+03  0.12495737894E+03 0.  0.
          2    1    1    2  501    0 -0.14805694645E+02  0.17309019366E+02 -0.36052730291E+02  0.42645165104E+02  0.00000000000E+00 0. -1.
          1    1    1    2  502    0 -0.14329414058E+02 -0.22057783080E+02  0.94555701927E+03  0.94592280584E+03  0.00000000000E+00 0. -1.
         22    1    3    3    0    0  0.26139024162E+02 -0.19641618148E+02  0.13084201028E+02  0.35217013845E+02  0.00000000000E+00 0.  1.
         22    1    3    3    0    0  0.29960845411E+01  0.24390381863E+02 -0.15189827969E+03  0.15387317707E+03  0.00000000000E+00 0.  1.
</event>
<event>
 7    1  0.5854318E-006  0.6186908E+02  0.7818608E-02  0.1416953E+00
          2   -1    0    0  502    0  0.00000000000E+00  0.00000000000E+00  0.13409485314E+03  0.13409485314E+03  0.00000000000E+00 0. -1.
          1   -1    0    0  501    0 -0.00000000000E+00 -0.00000000000E+00 -0.13687750395E+04  0.13687750395E+04  0.00000000000E+00 0. -1.
         25    2    1    2    0    0  0.18335719576E+02  0.98254440528E+01 -0.71082654331E+03  0.72203258261E+03  0.12499575078E+03 0.  0.
          2    1    1    2  501    0 -0.39078460435E+02  0.48462821119E+02 -0.64330714687E+03  0.64631250670E+03  0.00000000000E+00 0. -1.
          1    1    1    2  502    0  0.20742740858E+02 -0.58288265171E+02  0.11945350379E+03  0.13452480337E+03  0.00000000000E+00 0. -1.
         22    1    3    3    0    0  0.59535177148E+02  0.34733367757E+02 -0.27298825033E+03  0.28155537461E+03  0.00000000000E+00 0.  1.
         22    1    3    3    0    0 -0.41199457571E+02 -0.24907923704E+02 -0.43783829297E+03  0.44047720799E+03  0.00000000000E+00 0.  1.
</event>
<event>
 7    1  0.5854318E-006  0.4506036E+02  0.7818608E-02  0.1561589E+00
          2   -1    0    0  502    0  0.00000000000E+00  0.00000000000E+00  0.14799988006E+03  0.14799988006E+03  0.00000000000E+00 0. -1.
          1   -1    0    0  501    0 -0.00000000000E+00 -0.00000000000E+00 -0.22257596619E+03  0.22257596619E+03  0.00000000000E+00 0. -1.
         25    2    1    2    0    0  0.27418012483E+02 -0.79978773986E+01  0.42812662420E+02  0.13518104324E+03  0.12500110774E+03 0.  0.
          2    1    1    2  501    0  0.21544906913E+02  0.12728287881E+02 -0.16502937161E+03  0.16691580459E+03  0.00000000000E+00 0. -1.
          1    1    1    2  502    0 -0.48962919395E+02 -0.47304104829E+01  0.47640623066E+02  0.68478998424E+02  0.00000000000E+00 0. -1.
         22    1    3    3    0    0 -0.24627809860E+02  0.31003356964E+02  0.56232280024E+02  0.68773588522E+02  0.00000000000E+00 0. -1.
         22    1    3    3    0    0  0.52045822342E+02 -0.39001234363E+02 -0.13419617604E+02  0.66407454715E+02  0.00000000000E+00 0. -1.
</event>
<event>
 7    1  0.5854318E-006  0.3741234E+02  0.7818608E-02  0.1547289E+00
          2   -1    0    0  502    0  0.00000000000E+00  0.00000000000E+00  0.58594013665E+02  0.58594013665E+02  0.00000000000E+00 0. -1.
          1   -1    0    0  501    0 -0.00000000000E+00 -0.00000000000E+00 -0.92215857012E+03  0.92215857012E+03  0.00000000000E+00 0. -1.
         25    2    1    2    0    0 -0.80082350190E+01  0.56090389411E+01 -0.89769185441E+02  0.15420437726E+03  0.12499956066E+03 0.  0.
          2    1    1    2  501    0 -0.10354216785E+02  0.31355574776E+02 -0.78346161975E+03  0.78415718545E+03  0.00000000000E+00 0. -1.
          1    1    1    2  502    0  0.18362451804E+02 -0.36964613717E+02  0.96662487308E+01  0.42391021078E+02  0.00000000000E+00 0. -1.
         22    1    3    3    0    0 -0.18992775162E+02 -0.40648649081E+02  0.79194354066E+01  0.45560461341E+02  0.00000000000E+00 0. -1.
         22    1    3    3    0    0  0.10984540143E+02  0.46257688022E+02 -0.97688620847E+02  0.10864391592E+03  0.00000000000E+00 0. -1.
</event>
<event>
 7    1  0.5854318E-006  0.5892288E+02  0.7818608E-02  0.1513211E+00
          2   -1    0    0  502    0  0.00000000000E+00  0.00000000000E+00  0.20565874739E+04  0.20565874739E+04  0.00000000000E+00 0. -1.
          1   -1    0    0  501    0 -0.00000000000E+00 -0.00000000000E+00 -0.13113332731E+03  0.13113332731E+03  0.00000000000E+00 0. -1.
         25    2    1    2    0    0  0.35436202167E+00  0.39101089082E+02  0.19700090193E+03  0.23656535754E+03  0.12499916914E+03 0.  0.
          2    1    1    2  501    0 -0.20283262565E+02 -0.56186607547E+02 -0.10323880955E+03  0.11927530090E+03  0.00000000000E+00 0. -1.
          1    1    1    2  502    0  0.19928900544E+02  0.17085518465E+02  0.18316920542E+04  0.18318801428E+04  0.00000000000E+00 0. -1.
         22    1    3    3    0    0  0.37169689629E+02 -0.27056006950E+02  0.35116525574E+02  0.57851393307E+02  0.00000000000E+00 0.  1.
         22    1    3    3    0    0 -0.36815327607E+02  0.66157096032E+02  0.16188437636E+03  0.17871396423E+03  0.00000000000E+00 0.  1.
</event>
<event>
 7    1  0.5854318E-006  0.4574154E+02  0.7818608E-02  0.1491843E+00
          2   -1    0    0  502    0  0.00000000000E+00  0.00000000000E+00  0.27781294850E+04  0.27781294850E+04  0.00000000000E+00 0. -1.
          1   -1    0    0  501    0 -0.00000000000E+00 -0.00000000000E+00 -0.77156659487E+03  0.77156659487E+03  0.00000000000E+00 0. -1.
         25    2    1    2    0    0 -0.21271752843E+02  0.78196615949E+02  0.57735187453E+02  0.15976708574E+03  0.12499988641E+03 0.  0.
          2    1    1    2  501    0  0.23311152046E+02 -0.39106880730E+02 -0.71968781146E+03  0.72112641325E+03  0.00000000000E+00 0. -1.
          1    1    1    2  502    0 -0.20393992024E+01 -0.39089735219E+02  0.26685155142E+04  0.26688025809E+04  0.00000000000E+00 0. -1.
         22    1    3    3    0    0 -0.47256954973E+02  0.93872654385E+02  0.13267393594E+02  0.10593072627E+03  0.00000000000E+00 0.  1.
         22    1    3    3    0    0  0.25985202130E+02 -0.15676038437E+02  0.44467793859E+02  0.53836359475E+02  0.00000000000E+00 0.  1.
</event>
<event>
 7    1  0.5854318E-006  0.3816867E+02  0.7818608E-02  0.1531903E+00
          2   -1    0    0  502    0  0.00000000000E+00  0.00000000000E+00  0.14519419999E+04  0.14519419999E+04  0.00000000000E+00 0. -1.
          1   -1    0    0  501    0 -0.00000000000E+00 -0.00000000000E+00 -0.81403051678E+03  0.81403051678E+03  0.00000000000E+00 0. -1.
         25    2    1    2    0    0 -0.32732830553E+02  0.30359459820E+02  0.29790414341E+02  0.13603456845E+03  0.12499920012E+03 0.  0.
          2    1    1    2  501    0  0.37890136255E+02  0.50447540475E+01 -0.76019440254E+03  0.76115480792E+03  0.00000000000E+00 0. -1.
          1    1    1    2  502    0 -0.51573057017E+01 -0.35404213867E+02  0.13683154713E+04  0.13687831403E+04  0.00000000000E+00 0. -1.
         22    1    3    3    0    0  0.40099937425E+02  0.36917462967E+02  0.31372789236E+02  0.62890030672E+02  0.00000000000E+00 0. -1.
         22    1    3    3    0    0 -0.72832767978E+02 -0.65580031472E+01 -0.15823748949E+01  0.73144537780E+02  0.00000000000E+00 0. -1.
</event>
<event>
 7    1  0.5854318E-006  0.8297292E+02  0.7818608E-02  0.1384692E+00
          2   -1    0    0  502    0  0.00000000000E+00  0.00000000000E+00  0.11974784805E+04  0.11974784805E+04  0.00000000000E+00 0. -1.
          1   -1    0    0  501    0 -0.00000000000E+00 -0.00000000000E+00 -0.22847637260E+03  0.22847637260E+03  0.00000000000E+00 0. -1.
         25    2    1    2    0    0 -0.11090261304E+03 -0.64469097050E+02  0.12193193931E+03  0.21667568321E+03  0.12500119927E+03 0.  0.
          2    1    1    2  501    0  0.66711879949E+02  0.45198571280E+02 -0.17154249763E+03  0.18952628912E+03  0.00000000000E+00 0. -1.
          1    1    1    2  502    0  0.44190733087E+02  0.19270525771E+02  0.10186126663E+04  0.10197528808E+04  0.00000000000E+00 0. -1.
         22    1    3    3    0    0 -0.95948902110E+02 -0.85865908130E+02  0.46573836922E+02  0.13692431589E+03  0.00000000000E+00 0. -1.
         22    1    3    3    0    0 -0.14953710926E+02  0.21396811079E+02  0.75358102388E+02  0.79751367326E+02  0.00000000000E+00 0. -1.
</event>
<event>
 7    1  0.5854318E-006  0.4937513E+02  0.7818608E-02  0.1498447E+00
          2   -1    0    0  502    0  0.00000000000E+00  0.00000000000E+00  0.11284112944E+04  0.11284112944E+04  0.00000000000E+00 0. -1.
          1   -1    0    0  501    0 -0.00000000000E+00 -0.00000000000E+00 -0.28330409618E+03  0.28330409618E+03  0.00000000000E+00 0. -1.
         25    2    1    2    0    0  0.38733979675E+02 -0.65183049690E+02 -0.13739701539E+03  0.20063016452E+03  0.12500148770E+03 0.  0.
          2    1    1    2  501    0 -0.10870852094E+02  0.44596811133E+02 -0.10939570533E+03  0.11863587710E+03  0.00000000000E+00 0. -1.
          1    1    1    2  502    0 -0.27863127582E+02  0.20586238557E+02  0.10918999190E+04  0.10924493490E+04  0.00000000000E+00 0. -1.
         22    1    3    3    0    0  0.14636386842E+02 -0.49371838526E+02 -0.15735896950E+03  0.16557067235E+03  0.00000000000E+00 0.  1.
         22    1    3    3    0    0  0.24097592833E+02 -0.15811211164E+02  0.19961954116E+02  0.35059492167E+02  0.00000000000E+00 0.  1.
</event>
<event>
 7    1  0.5854318E-006  0.9134478E+02  0.7818608E-02  0.1300467E+00
          2   -1    0    0  502    0  0.00000000000E+00  0.00000000000E+00  0.63138946307E+03  0.63138946307E+03  0.00000000000E+00 0. -1.
          1   -1    0    0  501    0 -0.00000000000E+00 -0.00000000000E+00 -0.88679223926E+02  0.88679223926E+02  0.00000000000E+00 0. -1.
         25    2    1    2    0    0  0.63373915906E+02 -0.28477027291E+02  0.40091168752E+03  0.42565538684E+03  0.12500053143E+03 0.  0.
          2    1    1    2  501    0  0.91192674268E+02 -0.52693102731E+01  0.17011652619E+02  0.92915368997E+02  0.00000000000E+00 0. -1.
          1    1    1    2  502    0 -0.15456659017E+03  0.33746337564E+02  0.12478689901E+03  0.20149793116E+03  0.00000000000E+00 0. -1.
         22    1    3    3    0    0  0.23444047649E+02 -0.68320287223E+02  0.12798705249E+03  0.14696248032E+03  0.00000000000E+00 0. -1.
         22    1    3    3    0    0  0.39929868257E+02  0.39843259933E+02  0.27292463503E+03  0.27869290653E+03  0.00000000000E+00 0. -1.
</event>
<event>
 7    1  0.5854318E-006  0.1411297E+03  0.7818608E-02  0.1303112E+00
          2   -1    0    0  502    0  0.00000000000E+00  0.00000000000E+00  0.13350382164E+04  0.13350382164E+04  0.00000000000E+00 0. -1.
          1   -1    0    0  501    0 -0.00000000000E+00 -0.00000000000E+00 -0.25234903587E+04  0.25234903587E+04  0.00000000000E+00 0. -1.
         25    2    1    2    0    0 -0.86238038109E+01 -0.85188241326E+02 -0.90220704950E+02  0.17634308791E+03  0.12500281036E+03 0.  0.
          2    1    1    2  501    0 -0.12602993972E+01 -0.57243320432E+02 -0.23859195201E+04  0.23866064491E+04  0.00000000000E+00 0. -1.
          1    1    1    2  502    0  0.98841032081E+01  0.14243156176E+03  0.12876880828E+04  0.12955790381E+04  0.00000000000E+00 0. -1.
         22    1    3    3    0    0  0.20372890687E+02 -0.37729414502E+02  0.24117737240E+02  0.49195819367E+02  0.00000000000E+00 0. -1.
         22    1    3    3    0    0 -0.28996694498E+02 -0.47458826824E+02 -0.11433844219E+03  0.12714726854E+03  0.00000000000E+00 0. -1.
</event>
<event>
 7    1  0.5854318E-006  0.7279201E+02  0.7818608E-02  0.1442870E+00
          2   -1    0    0  502    0  0.00000000000E+00  0.00000000000E+00  0.10476765033E+03  0.10476765033E+03  0.00000000000E+00 0. -1.
          1   -1    0    0  501    0 -0.00000000000E+00 -0.00000000000E+00 -0.12693786851E+04  0.12693786851E+04  0.00000000000E+00 0. -1.
         25    2    1    2    0    0  0.65244476233E+02  0.54966616490E+02 -0.11681207109E+02  0.15179045093E+03  0.12500287911E+03 0.  0.
          2    1    1    2  501    0 -0.69819363889E+02 -0.20286114689E+02 -0.11774145694E+04  0.11796572969E+04  0.00000000000E+00 0. -1.
          1    1    1    2  502    0  0.45748876553E+01 -0.34680501801E+02  0.24484741726E+02  0.42698587560E+02  0.00000000000E+00 0. -1.
         22    1    3    3    0    0  0.51899376202E+02  0.61118019459E+02 -0.60732568805E+02  0.10058529945E+03  0.00000000000E+00 0. -1.
         22    1    3    3    0    0  0.13345100032E+02 -0.61514029688E+01  0.49051361696E+02  0.51205151475E+02  0.00000000000E+00 0. -1.
</event>
<event>
 7    1  0.5854318E-006  0.1087700E+03  0.7818608E-02  0.1384503E+00
          2   -1    0    0  502    0  0.00000000000E+00  0.00000000000E+00  0.31708325272E+03  0.31708325272E+03  0.00000000000E+00 0. -1.
          1   -1    0    0  501    0 -0.00000000000E+00 -0.00000000000E+00 -0.79521511110E+02  0.79521511110E+02  0.00000000000E+00 0. -1.
         25    2    1    2    0    0 -0.79995660567E+02 -0.40348252353E+02  0.11453209266E+03  0.19175400523E+03  0.12499884437E+03 0.  0.
          2    1    1    2  501    0 -0.19626040022E+02 -0.31167693974E+02  0.10223446207E+02  0.38224670659E+02  0.00000000000E+00 0. -1.
          1    1    1    2  502    0  0.99621700589E+02  0.71515946327E+02  0.11280620274E+03  0.16662608794E+03  0.00000000000E+00 0. -1.
         22    1    3    3    0    0 -0.27671039117E+02 -0.24022586884E+02  0.12978507724E+03  0.13485895358E+03  0.00000000000E+00 0.  1.
         22    1    3    3    0    0 -0.52324621450E+02 -0.16325665469E+02 -0.15252984579E+02  0.56895051643E+02  0.00000000000E+00 0.  1.
</event>
<event>
 7    1  0.5854318E-006  0.8074157E+02  0.7818608E-02  0.1409542E+00
          2   -1    0    0  502    0  0.00000000000E+00  0.00000000000E+00  0.27408072807E+04  0.27408072807E+04  0.00000000000E+00 0. -1.
          1   -1    0    0  501    0 -0.00000000000E+00 -0.00000000000E+00 -0.66811469203E+03  0.66811469203E+03  0.00000000000E+00 0. -1.
         25    2    1    2    0    0  0.16312073336E+02  0.46974420866E+02  0.23377539839E+03  0.26972087243E+03  0.12500292868E+03 0.  0.
          2    1    1    2  501    0  0.61574512345E+01 -0.80860304357E+02 -0.64744630449E+03  0.65250518789E+03  0.00000000000E+00 0. -1.
          1    1    1    2  502    0 -0.22469524571E+02  0.33885883491E+02  0.24863634948E+04  0.24866959124E+04  0.00000000000E+00 0. -1.
         22    1    3    3    0    0  0.64682969395E+02  0.24732370888E+00  0.14103956782E+03  0.15516477497E+03  0.00000000000E+00 0. -1.
         22    1    3    3    0    0 -0.48370896058E+02  0.46727097158E+02  0.92735830564E+02  0.11455609746E+03  0.00000000000E+00 0. -1.
</event>
<event>
 7    1  0.5854318E-006  0.8846515E+02  0.7818608E-02  0.1354198E+00
          2   -1    0    0  502    0  0.00000000000E+00  0.00000000000E+00  0.21153014542E+03  0.21153014542E+03  0.00000000000E+00 0. -1.
          1   -1    0    0  501    0 -0.00000000000E+00 -0.00000000000E+00 -0.14529093314E+04  0.14529093314E+04  0.00000000000E+00 0. -1.
         25    2    1    2    0    0  0.96863101345E+01 -0.97579257314E+02  0.33374005341E+02  0.16234170500E+03  0.12500187553E+03 0.  0.
          2    1    1    2  501    0  0.49740766580E+02  0.30245621441E+02 -0.13699720762E+04  0.13712083835E+04  0.00000000000E+00 0. -1.
          1    1    1    2  502    0 -0.59427076715E+02  0.67333635873E+02  0.95218884803E+02  0.13088938838E+03  0.00000000000E+00 0. -1.
         22    1    3    3    0    0 -0.34942322876E+02  0.14162372670E+02  0.15203698182E+02  0.40653304490E+02  0.00000000000E+00 0. -1.
         22    1    3    3    0    0  0.44628633010E+02 -0.11174162998E+03  0.18170307159E+02  0.12168840051E+03  0.00000000000E+00 0. -1.
</event>
<event>
 7    1  0.5854318E-006  0.8464658E+02  0.7818608E-02  0.1342098E+00
          2   -1    0    0  502    0  0.00000000000E+00  0.00000000000E+00  0.35134075371E+03  0.35134075371E+03  0.00000000000E+00 0. -1.
          1   -1    0    0  501    0 -0.00000000000E+00 -0.00000000000E+00 -0.38144060838E+03  0.38144060838E+03  0.00000000000E+00 0. -1.
         25    2    1    2    0    0 -0.20363352147E+02  0.12425407195E+03 -0.32241772007E+02  0.18032094687E+03  0.12498948560E+03 0.  0.
          2    1    1    2  501    0 -0.28192532587E+02 -0.77398470019E+02 -0.26469910874E+03  0.27722005740E+03  0.00000000000E+00 0. -1.
          1    1    1    2  502    0  0.48555884734E+02 -0.46855601930E+02  0.26684102608E+03  0.27524035783E+03  0.00000000000E+00 0. -1.
         22    1    3    3    0    0 -0.41273620173E+02  0.13496803122E+03 -0.51192944993E+02  0.15013526831E+03  0.00000000000E+00 0. -1.
         22    1    3    3    0    0  0.20910268025E+02 -0.10713959273E+02  0.18951172986E+02  0.30185678554E+02  0.00000000000E+00 0. -1.
</event>
<event>
 7    1  0.5854318E-006  0.6089173E+02  0.7818608E-02  0.1509623E+00
          2   -1    0    0  502    0  0.00000000000E+00  0.00000000000E+00  0.13825674229E+04  0.13825674229E+04  0.00000000000E+00 0. -1.
          1   -1    0    0  501    0 -0.00000000000E+00 -0.00000000000E+00 -0.36246889179E+03  0.36246889179E+03  0.00000000000E+00 0. -1.
         25    2    1    2    0    0 -0.71438600335E+02  0.11971584447E+02 -0.63710102103E+02  0.15789021320E+03  0.12499419932E+03 0.  0.
          2    1    1    2  501    0  0.52454210972E+02 -0.29774006720E+02 -0.24792595349E+03  0.25515723415E+03  0.00000000000E+00 0. -1.
          1    1    1    2  502    0  0.18984389363E+02  0.17802422274E+02  0.13317345867E+04  0.13319888673E+04  0.00000000000E+00 0. -1.
         22    1    3    3    0    0 -0.93389456562E+02 -0.18822292134E+02 -0.71705720114E+02  0.11923749232E+03  0.00000000000E+00 0.  1.
         22    1    3    3    0    0  0.21950856227E+02  0.30793876581E+02  0.79956180108E+01  0.38652720879E+02  0.00000000000E+00 0.  1.
</event>
<event>
 7    1  0.5854318E-006  0.1245464E+03  0.7818608E-02  0.1421756E+00
          2   -1    0    0  502    0  0.00000000000E+00  0.00000000000E+00  0.11095482943E+04  0.11095482943E+04  0.00000000000E+00 0. -1.
          1   -1    0    0  501    0 -0.00000000000E+00 -0.00000000000E+00 -0.16809869441E+03  0.16809869441E+03  0.00000000000E+00 0. -1.
         25    2    1    2    0    0  0.19231786446E+02  0.10422533653E+03 -0.10073772088E+03  0.19237365463E+03  0.12500700862E+03 0.  0.
          2    1    1    2  501    0  0.18801070878E+02  0.14886329695E+02 -0.97819770438E+01  0.25899230738E+02  0.00000000000E+00 0. -1.
          1    1    1    2  502    0 -0.38032857324E+02 -0.11911166623E+03  0.10519692978E+04  0.10593741034E+04  0.00000000000E+00 0. -1.
         22    1    3    3    0    0  0.60286709520E+02  0.10287035024E+03 -0.56296995561E+02  0.13185654331E+03  0.00000000000E+00 0.  1.
         22    1    3    3    0    0 -0.41054923074E+02  0.13549862916E+01 -0.44440725322E+02  0.60517111329E+02  0.00000000000E+00 0.  1.
</event>
<event>
 7    1  0.5854318E-006  0.1013187E+03  0.7818608E-02  0.1460542E+00
          2   -1    0    0  502    0  0.00000000000E+00  0.00000000000E+00  0.19876807039E+04  0.19876807039E+04  0.00000000000E+00 0. -1.
          1   -1    0    0  501    0 -0.00000000000E+00 -0.00000000000E+00 -0.71479534884E+02  0.71479534884E+02  0.00000000000E+00 0. -1.
         25    2    1    2    0    0  0.89729705432E+02  0.56975574285E+02  0.27689658442E+03  0.32186140543E+03  0.12500163895E+03 0.  0.
          2    1    1    2  501    0 -0.94368883075E+02 -0.35397870999E+02  0.29882406389E+01  0.10083364987E+03  0.00000000000E+00 0. -1.
          1    1    1    2  502    0  0.46391776433E+01 -0.21577703285E+02  0.16363163439E+04  0.16364651835E+04  0.00000000000E+00 0. -1.
         22    1    3    3    0    0  0.10099682785E+03  0.84862126322E+02  0.24335605244E+03  0.27681059947E+03  0.00000000000E+00 0.  1.
         22    1    3    3    0    0 -0.11267122420E+02 -0.27886552038E+02  0.33540531985E+02  0.45050805964E+02  0.00000000000E+00 0.  1.
</event>
<event>
 7    1  0.5854318E-006  0.9776934E+02  0.7818608E-02  0.1374472E+00
          2   -1    0    0  502    0  0.00000000000E+00  0.00000000000E+00  0.92713423974E+03  0.92713423974E+03  0.00000000000E+00 0. -1.
          1   -1    0    0  501    0 -0.00000000000E+00 -0.00000000000E+00 -0.19167489164E+03  0.19167489164E+03  0.00000000000E+00 0. -1.
         25    2    1    2    0    0  0.45947395484E+02  0.32097132017E+02  0.32586207117E+02  0.14081724634E+03  0.12500498765E+03 0.  0.
          2    1    1    2  501    0  0.31087948012E+02  0.31801033519E+02 -0.13089211628E+03  0.13824077672E+03  0.00000000000E+00 0. -1.
          1    1    1    2  502    0 -0.77035343495E+02 -0.63898165537E+02  0.83376525726E+03  0.83975110831E+03  0.00000000000E+00 0. -1.
         22    1    3    3    0    0 -0.23157908166E+02 -0.22571044378E+02  0.41095132689E+02  0.52292931508E+02  0.00000000000E+00 0. -1.
         22    1    3    3    0    0  0.69105303650E+02  0.54668176395E+02 -0.85089255722E+01  0.88524314837E+02  0.00000000000E+00 0. -1.
</event>
<event>
 7    1  0.5854318E-006  0.5773327E+02  0.7818608E-02  0.1511857E+00
          2   -1    0    0  502    0  0.00000000000E+00  0.00000000000E+00  0.17373205967E+04  0.17373205967E+04  0.00000000000E+00 0. -1.
          1   -1    0    0  501    0 -0.00000000000E+00 -0.00000000000E+00 -0.60199182595E+03  0.60199182595E+03  0.00000000000E+00 0. -1.
         25    2    1    2    0    0 -0.84043795788E+02  0.69184932353E+01  0.14111924218E+04  0.14192251739E+04  0.12499927084E+03 0.  0.
          2    1    1    2  501    0  0.57060078476E+02 -0.86183661165E+01 -0.59601204739E+03  0.59879920627E+03  0.00000000000E+00 0. -1.
          1    1    1    2  502    0  0.26983717311E+02  0.16998728812E+01  0.32014839636E+03  0.32128804251E+03  0.00000000000E+00 0. -1.
         22    1    3    3    0    0  0.29467187475E+01 -0.85066727250E+01  0.50740258279E+01  0.10334039400E+02  0.00000000000E+00 0.  1.
         22    1    3    3    0    0 -0.86990514535E+02  0.15425165960E+02  0.14061183959E+04  0.14088911345E+04  0.00000000000E+00 0.  1.
</event>
<event>
 7    1  0.5854318E-006  0.8726440E+02  0.7818608E-02  0.1335341E+00
          2   -1    0    0  502    0  0.00000000000E+00  0.00000000000E+00  0.52823012959E+03  0.52823012959E+03  0.00000000000E+00 0. -1.
          1   -1    0    0  501    0 -0.00000000000E+00 -0.00000000000E+00 -0.81734852669E+03  0.81734852669E+03  0.00000000000E+00 0. -1.
         25    2    1    2    0    0 -0.57555111307E+02 -0.79095511970E+02  0.12038870458E+03  0.19921712925E+03  0.12500133418E+03 0.  0.
          2    1    1    2  501    0  0.86069928887E+02  0.15817608605E+02 -0.77217195345E+03  0.77711502050E+03  0.00000000000E+00 0. -1.
          1    1    1    2  502    0 -0.28514817580E+02  0.63277903366E+02  0.36266485177E+03  0.36924650653E+03  0.00000000000E+00 0. -1.
         22    1    3    3    0    0 -0.62870153934E+02 -0.63446221427E+02  0.12642080863E+02  0.90210318022E+02  0.00000000000E+00 0. -1.
         22    1    3    3    0    0  0.53150426269E+01 -0.15649290543E+02  0.10774662371E+03  0.10900681123E+03  0.00000000000E+00 0. -1.
</event>
<event>
 7    1  0.5854318E-006  0.1005807E+03  0.7818608E-02  0.1319868E+00
          2   -1    0    0  502    0  0.00000000000E+00  0.00000000000E+00  0.64450833651E+03  0.64450833651E+03  0.00000000000E+00 0. -1.
          1   -1    0    0  501    0 -0.00000000000E+00 -0.00000000000E+00 -0.12129539449E+03  0.12129539449E+03  0.00000000000E+00 0. -1.
         25    2    1    2    0    0  0.49930892766E+02  0.60713274680E+01  0.11955503850E+02  0.13527184039E+03  0.12500232662E+03 0.  0.
          2    1    1    2  501    0  0.30565878159E+02  0.61896093168E+02 -0.32757353111E+02  0.76409707760E+02  0.00000000000E+00 0. -1.
          1    1    1    2  502    0 -0.80496770925E+02 -0.67967420636E+02  0.54401479128E+03  0.55412218285E+03  0.00000000000E+00 0. -1.
         22    1    3    3    0    0  0.72639203360E+02 -0.17784508685E+02  0.46083376864E+02  0.87843157031E+02  0.00000000000E+00 0. -1.
         22    1    3    3    0    0 -0.22708310594E+02  0.23855836153E+02 -0.34127873014E+02  0.47428683358E+02  0.00000000000E+00 0. -1.
</event>
<event>
 7    1  0.5854318E-006  0.1547020E+03  0.7818608E-02  0.1293656E+00
          2   -1    0    0  502    0  0.00000000000E+00  0.00000000000E+00  0.63613687343E+03  0.63613687343E+03  0.00000000000E+00 0. -1.
          1   -1    0    0  501    0 -0.00000000000E+00 -0.00000000000E+00 -0.59286144351E+03  0.59286144351E+03  0.00000000000E+00 0. -1.
         25    2    1    2    0    0  0.65675244255E+02 -0.15334940792E+03  0.35114102335E+03  0.40835575705E+03  0.12500050966E+03 0.  0.
          2    1    1    2  501    0 -0.10575664726E+03  0.11281667448E+03 -0.55029122422E+03  0.57160519761E+03  0.00000000000E+00 0. -1.
          1    1    1    2  502    0  0.40081403006E+02  0.40532733448E+02  0.24242563079E+03  0.24903736228E+03  0.00000000000E+00 0. -1.
         22    1    3    3    0    0 -0.81802279174E+00 -0.86661620263E+02  0.68588857964E+02  0.11052301581E+03  0.00000000000E+00 0. -1.
         22    1    3    3    0    0  0.66493267046E+02 -0.66687787662E+02  0.28255216538E+03  0.29783274123E+03  0.00000000000E+00 0. -1.
</event>
<event>
 7    1  0.5854318E-006  0.1029641E+03  0.7818608E-02  0.1340508E+00
          2   -1    0    0  502    0  0.00000000000E+00  0.00000000000E+00  0.20343100735E+04  0.20343100735E+04  0.00000000000E+00 0. -1.
          1   -1    0    0  501    0 -0.00000000000E+00 -0.00000000000E+00 -0.16154246111E+03  0.16154246111E+03  0.00000000000E+00 0. -1.
         25    2    1    2    0    0  0.15236993552E+03 -0.36935893522E+02  0.69346329414E+03  0.72187024068E+03  0.12499778626E+03 0.  0.
          2    1    1    2  501    0 -0.10049538395E+03  0.15210084742E+02 -0.12913402081E+03  0.16433582752E+03  0.00000000000E+00 0. -1.
          1    1    1    2  502    0 -0.51874551566E+02  0.21725808780E+02  0.13084383391E+04  0.13096464664E+04  0.00000000000E+00 0. -1.
         22    1    3    3    0    0  0.11281740964E+03  0.28290531345E+02  0.51163708864E+03  0.52469098768E+03  0.00000000000E+00 0. -1.
         22    1    3    3    0    0  0.39552525882E+02 -0.65226424866E+02  0.18182620550E+03  0.19717925299E+03  0.00000000000E+00 0. -1.
</event>
<event>
 7    1  0.5854318E-006  0.3995252E+02  0.7818608E-02  0.1538075E+00
          2   -1    0    0  502    0  0.00000000000E+00  0.00000000000E+00  0.42158053951E+03  0.42158053951E+03  0.00000000000E+00 0. -1.
          1   -1    0    0  501    0 -0.00000000000E+00 -0.00000000000E+00 -0.64509450671E+02  0.64509450671E+02  0.00000000000E+00 0. -1.
         25    2    1    2    0    0 -0.12285259700E+02  0.19281646321E+02  0.21774784322E+03  0.25211642427E+03  0.12500343463E+03 0.  0.
          2    1    1    2  501    0 -0.14441199270E+02 -0.38339968575E+02 -0.36646774965E+02  0.54968059289E+02  0.00000000000E+00 0. -1.
          1    1    1    2  502    0  0.26726458970E+02  0.19058322254E+02  0.17597002058E+03  0.17900550662E+03  0.00000000000E+00 0. -1.
         22    1    3    3    0    0  0.33398193594E+02  0.21110593683E+01  0.19573982595E+03  0.19857989669E+03  0.00000000000E+00 0. -1.
         22    1    3    3    0    0 -0.45683453294E+02  0.17170586953E+02  0.22008017271E+02  0.53536527580E+02  0.00000000000E+00 0. -1.
</event>
<event>
 7    1  0.5854318E-006  0.7141730E+02  0.7818608E-02  0.1447124E+00
          2   -1    0    0  502    0  0.00000000000E+00  0.00000000000E+00  0.94857197885E+03  0.94857197885E+03  0.00000000000E+00 0. -1.
          1   -1    0    0  501    0 -0.00000000000E+00 -0.00000000000E+00 -0.10174902449E+04  0.10174902449E+04  0.00000000000E+00 0. -1.
         25    2    1    2    0    0  0.44634258606E+02 -0.48669396805E+02  0.77530688174E+02  0.16123890707E+03  0.12500420120E+03 0.  0.
          2    1    1    2  501    0 -0.17073361320E+02  0.69498524470E+02 -0.97396289259E+03  0.97658858313E+03  0.00000000000E+00 0. -1.
          1    1    1    2  502    0 -0.27560897287E+02 -0.20829127665E+02  0.82751393838E+03  0.82823473353E+03  0.00000000000E+00 0. -1.
         22    1    3    3    0    0 -0.17898728255E+02 -0.72329842134E+02  0.40237588347E+02  0.84681958246E+02  0.00000000000E+00 0. -1.
         22    1    3    3    0    0  0.62532986862E+02  0.23660445329E+02  0.37293099827E+02  0.76556948827E+02  0.00000000000E+00 0. -1.
</event>
<event>
 7    1  0.5854318E-006  0.1155687E+03  0.7818608E-02  0.1345683E+00
          2   -1    0    0  502    0  0.00000000000E+00  0.00000000000E+00  0.32518391512E+03  0.32518391512E+03  0.00000000000E+00 0. -1.
          1   -1    0    0  501    0 -0.00000000000E+00 -0.00000000000E+00 -0.11723861079E+04  0.11723861079E+04  0.00000000000E+00 0. -1.
         25    2    1    2    0    0 -0.15092732129E+03  0.58146343111E+02  0.12490569330E+03  0.23955111528E+03  0.12499300415E+03 0.  0.
          2    1    1    2  501    0  0.10392106109E+03 -0.48835013282E+02 -0.11079956497E+04  0.11139294436E+04  0.00000000000E+00 0. -1.
          1    1    1    2  502    0  0.47006260193E+02 -0.93113298286E+01  0.13588776366E+03  0.14408946413E+03  0.00000000000E+00 0. -1.
         22    1    3    3    0    0 -0.10457725165E+03  0.61993904810E+02  0.14471146125E+03  0.18900013972E+03  0.00000000000E+00 0. -1.
         22    1    3    3    0    0 -0.46350069636E+02 -0.38475616987E+01 -0.19805767949E+02  0.50550975563E+02  0.00000000000E+00 0. -1.
</event>
<event>
 7    1  0.5854318E-006  0.7421758E+02  0.7818608E-02  0.1454599E+00
          2   -1    0    0  502    0  0.00000000000E+00  0.00000000000E+00  0.15058004667E+03  0.15058004667E+03  0.00000000000E+00 0. -1.
          1   -1    0    0  501    0 -0.00000000000E+00 -0.00000000000E+00 -0.80749445117E+03  0.80749445117E+03  0.00000000000E+00 0. -1.
         25    2    1    2    0    0 -0.30680688475E+02 -0.33726071455E+02 -0.74708570540E+03  0.75884196763E+03  0.12500131231E+03 0.  0.
          2    1    1    2  501    0 -0.69870902237E+01 -0.30678281044E+02 -0.38970694946E+02  0.50086838812E+02  0.00000000000E+00 0. -1.
          1    1    1    2  502    0  0.37667778698E+02  0.64404352499E+02  0.12914199584E+03  0.14914569140E+03  0.00000000000E+00 0. -1.
         22    1    3    3    0    0 -0.74720814044E+02  0.24636401317E+01 -0.47521585160E+03  0.48106067724E+03  0.00000000000E+00 0. -1.
         22    1    3    3    0    0  0.44040125569E+02 -0.36189711587E+02 -0.27186985380E+03  0.27778129039E+03  0.00000000000E+00 0. -1.
</event>
<event>
 7    1  0.5854318E-006  0.1024182E+03  0.7818608E-02  0.1313726E+00
          2   -1    0    0  502    0  0.00000000000E+00  0.00000000000E+00  0.24796011825E+04  0.24796011825E+04  0.00000000000E+00 0. -1.
          1   -1    0    0  501    0 -0.00000000000E+00 -0.00000000000E+00 -0.44762181319E+02  0.44762181319E+02  0.00000000000E+00 0. -1.
         25    2    1    2    0    0 -0.76026186234E+02  0.42420668699E+02  0.11166937839E+04  0.11270360311E+04  0.12500285689E+03 0.  0.
          2    1    1    2  501    0  0.10191023155E+03  0.24377033372E+02  0.32530963427E+02  0.10971872508E+03  0.00000000000E+00 0. -1.
          1    1    1    2  502    0 -0.25884045319E+02 -0.66797702071E+02  0.12856142538E+04  0.12876086076E+04  0.00000000000E+00 0. -1.
         22    1    3    3    0    0 -0.10124027483E+03  0.47699224706E+02  0.64483563913E+03  0.65447521785E+03  0.00000000000E+00 0. -1.
         22    1    3    3    0    0  0.25214088601E+02 -0.52785560069E+01  0.47185814480E+03  0.47256081327E+03  0.00000000000E+00 0. -1.
</event>
<event>
 7    1  0.5854318E-006  0.1561278E+03  0.7818608E-02  0.1217021E+00
          2   -1    0    0  502    0  0.00000000000E+00  0.00000000000E+00  0.27262510055E+04  0.27262510055E+04  0.00000000000E+00 0. -1.
          1   -1    0    0  501    0 -0.00000000000E+00 -0.00000000000E+00 -0.42726753206E+03  0.42726753206E+03  0.00000000000E+00 0. -1.
         25    2    1    2    0    0  0.27272835090E+03 -0.16984288297E+02  0.16080076142E+03  0.34081171532E+03  0.12500608383E+03 0.  0.
          2    1    1    2  501    0 -0.12072428664E+03 -0.84411280191E+00 -0.32400545302E+03  0.34576668362E+03  0.00000000000E+00 0. -1.
          1    1    1    2  502    0 -0.15200406426E+03  0.17828401099E+02  0.24621881650E+04  0.24669401386E+04  0.00000000000E+00 0. -1.
         22    1    3    3    0    0  0.21204754189E+03  0.71544492534E+00  0.57500013243E+02  0.21970644825E+03  0.00000000000E+00 0. -1.
         22    1    3    3    0    0  0.60680809013E+02 -0.17699733223E+02  0.10330074817E+03  0.12110526707E+03  0.00000000000E+00 0. -1.
</event>
<event>
 7    1  0.5854318E-006  0.5727400E+02  0.7818608E-02  0.1423586E+00
          2   -1    0    0  502    0  0.00000000000E+00  0.00000000000E+00  0.57083284275E+03  0.57083284275E+03  0.00000000000E+00 0. -1.
          1   -1    0    0  501    0 -0.00000000000E+00 -0.00000000000E+00 -0.18752869805E+03  0.18752869805E+03  0.00000000000E+00 0. -1.
         25    2    1    2    0    0 -0.57751342136E+01 -0.39366060318E+02 -0.45244746372E+02  0.13875480772E+03  0.12499108253E+03 0.  0.
          2    1    1    2  501    0 -0.45164841503E+02  0.46392219120E+02 -0.83119404961E+02  0.10536098132E+03  0.00000000000E+00 0. -1.
          1    1    1    2  502    0  0.50939975717E+02 -0.70261588017E+01  0.51166829604E+03  0.51424575176E+03  0.00000000000E+00 0. -1.
         22    1    3    3    0    0  0.13102337354E+02 -0.15212161102E+02  0.41853153351E+02  0.46419473661E+02  0.00000000000E+00 0.  1.
         22    1    3    3    0    0 -0.18877471568E+02 -0.24153899217E+02 -0.87097899723E+02  0.92335334062E+02  0.00000000000E+00 0.  1.
</event>
<event>
 7    1  0.5854318E-006  0.4618177E+02  0.7818608E-02  0.1488593E+00
          2   -1    0    0  502    0  0.00000000000E+00  0.00000000000E+00  0.96559256148E+01  0.96559256148E+01  0.00000000000E+00 0. -1.
          1   -1    0    0  501    0 -0.00000000000E+00 -0.00000000000E+00 -0.18785931047E+04  0.18785931047E+04  0.00000000000E+00 0. -1.
         25    2    1    2    0    0 -0.35376007387E+02 -0.11476402795E+02 -0.11417727592E+04  0.11491966735E+04  0.12499916362E+03 0.  0.
          2    1    1    2  501    0 -0.41328237889E+01  0.39441377460E+02 -0.62222348503E+03  0.62348598044E+03  0.00000000000E+00 0. -1.
          1    1    1    2  502    0  0.39508831176E+02 -0.27964974665E+02 -0.10494093481E+03  0.11556637637E+03  0.00000000000E+00 0. -1.
         22    1    3    3    0    0 -0.40204773314E+02  0.39175844572E+02 -0.26163267112E+03  0.26758704228E+03  0.00000000000E+00 0. -1.
         22    1    3    3    0    0  0.48287659263E+01 -0.50652247368E+02 -0.88014008811E+03  0.88160963121E+03  0.00000000000E+00 0. -1.
</event>
<event>
 7    1  0.5854318E-006  0.1003421E+03  0.7818608E-02  0.1347235E+00
          2   -1    0    0  502    0  0.00000000000E+00  0.00000000000E+00  0.32682218576E+03  0.32682218576E+03  0.00000000000E+00 0. -1.
          1   -1    0    0  501    0 -0.00000000000E+00 -0.00000000000E+00 -0.18314897964E+04  0.18314897964E+04  0.00000000000E+00 0. -1.
         25    2    1    2    0    0  0.87566383781E+02  0.83667454572E+02  0.13559310615E+03  0.22063058893E+03  0.12499700722E+03 0.  0.
          2    1    1    2  501    0  0.36750038707E+01 -0.54337563535E+02 -0.17730679193E+04  0.17739041470E+04  0.00000000000E+00 0. -1.
          1    1    1    2  502    0 -0.91241387652E+02 -0.29329891037E+02  0.13280720251E+03  0.16377724618E+03  0.00000000000E+00 0. -1.
         22    1    3    3    0    0  0.58591410489E+02  0.15612961583E+02 -0.59492584725E+01  0.60927100940E+02  0.00000000000E+00 0.  1.
         22    1    3    3    0    0  0.28974973292E+02  0.68054492989E+02  0.14154236463E+03  0.15970348799E+03  0.00000000000E+00 0.  1.
</event>
<event>
 7    1  0.5854318E-006  0.1179590E+03  0.7818608E-02  0.1332452E+00
          2   -1    0    0  502    0  0.00000000000E+00  0.00000000000E+00  0.38613970054E+04  0.38613970054E+04  0.00000000000E+00 0. -1.
          1   -1    0    0  501    0 -0.00000000000E+00 -0.00000000000E+00 -0.15765972864E+03  0.15765972864E+03  0.00000000000E+00 0. -1.
         25    2    1    2    0    0 -0.27566940006E+01 -0.66634922643E+02  0.87742972115E+03  0.88879455519E+03  0.12500013404E+03 0.  0.
          2    1    1    2  501    0  0.73026816126E+01  0.11909735927E+03 -0.12828603350E+03  0.17519936225E+03  0.00000000000E+00 0. -1.
          1    1    1    2  502    0 -0.45459876120E+01 -0.52462436628E+02  0.29545935891E+04  0.29550628166E+04  0.00000000000E+00 0. -1.
         22    1    3    3    0    0  0.15929395027E+02  0.25803241349E+02  0.75864586152E+02  0.81700601724E+02  0.00000000000E+00 0. -1.
         22    1    3    3    0    0 -0.18686089027E+02 -0.92438163993E+02  0.80156513499E+03  0.80709395347E+03  0.00000000000E+00 0. -1.
</event>
<event>
 7    1  0.5854318E-006  0.1440740E+03  0.7818608E-02  0.1209364E+00
          2   -1    0    0  502    0  0.00000000000E+00  0.00000000000E+00  0.71038954060E+03  0.71038954060E+03  0.00000000000E+00 0. -1.
          1   -1    0    0  501    0 -0.00000000000E+00 -0.00000000000E+00 -0.12080208530E+04  0.12080208530E+04  0.00000000000E+00 0. -1.
         25    2    1    2    0    0  0.14308044418E+03 -0.38582066475E+01 -0.62346274256E+03  0.65177997444E+03  0.12499777778E+03 0.  0.
          2    1    1    2  501    0 -0.99561694389E+02  0.14120238230E+03 -0.54954148131E+03  0.57606118029E+03  0.00000000000E+00 0. -1.
          1    1    1    2  502    0 -0.43518749792E+02 -0.13734417565E+03  0.67537291145E+03  0.69056923888E+03  0.00000000000E+00 0. -1.
         22    1    3    3    0    0  0.15023946619E+03  0.30033764192E+02 -0.54245849468E+03  0.56368000021E+03  0.00000000000E+00 0.  1.
         22    1    3    3    0    0 -0.71590220041E+01 -0.33891970840E+02 -0.81004247884E+02  0.88099974227E+02  0.00000000000E+00 0.  1.
</event>
<event>
 7    1  0.5854318E-006  0.9009482E+02  0.7818608E-02  0.1363419E+00
          2   -1    0    0  502    0  0.00000000000E+00  0.00000000000E+00  0.72333064874E+02  0.72333064874E+02  0.00000000000E+00 0. -1.
          1   -1    0    0  501    0 -0.00000000000E+00 -0.00000000000E+00 -0.19115408998E+04  0.19115408998E+04  0.00000000000E+00 0. -1.
         25    2    1    2    0    0 -0.10885873472E+02 -0.39974514769E+02 -0.22254235681E+03  0.25858319441E+03  0.12499481502E+03 0.  0.
          2    1    1    2  501    0  0.36166880750E+02  0.86433276112E+02 -0.16564554849E+04  0.16591032301E+04  0.00000000000E+00 0. -1.
          1    1    1    2  502    0 -0.25281007278E+02 -0.46458761342E+02  0.39790006817E+02  0.66187540194E+02  0.00000000000E+00 0. -1.
         22    1    3    3    0    0 -0.43073324742E+02 -0.35771785529E+01 -0.20071786084E+03  0.20531869659E+03  0.00000000000E+00 0.  1.
         22    1    3    3    0    0  0.32187451269E+02 -0.36397336216E+02 -0.21824495973E+02  0.53264497814E+02  0.00000000000E+00 0.  1.
</event>
<event>
 7    1  0.5854318E-006  0.8969474E+02  0.7818608E-02  0.1410101E+00
          2   -1    0    0  502    0  0.00000000000E+00  0.00000000000E+00  0.47861963703E+03  0.47861963703E+03  0.00000000000E+00 0. -1.
          1   -1    0    0  501    0 -0.00000000000E+00 -0.00000000000E+00 -0.11303282369E+04  0.11303282369E+04  0.00000000000E+00 0. -1.
         25    2    1    2    0    0  0.52815178785E+02 -0.11420918298E+03  0.19105202875E+03  0.26068967199E+03  0.12500018723E+03 0.  0.
          2    1    1    2  501    0 -0.36760882564E+02  0.81495192132E+02 -0.10923601485E+04  0.10960125559E+04  0.00000000000E+00 0. -1.
          1    1    1    2  502    0 -0.16054296222E+02  0.32713990844E+02  0.24959951984E+03  0.25224564601E+03  0.00000000000E+00 0. -1.
         22    1    3    3    0    0  0.71434660492E+02 -0.66182142149E+02  0.47842839695E+02  0.10849849754E+03  0.00000000000E+00 0. -1.
         22    1    3    3    0    0 -0.18619481707E+02 -0.48027040828E+02  0.14320918906E+03  0.15219117445E+03  0.00000000000E+00 0. -1.
</event>
<event>
 7    1  0.5854318E-006  0.1108906E+03  0.7818608E-02  0.1340560E+00
          2   -1    0    0  502    0  0.00000000000E+00  0.00000000000E+00  0.14608173713E+04  0.14608173713E+04  0.00000000000E+00 0. -1.
          1   -1    0    0  501    0 -0.00000000000E+00 -0.00000000000E+00 -0.84225634464E+03  0.84225634464E+03  0.00000000000E+00 0. -1.
         25    2    1    2    0    0 -0.82114290408E+02 -0.15701633494E+02  0.32803521576E+03  0.36086071762E+03  0.12499622698E+03 0.  0.
          2    1    1    2  501    0 -0.14830619775E+02 -0.50045192494E+02 -0.82194080309E+03  0.82359647423E+03  0.00000000000E+00 0. -1.
          1    1    1    2  502    0  0.96944910183E+02  0.65746825988E+02  0.11124666140E+04  0.11186165241E+04  0.00000000000E+00 0. -1.
         22    1    3    3    0    0 -0.82494396344E+02 -0.51521334571E+02  0.14664629316E+03  0.17596848764E+03  0.00000000000E+00 0.  1.
         22    1    3    3    0    0  0.38010593641E+00  0.35819701077E+02  0.18138892260E+03  0.18489222999E+03  0.00000000000E+00 0.  1.
</event>
<event>
 7    1  0.5854318E-006  0.1111551E+03  0.7818608E-02  0.1360699E+00
          2   -1    0    0  502    0  0.00000000000E+00  0.00000000000E+00  0.17240600406E+04  0.17240600406E+04  0.00000000000E+00 0. -1.
          1   -1    0    0  501    0 -0.00000000000E+00 -0.00000000000E+00 -0.44449372350E+02  0.44449372350E+02  0.00000000000E+00 0. -1.
         25    2    1    2    0    0  0.15974727971E+02  0.90769669259E+02  0.51832614544E+03  0.54109487839E+03  0.12500939796E+03 0.  0.
          2    1    1    2  501    0  0.42509495716E+02  0.10795278095E+02 -0.14201194022E+02  0.46100641718E+02  0.00000000000E+00 0. -1.
          1    1    1    2  502    0 -0.58484223686E+02 -0.10156494735E+03  0.11754857168E+04  0.11813138929E+04  0.00000000000E+00 0. -1.
         22    1    3    3    0    0  0.66205224520E+01  0.71682314097E+02  0.51448189903E+03  0.51949380160E+03  0.00000000000E+00 0.  1.
         22    1    3    3    0    0  0.93542055186E+01  0.19087355162E+02  0.38442464120E+01  0.21601076789E+02  0.00000000000E+00 0.  1.
</event>
<event>
 7    1  0.5854318E-006  0.1186597E+03  0.7818608E-02  0.1355930E+00
          2   -1    0    0  502    0  0.00000000000E+00  0.00000000000E+00  0.19941074143E+04  0.19941074143E+04  0.00000000000E+00 0. -1.
          1   -1    0    0  501    0 -0.00000000000E+00 -0.00000000000E+00 -0.15655197775E+04  0.15655197775E+04  0.00000000000E+00 0. -1.
         25    2    1    2    0    0 -0.11416369544E+03  0.10554945429E+03  0.53252455533E+03  0.56866628231E+03  0.12499960782E+03 0.  0.
          2    1    1    2  501    0  0.24325692676E+02 -0.35177692560E+02 -0.15448970542E+04  0.15454889574E+04  0.00000000000E+00 0. -1.
          1    1    1    2  502    0  0.89838002761E+02 -0.70371761730E+02  0.14409601357E+04  0.14454719521E+04  0.00000000000E+00 0. -1.
         22    1    3    3    0    0 -0.12564978316E+03  0.46827089000E+02  0.42452642236E+03  0.44520032295E+03  0.00000000000E+00 0. -1.
         22    1    3    3    0    0  0.11486087725E+02  0.58722365290E+02  0.10799813297E+03  0.12346595936E+03  0.00000000000E+00 0. -1.
</event>
<event>
 7    1  0.5854318E-006  0.5675366E+02  0.7818608E-02  0.1436774E+00
          2   -1    0    0  502    0  0.00000000000E+00  0.00000000000E+00  0.39216421197E+03  0.39216421197E+03  0.00000000000E+00 0. -1.
          1   -1    0    0  501    0 -0.00000000000E+00 -0.00000000000E+00 -0.32888270841E+03  0.32888270841E+03  0.00000000000E+00 0. -1.
         25    2    1    2    0    0  0.18825432057E+02 -0.71978034335E+01  0.10159893426E+03  0.16234067828E+03  0.12500378841E+03 0.  0.
          2    1    1    2  501    0 -0.19878826338E+02  0.54144037024E+02 -0.29356383080E+03  0.29917631463E+03  0.00000000000E+00 0. -1.
          1    1    1    2  502    0  0.10533942815E+01 -0.46946233591E+02  0.25524640010E+03  0.25952992747E+03  0.00000000000E+00 0. -1.
         22    1    3    3    0    0 -0.48059363481E+02 -0.16241592023E+02  0.15711493535E+02  0.53106899352E+02  0.00000000000E+00 0. -1.
         22    1    3    3    0    0  0.66884795538E+02  0.90437885893E+01  0.85887440721E+02  0.10923377893E+03  0.00000000000E+00 0. -1.
</event>
<event>
 7    1  0.5854318E-006  0.1621251E+03  0.7818608E-02  0.1261914E+00
          2   -1    0    0  502    0  0.00000000000E+00  0.00000000000E+00  0.21032154591E+03  0.21032154591E+03  0.00000000000E+00 0. -1.
          1   -1    0    0  501    0 -0.00000000000E+00 -0.00000000000E+00 -0.43362967534E+04  0.43362967534E+04  0.00000000000E+00 0. -1.
         25    2    1    2    0    0  0.29809761416E+02  0.19664041960E+03 -0.40990343927E+03  0.47244346350E+03  0.12500368067E+03 0.  0.
          2    1    1    2  501    0 -0.77763649712E+02 -0.14073244195E+03 -0.38858147137E+04  0.38891398528E+04  0.00000000000E+00 0. -1.
          1    1    1    2  502    0  0.47953888296E+02 -0.55907977655E+02  0.16974294552E+03  0.18503498297E+03  0.00000000000E+00 0. -1.
         22    1    3    3    0    0  0.72863945078E+01  0.20499289883E+03 -0.32595614800E+03  0.38512672010E+03  0.00000000000E+00 0. -1.
         22    1    3    3    0    0  0.22523366908E+02 -0.83524792282E+01 -0.83947291269E+02  0.87316743398E+02  0.00000000000E+00 0. -1.
</event>
<event>
 7    1  0.5854318E-006  0.1551604E+03  0.7818608E-02  0.1234530E+00
          2   -1    0    0  502    0  0.00000000000E+00  0.00000000000E+00  0.79604370175E+03  0.79604370175E+03  0.00000000000E+00 0. -1.
          1   -1    0    0  501    0 -0.00000000000E+00 -0.00000000000E+00 -0.20679555366E+03  0.20679555366E+03  0.00000000000E+00 0. -1.
         25    2    1    2    0    0  0.23720006678E+03 -0.43633443191E+02  0.72334989481E+02  0.28111498144E+03  0.12500213215E+03 0.  0.
          2    1    1    2  501    0 -0.10044516718E+03 -0.12822359325E+02 -0.65642138893E+02  0.12067532849E+03  0.00000000000E+00 0. -1.
          1    1    1    2  502    0 -0.13675489961E+03  0.56455802517E+02  0.58255529751E+03  0.60104894548E+03  0.00000000000E+00 0. -1.
         22    1    3    3    0    0  0.25243629100E+02  0.27026384683E+02  0.41477180963E+02  0.55569981283E+02  0.00000000000E+00 0. -1.
         22    1    3    3    0    0  0.21195643768E+03 -0.70659827874E+02  0.30857808518E+02  0.22554500016E+03  0.00000000000E+00 0. -1.
</event>
<event>
 7    1  0.5854318E-006  0.4706458E+02  0.7818608E-02  0.1476868E+00
          2   -1    0    0  502    0  0.00000000000E+00  0.00000000000E+00  0.93179383591E+03  0.93179383591E+03  0.00000000000E+00 0. -1.
          1   -1    0    0  501    0 -0.00000000000E+00 -0.00000000000E+00 -0.14975377167E+04  0.14975377167E+04  0.00000000000E+00 0. -1.
         25    2    1    2    0    0 -0.38420903497E+02 -0.23817199551E+02  0.20705954191E+02  0.13452464486E+03  0.12499887486E+03 0.  0.
          2    1    1    2  501    0  0.43543256776E+02 -0.18131655310E+02 -0.14397192097E+04  0.14404916435E+04  0.00000000000E+00 0. -1.
          1    1    1    2  502    0 -0.51223532791E+01  0.41948854861E+02  0.85326937472E+03  0.85431526427E+03  0.00000000000E+00 0. -1.
         22    1    3    3    0    0 -0.13333456208E+02  0.13658707828E+02 -0.48387171532E+02  0.52015956425E+02  0.00000000000E+00 0. -1.
         22    1    3    3    0    0 -0.25087447289E+02 -0.37475907379E+02  0.69093125722E+02  0.82508688436E+02  0.00000000000E+00 0. -1.
</event>
<event>
 7    1  0.5854318E-006  0.4425560E+02  0.7818608E-02  0.1521583E+00
          2   -1    0    0  502    0  0.00000000000E+00  0.00000000000E+00  0.12983066246E+04  0.12983066246E+04  0.00000000000E+00 0. -1.
          1   -1    0    0  501    0 -0.00000000000E+00 -0.00000000000E+00 -0.81728938523E+02  0.81728938523E+02  0.00000000000E+00 0. -1.
         25    2    1    2    0    0 -0.20730083406E+02 -0.10777636447E+02  0.25289517201E+03  0.28306712660E+03  0.12500054532E+03 0.  0.
          2    1    1    2  501    0  0.42907065144E+02 -0.13714974674E+02 -0.58733588990E+02  0.74018587160E+02  0.00000000000E+00 0. -1.
          1    1    1    2  502    0 -0.22176981738E+02  0.24492611121E+02  0.10224161031E+04  0.10229498494E+04  0.00000000000E+00 0. -1.
         22    1    3    3    0    0  0.94004901121E+01  0.18410913167E+02  0.23747425641E+03  0.23837229997E+03  0.00000000000E+00 0.  1.
         22    1    3    3    0    0 -0.30130573518E+02 -0.29188549614E+02  0.15420915599E+02  0.44694826625E+02  0.00000000000E+00 0.  1.
</event>
<event>
 7    1  0.5854318E-006  0.3984358E+02  0.7818608E-02  0.1610856E+00
          2   -1    0    0  502    0  0.00000000000E+00  0.00000000000E+00  0.94678915291E+02  0.94678915291E+02  0.00000000000E+00 0. -1.
          1   -1    0    0  501    0 -0.00000000000E+00 -0.00000000000E+00 -0.35655921049E+03  0.35655921049E+03  0.00000000000E+00 0. -1.
         25    2    1    2    0    0  0.33080040188E+02  0.23192523451E+02 -0.43768918764E+02  0.13846816918E+03  0.12500213367E+03 0.  0.
          2    1    1    2  501    0 -0.16773348396E+02 -0.36309174926E+02 -0.26153021462E+03  0.26457088759E+03  0.00000000000E+00 0. -1.
          1    1    1    2  502    0 -0.16306691792E+02  0.13116651475E+02  0.43418838193E+02  0.48199069007E+02  0.00000000000E+00 0. -1.
         22    1    3    3    0    0  0.75599399715E+02  0.39882637432E+02 -0.32288506597E+02  0.91369807180E+02  0.00000000000E+00 0.  1.
         22    1    3    3    0    0 -0.42519359527E+02 -0.16690113980E+02 -0.11480412167E+02  0.47098361997E+02  0.00000000000E+00 0.  1.
</event>
<event>
 7    1  0.5854318E-006  0.6199559E+02  0.7818608E-02  0.1423342E+00
          2   -1    0    0  502    0  0.00000000000E+00  0.00000000000E+00  0.72761177046E+03  0.72761177046E+03  0.00000000000E+00 0. -1.
          1   -1    0    0  501    0 -0.00000000000E+00 -0.00000000000E+00 -0.16004759500E+04  0.16004759500E+04  0.00000000000E+00 0. -1.
         25    2    1    2    0    0  0.18328817252E+02 -0.14226656152E+02 -0.17543577543E+03  0.21665329997E+03  0.12499039084E+03 0.  0.
          2    1    1    2  501    0 -0.63517999043E+02 -0.71355614065E+00 -0.14029109045E+04  0.14043482657E+04  0.00000000000E+00 0. -1.
          1    1    1    2  502    0  0.45189181791E+02  0.14940212292E+02  0.70548250034E+03  0.70708615485E+03  0.00000000000E+00 0. -1.
         22    1    3    3    0    0  0.45347686843E+02 -0.44734425781E+02 -0.16146026265E+03  0.17357130513E+03  0.00000000000E+00 0. -1.
         22    1    3    3    0    0 -0.27018869591E+02  0.30507769630E+02 -0.13975512780E+02  0.43081994838E+02  0.00000000000E+00 0. -1.
</event>
<event>
 7    1  0.5854318E-006  0.5433732E+02  0.7818608E-02  0.1483496E+00
          2   -1    0    0  502    0  0.00000000000E+00  0.00000000000E+00  0.13829864002E+04  0.13829864002E+04  0.00000000000E+00 0. -1.
          1   -1    0    0  501    0 -0.00000000000E+00 -0.00000000000E+00 -0.69568417927E+03  0.69568417927E+03  0.00000000000E+00 0. -1.
         25    2    1    2    0    0  0.44225567294E+02 -0.29698618973E+01  0.27228555118E+03  0.30287581847E+03  0.12501847523E+03 0.  0.
          2    1    1    2  501    0 -0.44039120463E+02 -0.31959956203E+02 -0.67902192069E+03  0.68119868740E+03  0.00000000000E+00 0. -1.
          1    1    1    2  502    0 -0.18644683126E+00  0.34929818100E+02  0.10940385904E+04  0.10945960736E+04  0.00000000000E+00 0. -1.
         22    1    3    3    0    0  0.75908453547E+02 -0.68023231355E+01  0.90525343955E+02  0.11833512926E+03  0.00000000000E+00 0.  1.
         22    1    3    3    0    0 -0.31682886253E+02  0.38324612382E+01  0.18176020723E+03  0.18454068920E+03  0.00000000000E+00 0.  1.
</event>
<event>
 7    1  0.5854318E-006  0.1313823E+03  0.7818608E-02  0.1315908E+00
          2   -1    0    0  502    0  0.00000000000E+00  0.00000000000E+00  0.60631164843E+03  0.60631164843E+03  0.00000000000E+00 0. -1.
          1   -1    0    0  501    0 -0.00000000000E+00 -0.00000000000E+00 -0.14974792350E+04  0.14974792350E+04  0.00000000000E+00 0. -1.
         25    2    1    2    0    0 -0.62941476934E+02 -0.17229724843E+03 -0.56364506952E+03  0.60577963437E+03  0.12500091874E+03 0.  0.
          2    1    1    2  501    0  0.30087324297E+02  0.45750735625E+02 -0.90462684639E+03  0.90628257630E+03  0.00000000000E+00 0. -1.
          1    1    1    2  502    0  0.32854152637E+02  0.12654651280E+03  0.57710432933E+03  0.59172867277E+03  0.00000000000E+00 0. -1.
         22    1    3    3    0    0 -0.56081930678E+01 -0.13587361866E+03 -0.24729597953E+03  0.28222046979E+03  0.00000000000E+00 0. -1.
         22    1    3    3    0    0 -0.57333283866E+02 -0.36423629768E+02 -0.31634908999E+03  0.32355916458E+03  0.00000000000E+00 0. -1.
</event>
<event>
 7    1  0.5854318E-006  0.7448935E+02  0.7818608E-02  0.1408476E+00
          2   -1    0    0  502    0  0.00000000000E+00  0.00000000000E+00  0.85440697243E+03  0.85440697243E+03  0.00000000000E+00 0. -1.
          1   -1    0    0  501    0 -0.00000000000E+00 -0.00000000000E+00 -0.97369479052E+02  0.97369479052E+02  0.00000000000E+00 0. -1.
         25    2    1    2    0    0  0.11124831607E+03 -0.21784860729E+02  0.25461557798E+03  0.30546046168E+03  0.12500493236E+03 0.  0.
          2    1    1    2  501    0 -0.67049628898E+02  0.26411259394E+02 -0.52788476555E+02  0.89329897656E+02  0.00000000000E+00 0. -1.
          1    1    1    2  502    0 -0.44198687169E+02 -0.46263986650E+01  0.55521039196E+03  0.55698609215E+03  0.00000000000E+00 0. -1.
         22    1    3    3    0    0  0.10372478341E+03 -0.56378388095E+02  0.12862365674E+03  0.17458922765E+03  0.00000000000E+00 0. -1.
         22    1    3    3    0    0  0.75235326572E+01  0.34593527366E+02  0.12599192123E+03  0.13087123403E+03  0.00000000000E+00 0. -1.
</event>
<event>
 7    1  0.5854318E-006  0.2066495E+03  0.7818608E-02  0.1325205E+00
          2   -1    0    0  502    0  0.00000000000E+00  0.00000000000E+00  0.62932501044E+03  0.62932501044E+03  0.00000000000E+00 0. -1.
          1   -1    0    0  501    0 -0.00000000000E+00 -0.00000000000E+00 -0.74303677976E+03  0.74303677976E+03  0.00000000000E+00 0. -1.
         25    2    1    2    0    0  0.35012104739E+02  0.18060751791E+03 -0.12476697668E+03  0.25502275880E+03  0.12499954414E+03 0.  0.
          2    1    1    2  501    0  0.25404608573E+02  0.19525203136E+02 -0.53327929122E+03  0.53424098508E+03  0.00000000000E+00 0. -1.
          1    1    1    2  502    0 -0.60416713312E+02 -0.20013272104E+03  0.54433449858E+03  0.58309804632E+03  0.00000000000E+00 0. -1.
         22    1    3    3    0    0  0.56569644492E+02  0.60756683870E+02 -0.33832988120E+01  0.83083969716E+02  0.00000000000E+00 0.  1.
         22    1    3    3    0    0 -0.21557539753E+02  0.11985083404E+03 -0.12138367787E+03  0.17193878909E+03  0.00000000000E+00 0.  1.
</event>
<event>
 7    1  0.5854318E-006  0.1222761E+03  0.7818608E-02  0.1329209E+00
          2   -1    0    0  502    0  0.00000000000E+00  0.00000000000E+00  0.10620156108E+04  0.10620156108E+04  0.00000000000E+00 0. -1.
          1   -1    0    0  501    0 -0.00000000000E+00 -0.00000000000E+00 -0.10642171162E+03  0.10642171162E+03  0.00000000000E+00 0. -1.
         25    2    1    2    0    0  0.14969395157E+03 -0.20717013449E+02  0.10487727889E+03  0.22239906975E+03  0.12499851526E+03 0.  0.
          2    1    1    2  501    0 -0.30881110466E+02  0.42169911778E+02 -0.27843139976E+02  0.59221490075E+02  0.00000000000E+00 0. -1.
          1    1    1    2  502    0 -0.11881284110E+03 -0.21452898329E+02  0.87855976025E+03  0.88681676258E+03  0.00000000000E+00 0. -1.
         22    1    3    3    0    0  0.15857229341E+03 -0.31044432086E+02  0.12057886786E+03  0.20161396870E+03  0.00000000000E+00 0.  1.
         22    1    3    3    0    0 -0.88783418442E+01  0.10327418637E+02 -0.15701588970E+02  0.20785101053E+02  0.00000000000E+00 0.  1.
</event>
<event>
 7    1  0.5854318E-006  0.7200738E+02  0.7818608E-02  0.1391848E+00
          2   -1    0    0  502    0  0.00000000000E+00  0.00000000000E+00  0.90817190277E+03  0.90817190277E+03  0.00000000000E+00 0. -1.
          1   -1    0    0  501    0 -0.00000000000E+00 -0.00000000000E+00 -0.18000751232E+03  0.18000751232E+03  0.00000000000E+00 0. -1.
         25    2    1    2    0    0 -0.36847813734E+02  0.56356923211E+02  0.18670319227E+03  0.23455100414E+03  0.12498890898E+03 0.  0.
          2    1    1    2  501    0 -0.34917542662E+02 -0.39123649818E+02 -0.14965807144E+03  0.15857942208E+03  0.00000000000E+00 0. -1.
          1    1    1    2  502    0  0.71765356396E+02 -0.17233273394E+02  0.69111926962E+03  0.69504898887E+03  0.00000000000E+00 0. -1.
         22    1    3    3    0    0 -0.50841712644E+02  0.81958179407E+02  0.84376447929E+02  0.12814604122E+03  0.00000000000E+00 0.  1.
         22    1    3    3    0    0  0.13993898910E+02 -0.25601256196E+02  0.10232674434E+03  0.10640496292E+03  0.00000000000E+00 0.  1.
</event>
<event>
 7    1  0.5854318E-006  0.8912018E+02  0.7818608E-02  0.1305016E+00
          2   -1    0    0  502    0  0.00000000000E+00  0.00000000000E+00  0.21353366844E+04  0.21353366844E+04  0.00000000000E+00 0. -1.
          1   -1    0    0  501    0 -0.00000000000E+00 -0.00000000000E+00 -0.43836016925E+03  0.43836016925E+03  0.00000000000E+00 0. -1.
         25    2    1    2    0    0  0.66404013567E+01  0.16163705371E+02  0.23893139448E+03  0.27020452188E+03  0.12496764412E+03 0.  0.
          2    1    1    2  501    0  0.88567830025E+02 -0.99068900947E+01 -0.41679977404E+03  0.42622113818E+03  0.00000000000E+00 0. -1.
          1    1    1    2  502    0 -0.95208231382E+02 -0.62568152765E+01  0.18748448947E+04  0.18772711936E+04  0.00000000000E+00 0. -1.
         22    1    3    3    0    0 -0.35707722241E+02  0.56943207912E+02  0.12022980380E+03  0.13774170058E+03  0.00000000000E+00 0. -1.
         22    1    3    3    0    0  0.42348123597E+02 -0.40779502540E+02  0.11870159068E+03  0.13246282131E+03  0.00000000000E+00 0. -1.
</event>
<event>
 7    1  0.5854318E-006  0.1184086E+03  0.7818608E-02  0.1278090E+00
          2   -1    0    0  502    0  0.00000000000E+00  0.00000000000E+00  0.37398930557E+04  0.37398930557E+04  0.00000000000E+00 0. -1.
          1   -1    0    0  501    0 -0.00000000000E+00 -0.00000000000E+00 -0.98739841756E+02  0.98739841756E+02  0.00000000000E+00 0. -1.
         25    2    1    2    0    0 -0.62320095314E+02 -0.18030219127E+03  0.15745703676E+04  0.15910042654E+04  0.12502022068E+03 0.  0.
          2    1    1    2  501    0  0.13632096617E+02  0.85162917090E+02 -0.68335010822E+02  0.11003740368E+03  0.00000000000E+00 0. -1.
          1    1    1    2  502    0  0.48687998696E+02  0.95139274181E+02  0.21349178572E+04  0.21375912283E+04  0.00000000000E+00 0. -1.
         22    1    3    3    0    0 -0.52853187101E+02 -0.25419177199E+02  0.22405520971E+03  0.23160382327E+03  0.00000000000E+00 0. -1.
         22    1    3    3    0    0 -0.94669082124E+01 -0.15488301407E+03  0.13505151579E+04  0.13594004422E+04  0.00000000000E+00 0. -1.
</event>
<event>
 7    1  0.5854318E-006  0.1411837E+03  0.7818608E-02  0.1271525E+00
          2   -1    0    0  502    0  0.00000000000E+00  0.00000000000E+00  0.45957038488E+03  0.45957038488E+03  0.00000000000E+00 0. -1.
          1   -1    0    0  501    0 -0.00000000000E+00 -0.00000000000E+00 -0.16865513413E+04  0.16865513413E+04  0.00000000000E+00 0. -1.
         25    2    1    2    0    0 -0.58388212126E+02  0.63685799673E+02  0.37077170574E+02  0.15641017279E+03  0.12499744469E+03 0.  0.
          2    1    1    2  501    0 -0.73759108606E+02  0.22232120688E+02 -0.16088006318E+04  0.16106440159E+04  0.00000000000E+00 0. -1.
          1    1    1    2  502    0  0.13214732073E+03 -0.85917920361E+02  0.34474250473E+03  0.37906753750E+03  0.00000000000E+00 0. -1.
         22    1    3    3    0    0 -0.43493553870E+01  0.69711895060E+02 -0.24724184442E+02  0.74094200188E+02  0.00000000000E+00 0.  1.
         22    1    3    3    0    0 -0.54038856738E+02 -0.60260953866E+01  0.61801355016E+02  0.82315972600E+02  0.00000000000E+00 0.  1.
</event>
<event>
 7    1  0.5854318E-006  0.1495743E+03  0.7818608E-02  0.1375199E+00
          2   -1    0    0  502    0  0.00000000000E+00  0.00000000000E+00  0.43605550116E+03  0.43605550116E+03  0.00000000000E+00 0. -1.
          1   -1    0    0  501    0 -0.00000000000E+00 -0.00000000000E+00 -0.22241318174E+03  0.22241318174E+03  0.00000000000E+00 0. -1.
         25    2    1    2    0    0 -0.98525794120E+02  0.85418649401E+02 -0.60989446028E+02  0.19066341243E+03  0.12501658506E+03 0.  0.
          2    1    1    2  501    0 -0.28809891938E+02 -0.22315232057E+01 -0.78317212594E+02  0.83477993255E+02  0.00000000000E+00 0. -1.
          1    1    1    2  502    0  0.12733568606E+03 -0.83187126196E+02  0.35294897804E+03  0.38432727721E+03  0.00000000000E+00 0. -1.
         22    1    3    3    0    0  0.42744327239E+01  0.52379825586E+02 -0.63787256328E+02  0.82648236360E+02  0.00000000000E+00 0.  1.
         22    1    3    3    0    0 -0.10280022684E+03  0.33038823815E+02  0.27978103003E+01  0.10801517607E+03  0.00000000000E+00 0.  1.
</event>
<event>
 7    1  0.5854318E-006  0.8685922E+02  0.7818608E-02  0.1422689E+00
          2   -1    0    0  502    0  0.00000000000E+00  0.00000000000E+00  0.13046026629E+04  0.13046026629E+04  0.00000000000E+00 0. -1.
          1   -1    0    0  501    0 -0.00000000000E+00 -0.00000000000E+00 -0.35259148849E+03  0.35259148849E+03  0.00000000000E+00 0. -1.
         25    2    1    2    0    0 -0.81716759581E+02  0.56723664763E+02  0.78380456891E+03  0.79991801163E+03  0.12499608051E+03 0.  0.
          2    1    1    2  501    0  0.83805743796E+02 -0.22646607193E+02 -0.33848273426E+03  0.34943788133E+03  0.00000000000E+00 0. -1.
          1    1    1    2  502    0 -0.20889842150E+01 -0.34077057570E+02  0.50668933973E+03  0.50783825841E+03  0.00000000000E+00 0. -1.
         22    1    3    3    0    0  0.90038645966E+01 -0.29258297593E+02  0.93357190024E+02  0.98248066062E+02  0.00000000000E+00 0.  1.
         22    1    3    3    0    0 -0.90720624178E+02  0.85981962356E+02  0.69044737889E+03  0.70166994557E+03  0.00000000000E+00 0.  1.
</event>
<event>
 7    1  0.1187072E-005  0.1331263E+03  0.7818608E-02  0.1317786E+00
          2   -1    0    0  502    0  0.00000000000E+00  0.00000000000E+00  0.20456310079E+04  0.20456310079E+04  0.00000000000E+00 0. -1.
          1   -1    0    0  501    0 -0.00000000000E+00 -0.00000000000E+00 -0.16604936256E+04  0.16604936256E+04  0.00000000000E+00 0. -1.
         25    2    1    2    0    0  0.82029248255E+02 -0.34974575153E+02 -0.29709926152E+03  0.33443710700E+03  0.12501275482E+03 0.  0.
          2    1    1    2  501    0 -0.12745652740E+03  0.62540163233E+02 -0.13406282661E+04  0.13481248408E+04  0.00000000000E+00 0. -1.
          1    1    1    2  502    0  0.45427279144E+02 -0.27565588081E+02  0.20228649100E+04  0.20235626858E+04  0.00000000000E+00 0. -1.
         22    1    3    3    0    0  0.90551964754E+02 -0.40911555368E+02 -0.30538908933E+03  0.32114780019E+03  0.00000000000E+00 0. -1.
         22    1    3    3    0    0 -0.85227164984E+01  0.59369802151E+01  0.82898278073E+01  0.13289306816E+02  0.00000000000E+00 0. -1.
</event>
<event>
 7    1  0.5854318E-006  0.3235426E+02  0.7818608E-02  0.1648285E+00
          2   -1    0    0  502    0  0.00000000000E+00  0.00000000000E+00  0.13223108601E+04  0.13223108601E+04  0.00000000000E+00 0. -1.
          1   -1    0    0  501    0 -0.00000000000E+00 -0.00000000000E+00 -0.80380027640E+02  0.80380027640E+02  0.00000000000E+00 0. -1.
         25    2    1    2    0    0 -0.31393429126E+01  0.28953444821E+02  0.55293525975E+02  0.13975120515E+03  0.12499947154E+03 0.  0.
          2    1    1    2  501    0  0.23167491020E+02 -0.23539719169E+02 -0.30898003603E+02  0.45227620382E+02  0.00000000000E+00 0. -1.
          1    1    1    2  502    0 -0.20028148108E+02 -0.54137256514E+01  0.12175353101E+04  0.12177120622E+04  0.00000000000E+00 0. -1.
         22    1    3    3    0    0  0.37014468853E+02  0.55153739940E+02  0.62574903075E+02  0.91255818602E+02  0.00000000000E+00 0. -1.
         22    1    3    3    0    0 -0.40153811766E+02 -0.26200295119E+02 -0.72813771000E+01  0.48495386545E+02  0.00000000000E+00 0. -1.
</event>
<event>
 7    1  0.5854318E-006  0.1181352E+03  0.7818608E-02  0.1258249E+00
          2   -1    0    0  502    0  0.00000000000E+00  0.00000000000E+00  0.93141767233E+03  0.93141767233E+03  0.00000000000E+00 0. -1.
          1   -1    0    0  501    0 -0.00000000000E+00 -0.00000000000E+00 -0.10623854623E+03  0.10623854623E+03  0.00000000000E+00 0. -1.
         25    2    1    2    0    0 -0.31241313995E+02  0.73972925723E+01  0.93400077473E+02  0.15931219753E+03  0.12500424862E+03 0.  0.
          2    1    1    2  501    0 -0.77786267007E+02  0.70216208592E+02 -0.26708112803E+02  0.10814038364E+03  0.00000000000E+00 0. -1.
          1    1    1    2  502    0  0.10902758100E+03 -0.77613501165E+02  0.75848716143E+03  0.77020363738E+03  0.00000000000E+00 0. -1.
         22    1    3    3    0    0  0.77791993017E+01  0.51423727716E+02  0.38294602006E+01  0.52149597117E+02  0.00000000000E+00 0. -1.
         22    1    3    3    0    0 -0.39020513297E+02 -0.44026435144E+02  0.89570617272E+02  0.10716260042E+03  0.00000000000E+00 0. -1.
</event>
<event>
 7    1  0.5854318E-006  0.8281227E+02  0.7818608E-02  0.1446472E+00
          2   -1    0    0  502    0  0.00000000000E+00  0.00000000000E+00  0.82473298004E+03  0.82473298004E+03  0.00000000000E+00 0. -1.
          1   -1    0    0  501    0 -0.00000000000E+00 -0.00000000000E+00 -0.13112398118E+03  0.13112398118E+03  0.00000000000E+00 0. -1.
         25    2    1    2    0    0  0.56382520526E+02 -0.19151883255E+02  0.15260435495E+03  0.20605573042E+03  0.12500036654E+03 0.  0.
          2    1    1    2  501    0  0.16911750095E+02 -0.24702353143E+02 -0.99356693956E+02  0.10376881119E+03  0.00000000000E+00 0. -1.
          1    1    1    2  502    0 -0.73294270621E+02  0.43854236398E+02  0.64036133787E+03  0.64603241961E+03  0.00000000000E+00 0. -1.
         22    1    3    3    0    0 -0.33634809148E+02  0.71826085547E+00  0.85946291208E+02  0.92296160578E+02  0.00000000000E+00 0. -1.
         22    1    3    3    0    0  0.90017329675E+02 -0.19870144111E+02  0.66658063742E+02  0.11375956984E+03  0.00000000000E+00 0. -1.
</event>
<event>
 7    1  0.5854318E-006  0.6730777E+02  0.7818608E-02  0.1411782E+00
          2   -1    0    0  502    0  0.00000000000E+00  0.00000000000E+00  0.25961305933E+04  0.25961305933E+04  0.00000000000E+00 0. -1.
          1   -1    0    0  501    0 -0.00000000000E+00 -0.00000000000E+00 -0.10950091926E+02  0.10950091926E+02  0.00000000000E+00 0. -1.
         25    2    1    2    0    0  0.86211911039E+01 -0.28121707166E+02  0.56507043827E+03  0.57947848061E+03  0.12500221569E+03 0.  0.
          2    1    1    2  501    0 -0.27536082550E+02  0.92717088513E+02  0.15063510122E+04  0.15094529030E+04  0.00000000000E+00 0. -1.
          1    1    1    2  502    0  0.18914891446E+02 -0.64595381347E+02  0.51375905091E+03  0.51814930165E+03  0.00000000000E+00 0. -1.
         22    1    3    3    0    0  0.20000707471E+02 -0.63603284101E+02  0.16926827753E+03  0.18192623732E+03  0.00000000000E+00 0. -1.
         22    1    3    3    0    0 -0.11379516367E+02  0.35481576935E+02  0.39580216074E+03  0.39755224328E+03  0.00000000000E+00 0. -1.
</event>
<event>
 7    1  0.5854318E-006  0.1773290E+03  0.7818608E-02  0.1227723E+00
          2   -1    0    0  502    0  0.00000000000E+00  0.00000000000E+00  0.94347777449E+03  0.94347777449E+03  0.00000000000E+00 0. -1.
          1   -1    0    0  501    0 -0.00000000000E+00 -0.00000000000E+00 -0.10031576548E+04  0.10031576548E+04  0.00000000000E+00 0. -1.
         25    2    1    2    0    0 -0.16491721519E+03 -0.20461206533E+03  0.12159412485E+03  0.31539464785E+03  0.12499947021E+03 0.  0.
          2    1    1    2  501    0  0.67533375337E+02  0.66871575018E+02 -0.89389142832E+03  0.89892961346E+03  0.00000000000E+00 0. -1.
          1    1    1    2  502    0  0.97383839855E+02  0.13774049031E+03  0.71261742317E+03  0.73231116797E+03  0.00000000000E+00 0. -1.
         22    1    3    3    0    0 -0.14028709470E+03 -0.20732859134E+03  0.13783290394E+03  0.28576830324E+03  0.00000000000E+00 0.  1.
         22    1    3    3    0    0 -0.24630120491E+02  0.27165260123E+01 -0.16238779091E+02  0.29626344616E+02  0.00000000000E+00 0.  1.
</event>
<event>
 7    1  0.5854318E-006  0.1133441E+03  0.7818608E-02  0.1338355E+00
          2   -1    0    0  502    0  0.00000000000E+00  0.00000000000E+00  0.44286932538E+04  0.44286932538E+04  0.00000000000E+00 0. -1.
          1   -1    0    0  501    0 -0.00000000000E+00 -0.00000000000E+00 -0.21560678493E+02  0.21560678493E+02  0.00000000000E+00 0. -1.
         25    2    1    2    0    0  0.82176779355E+02 -0.47616767724E+01  0.10124885879E+04  0.10234909951E+04  0.12499991872E+03 0.  0.
          2    1    1    2  501    0 -0.11164678352E+03  0.47668206100E+02  0.21665616578E+03  0.24834886010E+03  0.00000000000E+00 0. -1.
          1    1    1    2  502    0  0.29470004161E+02 -0.42906529327E+02  0.31779878216E+04  0.31784140771E+04  0.00000000000E+00 0. -1.
         22    1    3    3    0    0  0.56777590765E+02 -0.10782383120E+01  0.98198990793E+03  0.98363053871E+03  0.00000000000E+00 0. -1.
         22    1    3    3    0    0  0.25399188591E+02 -0.36834384604E+01  0.30498680013E+02  0.39860456376E+02  0.00000000000E+00 0. -1.
</event>
<event>
 7    1  0.5854318E-006  0.9337442E+02  0.7818608E-02  0.1301338E+00
          2   -1    0    0  502    0  0.00000000000E+00  0.00000000000E+00  0.62893414692E+02  0.62893414692E+02  0.00000000000E+00 0. -1.
          1   -1    0    0  501    0 -0.00000000000E+00 -0.00000000000E+00 -0.21979297618E+04  0.21979297618E+04  0.00000000000E+00 0. -1.
         25    2    1    2    0    0  0.94329389119E+02  0.74111760278E+02 -0.11444997484E+04  0.11575384810E+04  0.12500029687E+03 0.  0.
          2    1    1    2  501    0 -0.92587640559E+02  0.13833196109E+02 -0.10090600167E+04  0.10133932829E+04  0.00000000000E+00 0. -1.
          1    1    1    2  502    0 -0.17417485598E+01 -0.87944956387E+02  0.18523418021E+02  0.89891412589E+02  0.00000000000E+00 0. -1.
         22    1    3    3    0    0  0.34547785100E+02 -0.14805114920E+02 -0.67167544467E+03  0.67272627706E+03  0.00000000000E+00 0. -1.
         22    1    3    3    0    0  0.59781604019E+02  0.88916875198E+02 -0.47282430377E+03  0.48481220396E+03  0.00000000000E+00 0. -1.
</event>
<event>
 7    1  0.5854318E-006  0.5668684E+02  0.7818608E-02  0.1445017E+00
          2   -1    0    0  502    0  0.00000000000E+00  0.00000000000E+00  0.32228985268E+04  0.32228985268E+04  0.00000000000E+00 0. -1.
          1   -1    0    0  501    0 -0.00000000000E+00 -0.00000000000E+00 -0.23479569161E+02  0.23479569161E+02  0.00000000000E+00 0. -1.
         25    2    1    2    0    0  0.60985318027E+02  0.34769071781E+02  0.57695488812E+03  0.59449867826E+03  0.12499455255E+03 0.  0.
          2    1    1    2  501    0 -0.20646559162E+02 -0.52856463859E+02  0.40929851169E+02  0.69966698462E+02  0.00000000000E+00 0. -1.
          1    1    1    2  502    0 -0.40338758865E+02  0.18087392078E+02  0.25815342183E+04  0.25819127192E+04  0.00000000000E+00 0. -1.
         22    1    3    3    0    0  0.31666307592E+02  0.85714972619E+01  0.53851033221E+03  0.53950866860E+03  0.00000000000E+00 0. -1.
         22    1    3    3    0    0  0.29319010435E+02  0.26197574519E+02  0.38444555907E+02  0.54990009660E+02  0.00000000000E+00 0. -1.
</event>
<event>
 7    1  0.5854318E-006  0.1126123E+03  0.7818608E-02  0.1316894E+00
          2   -1    0    0  502    0  0.00000000000E+00  0.00000000000E+00  0.26180868377E+03  0.26180868377E+03  0.00000000000E+00 0. -1.
          1   -1    0    0  501    0 -0.00000000000E+00 -0.00000000000E+00 -0.65000716768E+03  0.65000716768E+03  0.00000000000E+00 0. -1.
         25    2    1    2    0    0  0.65347771001E+02  0.12269907673E+03 -0.38842924212E+03  0.43107781395E+03  0.12500164378E+03 0.  0.
          2    1    1    2  501    0 -0.52731925946E+01 -0.10268351204E+03 -0.22467725439E+03  0.24708617696E+03  0.00000000000E+00 0. -1.
          1    1    1    2  502    0 -0.60074578406E+02 -0.20015564690E+02  0.22490801259E+03  0.23365186053E+03  0.00000000000E+00 0. -1.
         22    1    3    3    0    0  0.54686880725E+02 -0.45955118994E+01 -0.16275760090E+03  0.17176091029E+03  0.00000000000E+00 0. -1.
         22    1    3    3    0    0  0.10660890276E+02  0.12729458863E+03 -0.22567164122E+03  0.25931690366E+03  0.00000000000E+00 0. -1.
</event>
<event>
 7    1  0.5854318E-006  0.1022595E+03  0.7818608E-02  0.1365448E+00
          2   -1    0    0  502    0  0.00000000000E+00  0.00000000000E+00  0.80406001526E+03  0.80406001526E+03  0.00000000000E+00 0. -1.
          1   -1    0    0  501    0 -0.00000000000E+00 -0.00000000000E+00 -0.35661080658E+03  0.35661080658E+03  0.00000000000E+00 0. -1.
         25    2    1    2    0    0 -0.79987027104E+02  0.91747540745E+02 -0.17256499564E+03  0.24539718390E+03  0.12500225761E+03 0.  0.
          2    1    1    2  501    0 -0.10542422090E+02 -0.44588032000E+02 -0.14058124240E+03  0.14785912544E+03  0.00000000000E+00 0. -1.
          1    1    1    2  502    0  0.90529449194E+02 -0.47159508746E+02  0.76059544672E+03  0.76741451250E+03  0.00000000000E+00 0. -1.
         22    1    3    3    0    0 -0.42152365088E+02 -0.22019096410E+02 -0.20587977994E+02  0.51822073744E+02  0.00000000000E+00 0.  1.
         22    1    3    3    0    0 -0.37834662016E+02  0.11376663716E+03 -0.15197701764E+03  0.19357511015E+03  0.00000000000E+00 0.  1.
</event>
<event>
 7    1  0.5854318E-006  0.9289858E+02  0.7818608E-02  0.1451975E+00
          2   -1    0    0  502    0  0.00000000000E+00  0.00000000000E+00  0.24953251385E+03  0.24953251385E+03  0.00000000000E+00 0. -1.
          1   -1    0    0  501    0 -0.00000000000E+00 -0.00000000000E+00 -0.74458180869E+03  0.74458180869E+03  0.00000000000E+00 0. -1.
         25    2    1    2    0    0 -0.81211438281E+02 -0.42095167232E+01 -0.12096675082E+03  0.19201155962E+03  0.12498986553E+03 0.  0.
          2    1    1    2  501    0 -0.81842783771E+01 -0.24283082895E+02 -0.57751097722E+03  0.57807921545E+03  0.00000000000E+00 0. -1.
          1    1    1    2  502    0  0.89395716658E+02  0.28492599618E+02  0.20342843319E+03  0.22402354747E+03  0.00000000000E+00 0. -1.
         22    1    3    3    0    0 -0.49846634680E+02  0.19265617687E+01  0.15197068321E+02  0.52147382626E+02  0.00000000000E+00 0. -1.
         22    1    3    3    0    0 -0.31364803600E+02 -0.61360784920E+01 -0.13616381914E+03  0.13986417699E+03  0.00000000000E+00 0. -1.
</event>
<event>
 7    1  0.5854318E-006  0.6346726E+02  0.7818608E-02  0.1395265E+00
          2   -1    0    0  502    0  0.00000000000E+00  0.00000000000E+00  0.28847580789E+03  0.28847580789E+03  0.00000000000E+00 0. -1.
          1   -1    0    0  501    0 -0.00000000000E+00 -0.00000000000E+00 -0.17888335246E+04  0.17888335246E+04  0.00000000000E+00 0. -1.
         25    2    1    2    0    0 -0.84466473801E+01 -0.58475977067E+02 -0.21922683542E+03  0.25918375459E+03  0.12500011011E+03 0.  0.
          2    1    1    2  501    0  0.57888017510E+02  0.28357628677E+02 -0.15458280285E+04  0.15471714421E+04  0.00000000000E+00 0. -1.
          1    1    1    2  502    0 -0.49441370130E+02  0.30118348390E+02  0.26469714717E+03  0.27095413581E+03  0.00000000000E+00 0. -1.
         22    1    3    3    0    0 -0.13464717946E+01 -0.95431938923E+02 -0.12178483105E+03  0.15472754450E+03  0.00000000000E+00 0.  1.
         22    1    3    3    0    0 -0.71001755855E+01  0.36955961856E+02 -0.97442004371E+02  0.10445621009E+03  0.00000000000E+00 0.  1.
</event>
<event>
 7    1  0.5854318E-006  0.5700487E+02  0.7818608E-02  0.1489370E+00
          2   -1    0    0  502    0  0.00000000000E+00  0.00000000000E+00  0.11133082569E+03  0.11133082569E+03  0.00000000000E+00 0. -1.
          1   -1    0    0  501    0 -0.00000000000E+00 -0.00000000000E+00 -0.19667245445E+03  0.19667245445E+03  0.00000000000E+00 0. -1.
         25    2    1    2    0    0  0.33190912516E+02 -0.73656895790E+02  0.15268571362E+02  0.14961788006E+03  0.12500162315E+03 0.  0.
          2    1    1    2  501    0 -0.15427488620E+02  0.27983316495E+02 -0.10445036262E+03  0.10922889571E+03  0.00000000000E+00 0. -1.
          1    1    1    2  502    0 -0.17763423896E+02  0.45673579295E+02  0.38401624908E+01  0.49156504372E+02  0.00000000000E+00 0. -1.
         22    1    3    3    0    0 -0.31983969783E+02 -0.76219188502E+02  0.16919116183E+02  0.84371769636E+02  0.00000000000E+00 0.  1.
         22    1    3    3    0    0  0.65174882299E+02  0.25622927124E+01 -0.16505448210E+01  0.65246110419E+02  0.00000000000E+00 0.  1.
</event>
<event>
 7    1  0.5854318E-006  0.1567059E+03  0.7818608E-02  0.1355656E+00
          2   -1    0    0  502    0  0.00000000000E+00  0.00000000000E+00  0.82118986118E+03  0.82118986118E+03  0.00000000000E+00 0. -1.
          1   -1    0    0  501    0 -0.00000000000E+00 -0.00000000000E+00 -0.73030304391E+03  0.73030304391E+03  0.00000000000E+00 0. -1.
         25    2    1    2    0    0  0.59318117017E+02  0.11159240181E+03  0.24059654316E+03  0.29913289330E+03  0.12498915204E+03 0.  0.
          2    1    1    2  501    0 -0.65526434637E+02 -0.14345365676E+03 -0.69167312502E+03  0.70942538518E+03  0.00000000000E+00 0. -1.
          1    1    1    2  502    0  0.62083176196E+01  0.31861254955E+02  0.54196339913E+03  0.54293462661E+03  0.00000000000E+00 0. -1.
         22    1    3    3    0    0  0.53085376035E+02  0.13689200116E+03  0.17429513040E+03  0.22789530405E+03  0.00000000000E+00 0. -1.
         22    1    3    3    0    0  0.62327409821E+01 -0.25299599350E+02  0.66301412765E+02  0.71237589249E+02  0.00000000000E+00 0. -1.
</event>
<event>
 7    1  0.5854318E-006  0.7856757E+02  0.7818608E-02  0.1500504E+00
          2   -1    0    0  502    0  0.00000000000E+00  0.00000000000E+00  0.94155070620E+02  0.94155070620E+02  0.00000000000E+00 0. -1.
          1   -1    0    0  501    0 -0.00000000000E+00 -0.00000000000E+00 -0.93567021298E+03  0.93567021298E+03  0.00000000000E+00 0. -1.
         25    2    1    2    0    0  0.65669009553E+02  0.72525298579E+02 -0.27312261296E+03  0.31590004914E+03  0.12499816635E+03 0.  0.
          2    1    1    2  501    0 -0.99805831643E+01 -0.19004024718E+02 -0.62042468271E+03  0.62079590198E+03  0.00000000000E+00 0. -1.
          1    1    1    2  502    0 -0.55688426388E+02 -0.53521273861E+02  0.52032153312E+02  0.93129332477E+02  0.00000000000E+00 0. -1.
         22    1    3    3    0    0  0.51909597588E+02 -0.21466957961E+02 -0.15148143217E+03  0.16156132240E+03  0.00000000000E+00 0. -1.
         22    1    3    3    0    0  0.13759411965E+02  0.93992256540E+02 -0.12164118079E+03  0.15433872674E+03  0.00000000000E+00 0. -1.
</event>
<event>
 7    1  0.5854318E-006  0.6631337E+02  0.7818608E-02  0.1517085E+00
          2   -1    0    0  502    0  0.00000000000E+00  0.00000000000E+00  0.15523470598E+04  0.15523470598E+04  0.00000000000E+00 0. -1.
          1   -1    0    0  501    0 -0.00000000000E+00 -0.00000000000E+00 -0.26392457919E+02  0.26392457919E+02  0.00000000000E+00 0. -1.
         25    2    1    2    0    0  0.52464548864E+02  0.12795649000E+02  0.34396499184E+03  0.36993659798E+03  0.12499965355E+03 0.  0.
          2    1    1    2  501    0  0.51782555525E+01  0.22126554073E+02 -0.20776042421E+01  0.22819184146E+02  0.00000000000E+00 0. -1.
          1    1    1    2  502    0 -0.57642804417E+02 -0.34922203073E+02  0.11840672142E+04  0.11859837356E+04  0.00000000000E+00 0. -1.
         22    1    3    3    0    0  0.60680004661E+01 -0.46491576361E+02  0.21968871970E+03  0.22463619670E+03  0.00000000000E+00 0.  1.
         22    1    3    3    0    0  0.46396548398E+02  0.59287225361E+02  0.12427627214E+03  0.14530040128E+03  0.00000000000E+00 0.  1.
</event>
<event>
 7    1  0.5854318E-006  0.2698577E+02  0.7818608E-02  0.1677017E+00
          2   -1    0    0  502    0  0.00000000000E+00  0.00000000000E+00  0.66306099306E+03  0.66306099306E+03  0.00000000000E+00 0. -1.
          1   -1    0    0  501    0 -0.00000000000E+00 -0.00000000000E+00 -0.61755181384E+02  0.61755181384E+02  0.00000000000E+00 0. -1.
         25    2    1    2    0    0  0.39741957758E+01 -0.57585357449E+01  0.31471838767E+03  0.33871911001E+03  0.12503606274E+03 0.  0.
          2    1    1    2  501    0  0.64248126962E+01 -0.20205711976E+02 -0.46883662880E+02  0.51455095566E+02  0.00000000000E+00 0. -1.
          1    1    1    2  502    0 -0.10399008472E+02  0.25964247721E+02  0.33347108688E+03  0.33464196886E+03  0.00000000000E+00 0. -1.
         22    1    3    3    0    0 -0.51024006817E+02 -0.33343665548E+02  0.19195125558E+03  0.20139645931E+03  0.00000000000E+00 0. -1.
         22    1    3    3    0    0  0.54998202593E+02  0.27585129803E+02  0.12276713209E+03  0.13732265070E+03  0.00000000000E+00 0. -1.
</event>
<event>
 7    1  0.5854318E-006  0.1260945E+03  0.7818608E-02  0.1403484E+00
          2   -1    0    0  502    0  0.00000000000E+00  0.00000000000E+00  0.82849371278E+03  0.82849371278E+03  0.00000000000E+00 0. -1.
          1   -1    0    0  501    0 -0.00000000000E+00 -0.00000000000E+00 -0.68637599400E+03  0.68637599400E+03  0.00000000000E+00 0. -1.
         25    2    1    2    0    0  0.12077743973E+03 -0.63683216886E+02 -0.47123202635E+02  0.19101914591E+03  0.12499990327E+03 0.  0.
          2    1    1    2  501    0 -0.97767187626E+02  0.78376841110E+02 -0.56013392859E+03  0.57397854504E+03  0.00000000000E+00 0. -1.
          1    1    1    2  502    0 -0.23010252102E+02 -0.14693624224E+02  0.74937485001E+03  0.74987201583E+03  0.00000000000E+00 0. -1.
         22    1    3    3    0    0  0.14358193101E+03 -0.71354939232E+02 -0.35143051012E+02  0.16414119623E+03  0.00000000000E+00 0. -1.
         22    1    3    3    0    0 -0.22804491279E+02  0.76717223458E+01 -0.11980151623E+02  0.26877949683E+02  0.00000000000E+00 0. -1.
</event>
<event>
 7    1  0.5854318E-006  0.5059184E+02  0.7818608E-02  0.1512701E+00
          2   -1    0    0  502    0  0.00000000000E+00  0.00000000000E+00  0.55451445671E+03  0.55451445671E+03  0.00000000000E+00 0. -1.
          1   -1    0    0  501    0 -0.00000000000E+00 -0.00000000000E+00 -0.19526250534E+04  0.19526250534E+04  0.00000000000E+00 0. -1.
         25    2    1    2    0    0  0.20619837402E+02 -0.20107952284E+01  0.20815318925E+02  0.12840419407E+03  0.12500055424E+03 0.  0.
          2    1    1    2  501    0  0.30674387441E+02 -0.50008331860E+00 -0.18973323371E+04  0.18975803450E+04  0.00000000000E+00 0. -1.
          1    1    1    2  502    0 -0.51294224843E+02  0.25108785470E+01  0.47840642152E+03  0.48115497105E+03  0.00000000000E+00 0. -1.
         22    1    3    3    0    0  0.73450806064E+02 -0.24375810819E+01  0.17013528602E+02  0.75434891585E+02  0.00000000000E+00 0.  1.
         22    1    3    3    0    0 -0.52830968662E+02  0.42678585346E+00  0.38017903229E+01  0.52969302484E+02  0.00000000000E+00 0.  1.
</event>
<event>
 7    1  0.5854318E-006  0.1315121E+03  0.7818608E-02  0.1299897E+00
          2   -1    0    0  502    0  0.00000000000E+00  0.00000000000E+00  0.22535969819E+03  0.22535969819E+03  0.00000000000E+00 0. -1.
          1   -1    0    0  501    0 -0.00000000000E+00 -0.00000000000E+00 -0.18691687235E+04  0.18691687235E+04  0.00000000000E+00 0. -1.
         25    2    1    2    0    0  0.43859864626E+02  0.89856600730E+02  0.10618557868E+02  0.16042151580E+03  0.12499765014E+03 0.  0.
          2    1    1    2  501    0 -0.22434610328E+02  0.59178201896E+02 -0.17530007363E+04  0.17541427971E+04  0.00000000000E+00 0. -1.
          1    1    1    2  502    0 -0.21425254297E+02 -0.14903480263E+03  0.98573153125E+02  0.17996410873E+03  0.00000000000E+00 0. -1.
         22    1    3    3    0    0  0.17533319340E+01  0.10487578444E+03 -0.19269500186E+02  0.10664575928E+03  0.00000000000E+00 0. -1.
         22    1    3    3    0    0  0.42106532692E+02 -0.15019183714E+02  0.29888058053E+02  0.53775756517E+02  0.00000000000E+00 0. -1.
</event>
<event>
 7    1  0.5854318E-006  0.5762399E+02  0.7818608E-02  0.1413351E+00
          2   -1    0    0  502    0  0.00000000000E+00  0.00000000000E+00  0.85467277466E+03  0.85467277466E+03  0.00000000000E+00 0. -1.
          1   -1    0    0  501    0 -0.00000000000E+00 -0.00000000000E+00 -0.17241202984E+04  0.17241202984E+04  0.00000000000E+00 0. -1.
         25    2    1    2    0    0  0.49201970452E+01  0.35095360833E+02 -0.27203011339E+03  0.30146208709E+03  0.12499245846E+03 0.  0.
          2    1    1    2  501    0 -0.54956098439E+02 -0.62048885033E+01 -0.14358476319E+04  0.14369123479E+04  0.00000000000E+00 0. -1.
          1    1    1    2  502    0  0.50035901393E+02 -0.28890472330E+02  0.83843022156E+03  0.84041863809E+03  0.00000000000E+00 0. -1.
         22    1    3    3    0    0  0.27144437823E+02  0.38614810361E+02 -0.27477001370E+03  0.27879469958E+03  0.00000000000E+00 0. -1.
         22    1    3    3    0    0 -0.22224240778E+02 -0.35194495281E+01  0.27399003059E+01  0.22667387516E+02  0.00000000000E+00 0. -1.
</event>
<event>
 7    1  0.5854318E-006  0.1118526E+03  0.7818608E-02  0.1364871E+00
          2   -1    0    0  502    0  0.00000000000E+00  0.00000000000E+00  0.23836816981E+03  0.23836816981E+03  0.00000000000E+00 0. -1.
          1   -1    0    0  501    0 -0.00000000000E+00 -0.00000000000E+00 -0.39059271607E+03  0.39059271607E+03  0.00000000000E+00 0. -1.
         25    2    1    2    0    0 -0.41100963394E+02  0.65380567904E+02  0.15916630644E+02  0.14779068670E+03  0.12499936036E+03 0.  0.
          2    1    1    2  501    0  0.45284456048E+02 -0.10726220196E+03 -0.31108458617E+03  0.33215881997E+03  0.00000000000E+00 0. -1.
          1    1    1    2  502    0 -0.41834926546E+01  0.41881634060E+02  0.14294340926E+03  0.14901137921E+03  0.00000000000E+00 0. -1.
         22    1    3    3    0    0 -0.21374548356E+02  0.61716279072E+02  0.66599732420E+02  0.93280731013E+02  0.00000000000E+00 0.  1.
         22    1    3    3    0    0 -0.19726415038E+02  0.36642888317E+01 -0.50683101776E+02  0.54509955683E+02  0.00000000000E+00 0.  1.
</event>
<event>
 7    1  0.5854318E-006  0.1423951E+03  0.7818608E-02  0.1385352E+00
          2   -1    0    0  502    0  0.00000000000E+00  0.00000000000E+00  0.23918873939E+04  0.23918873939E+04  0.00000000000E+00 0. -1.
          1   -1    0    0  501    0 -0.00000000000E+00 -0.00000000000E+00 -0.22758083222E+03  0.22758083222E+03  0.00000000000E+00 0. -1.
         25    2    1    2    0    0 -0.12877592663E+03 -0.63186045074E+01 -0.53149276355E+02  0.18728785564E+03  0.12501492411E+03 0.  0.
          2    1    1    2  501    0 -0.10189001028E+02 -0.26018026107E+02 -0.10331552445E+03  0.10702733771E+03  0.00000000000E+00 0. -1.
          1    1    1    2  502    0  0.13896492766E+03  0.32336630614E+02  0.23207713625E+04  0.23251530328E+04  0.00000000000E+00 0. -1.
         22    1    3    3    0    0 -0.11219623417E+03 -0.33166905099E+02 -0.83318291972E+02  0.14363139048E+03  0.00000000000E+00 0.  1.
         22    1    3    3    0    0 -0.16579692468E+02  0.26848300591E+02  0.30169015617E+02  0.43656465160E+02  0.00000000000E+00 0.  1.
</event>
<event>
 7    1  0.5854318E-006  0.1334801E+03  0.7818608E-02  0.1378139E+00
          2   -1    0    0  502    0  0.00000000000E+00  0.00000000000E+00  0.97465771482E+02  0.97465771482E+02  0.00000000000E+00 0. -1.
          1   -1    0    0  501    0 -0.00000000000E+00 -0.00000000000E+00 -0.92615393472E+03  0.92615393472E+03  0.00000000000E+00 0. -1.
         25    2    1    2    0    0  0.89335673331E+02  0.68048876390E+02 -0.17411000597E+03  0.24197266977E+03  0.12499986651E+03 0.  0.
          2    1    1    2  501    0 -0.12089276679E+03 -0.66232951297E+02 -0.70706509608E+03  0.72037692564E+03  0.00000000000E+00 0. -1.
          1    1    1    2  502    0  0.31557093462E+02 -0.18159250924E+01  0.52486938809E+02  0.61270110798E+02  0.00000000000E+00 0. -1.
         22    1    3    3    0    0 -0.14869300468E+02  0.47920985493E+02 -0.10196723993E+03  0.11364345544E+03  0.00000000000E+00 0. -1.
         22    1    3    3    0    0  0.10420497380E+03  0.20127890897E+02 -0.72142766046E+02  0.12832921432E+03  0.00000000000E+00 0. -1.
</event>
<event>
 7    1  0.5854318E-006  0.3228982E+03  0.7818608E-02  0.1147641E+00
          2   -1    0    0  502    0  0.00000000000E+00  0.00000000000E+00  0.43108352094E+04  0.43108352094E+04  0.00000000000E+00 0. -1.
          1   -1    0    0  501    0 -0.00000000000E+00 -0.00000000000E+00 -0.86804304380E+03  0.86804304380E+03  0.00000000000E+00 0. -1.
         25    2    1    2    0    0  0.12826446245E+03 -0.40878930657E+03 -0.12276792741E+03  0.46287316208E+03  0.12497652052E+03 0.  0.
          2    1    1    2  501    0 -0.89235579425E+02  0.90371026446E+02 -0.56191146539E+03  0.57608541554E+03  0.00000000000E+00 0. -1.
          1    1    1    2  502    0 -0.39028883025E+02  0.31841828012E+03  0.41274715584E+04  0.41399196756E+04  0.00000000000E+00 0. -1.
         22    1    3    3    0    0  0.14030561037E+03 -0.35162873539E+03 -0.13723502828E+03  0.40269328879E+03  0.00000000000E+00 0. -1.
         22    1    3    3    0    0 -0.12041147922E+02 -0.57160571179E+02  0.14467100871E+02  0.60179873284E+02  0.00000000000E+00 0. -1.
</event>
<event>
 7    1  0.5854318E-006  0.5633178E+02  0.7818608E-02  0.1483645E+00
          2   -1    0    0  502    0  0.00000000000E+00  0.00000000000E+00  0.13113197041E+04  0.13113197041E+04  0.00000000000E+00 0. -1.
          1   -1    0    0  501    0 -0.00000000000E+00 -0.00000000000E+00 -0.32592545391E+03  0.32592545391E+03  0.00000000000E+00 0. -1.
         25    2    1    2    0    0  0.42042421979E+01  0.49348637153E+02  0.17378106065E+03  0.21972194700E+03  0.12499965325E+03 0.  0.
          2    1    1    2  501    0  0.29437329982E+02 -0.48284458641E+02 -0.30005911681E+03  0.30534147920E+03  0.00000000000E+00 0. -1.
          1    1    1    2  502    0 -0.33641572180E+02 -0.10641785118E+01  0.11116723063E+04  0.11121817318E+04  0.00000000000E+00 0. -1.
         22    1    3    3    0    0  0.43790037689E+02 -0.17715621975E+02  0.29292281764E+02  0.55582806997E+02  0.00000000000E+00 0. -1.
         22    1    3    3    0    0 -0.39585795491E+02  0.67064259128E+02  0.14448877889E+03  0.16413914000E+03  0.00000000000E+00 0. -1.
</event>
<event>
 7    1  0.5854318E-006  0.1006453E+03  0.7818608E-02  0.1355386E+00
          2   -1    0    0  502    0  0.00000000000E+00  0.00000000000E+00  0.62589072884E+03  0.62589072884E+03  0.00000000000E+00 0. -1.
          1   -1    0    0  501    0 -0.00000000000E+00 -0.00000000000E+00 -0.14728698240E+03  0.14728698240E+03  0.00000000000E+00 0. -1.
         25    2    1    2    0    0 -0.60424776640E+02  0.77472657298E+02  0.93084767390E+02  0.18423702523E+03  0.12500136514E+03 0.  0.
          2    1    1    2  501    0 -0.33809335062E+02 -0.37723582706E+02 -0.89605361817E+02  0.10293328274E+03  0.00000000000E+00 0. -1.
          1    1    1    2  502    0  0.94234111702E+02 -0.39749074592E+02  0.47512434087E+03  0.48600740326E+03  0.00000000000E+00 0. -1.
         22    1    3    3    0    0 -0.67013584502E+02  0.97249801652E+02  0.36004354210E+02  0.12346925913E+03  0.00000000000E+00 0.  1.
         22    1    3    3    0    0  0.65888078622E+01 -0.19777144353E+02  0.57080413179E+02  0.60767766098E+02  0.00000000000E+00 0.  1.
</event>
<event>
 7    1  0.5854318E-006  0.3847422E+02  0.7818608E-02  0.1564851E+00
          2   -1    0    0  502    0  0.00000000000E+00  0.00000000000E+00  0.15119441116E+04  0.15119441116E+04  0.00000000000E+00 0. -1.
          1   -1    0    0  501    0 -0.00000000000E+00 -0.00000000000E+00 -0.63193591227E+02  0.63193591227E+02  0.00000000000E+00 0. -1.
         25    2    1    2    0    0 -0.21282253061E+02 -0.37982642877E+01  0.91771470646E+02  0.15657083288E+03  0.12500024711E+03 0.  0.
          2    1    1    2  501    0  0.25171237977E+02  0.32243930528E+02 -0.16993106040E+02  0.44294784457E+02  0.00000000000E+00 0. -1.
          1    1    1    2  502    0 -0.38889849161E+01 -0.28445666241E+02  0.13739721557E+04  0.13742720854E+04  0.00000000000E+00 0. -1.
         22    1    3    3    0    0 -0.51318447924E+02  0.43983077928E+02  0.33447682014E+02  0.75411150856E+02  0.00000000000E+00 0. -1.
         22    1    3    3    0    0  0.30036194862E+02 -0.47781342216E+02  0.58323788632E+02  0.81159682024E+02  0.00000000000E+00 0. -1.
</event>
<event>
 7    1  0.5854318E-006  0.4241526E+02  0.7818608E-02  0.1586223E+00
          2   -1    0    0  502    0  0.00000000000E+00  0.00000000000E+00  0.52473015575E+03  0.52473015575E+03  0.00000000000E+00 0. -1.
          1   -1    0    0  501    0 -0.00000000000E+00 -0.00000000000E+00 -0.32071588071E+03  0.32071588071E+03  0.00000000000E+00 0. -1.
         25    2    1    2    0    0 -0.47786836991E+02 -0.12756503424E+02 -0.53404713918E+02  0.14464676147E+03  0.12499724783E+03 0.  0.
          2    1    1    2  501    0  0.16445089689E+02 -0.15800393250E+02 -0.22016188744E+03  0.22133989718E+03  0.00000000000E+00 0. -1.
          1    1    1    2  502    0  0.31341747302E+02  0.28556896674E+02  0.47758087640E+03  0.47945937782E+03  0.00000000000E+00 0. -1.
         22    1    3    3    0    0 -0.12348472796E+02 -0.23482672895E+02  0.37817799087E+02  0.46196392007E+02  0.00000000000E+00 0. -1.
         22    1    3    3    0    0 -0.35438364195E+02  0.10726169470E+02 -0.91222513005E+02  0.98450369462E+02  0.00000000000E+00 0. -1.
</event>
<event>
 7    1  0.5854318E-006  0.8506540E+02  0.7818608E-02  0.1454347E+00
          2   -1    0    0  502    0  0.00000000000E+00  0.00000000000E+00  0.15053490807E+04  0.15053490807E+04  0.00000000000E+00 0. -1.
          1   -1    0    0  501    0 -0.00000000000E+00 -0.00000000000E+00 -0.53532906653E+03  0.53532906653E+03  0.00000000000E+00 0. -1.
         25    2    1    2    0    0 -0.66142202219E+02  0.88905020886E+02  0.36303353882E+03  0.39962240531E+03  0.12500329140E+03 0.  0.
          2    1    1    2  501    0  0.56753890800E+02 -0.63054944267E+02 -0.51338483945E+03  0.52034692609E+03  0.00000000000E+00 0. -1.
          1    1    1    2  502    0  0.93883114185E+01 -0.25850076619E+02  0.11203713148E+04  0.11207088158E+04  0.00000000000E+00 0. -1.
         22    1    3    3    0    0 -0.88559801067E+02  0.79487090642E+02  0.18521530606E+03  0.22014937098E+03  0.00000000000E+00 0. -1.
         22    1    3    3    0    0  0.22417598849E+02  0.94179302436E+01  0.17781823277E+03  0.17947303433E+03  0.00000000000E+00 0. -1.
</event>
<event>
 7    1  0.5854318E-006  0.1138240E+03  0.7818608E-02  0.1268463E+00
          2   -1    0    0  502    0  0.00000000000E+00  0.00000000000E+00  0.14588500483E+03  0.14588500483E+03  0.00000000000E+00 0. -1.
          1   -1    0    0  501    0 -0.00000000000E+00 -0.00000000000E+00 -0.11731711017E+04  0.11731711017E+04  0.00000000000E+00 0. -1.
         25    2    1    2    0    0 -0.37257692273E+02 -0.53940268366E+02 -0.49175485174E+03  0.51161022922E+03  0.12499801698E+03 0.  0.
          2    1    1    2  501    0  0.97399995881E+02  0.13185413463E+03 -0.64191412243E+03  0.66251491500E+03  0.00000000000E+00 0. -1.
          1    1    1    2  502    0 -0.60142303609E+02 -0.77913866265E+02  0.10638287733E+03  0.14493096228E+03  0.00000000000E+00 0. -1.
         22    1    3    3    0    0  0.11860622230E+02 -0.74115007096E+02 -0.17472947921E+03  0.19016860819E+03  0.00000000000E+00 0. -1.
         22    1    3    3    0    0 -0.49118314502E+02  0.20174738730E+02 -0.31702537253E+03  0.32144162103E+03  0.00000000000E+00 0. -1.
</event>
<event>
 7    1  0.5854318E-006  0.9067928E+02  0.7818608E-02  0.1343856E+00
          2   -1    0    0  502    0  0.00000000000E+00  0.00000000000E+00  0.59511118989E+03  0.59511118989E+03  0.00000000000E+00 0. -1.
          1   -1    0    0  501    0 -0.00000000000E+00 -0.00000000000E+00 -0.27263257610E+03  0.27263257610E+03  0.00000000000E+00 0. -1.
         25    2    1    2    0    0  0.11758148488E+03  0.84563120512E+02 -0.39493103126E+02  0.19535070462E+03  0.12500346261E+03 0.  0.
          2    1    1    2  501    0 -0.68883833349E+02 -0.46125524782E+02 -0.14210192277E+03  0.16451596576E+03  0.00000000000E+00 0. -1.
          1    1    1    2  502    0 -0.48697651527E+02 -0.38437595730E+02  0.50407363968E+03  0.50787709562E+03  0.00000000000E+00 0. -1.
         22    1    3    3    0    0  0.11861844737E+03  0.10120984907E+03 -0.61601962770E+02  0.16765611060E+03  0.00000000000E+00 0. -1.
         22    1    3    3    0    0 -0.10369624903E+01 -0.16646728560E+02  0.22108859644E+02  0.27694594016E+02  0.00000000000E+00 0. -1.
</event>
<event>
 7    1  0.5854318E-006  0.4655694E+02  0.7818608E-02  0.1479537E+00
          2   -1    0    0  502    0  0.00000000000E+00  0.00000000000E+00  0.62516235156E+02  0.62516235156E+02  0.00000000000E+00 0. -1.
          1   -1    0    0  501    0 -0.00000000000E+00 -0.00000000000E+00 -0.14551016483E+04  0.14551016483E+04  0.00000000000E+00 0. -1.
         25    2    1    2    0    0  0.34076888133E+02  0.36138492129E+00 -0.35219088272E+03  0.37526578476E+03  0.12499850574E+03 0.  0.
          2    1    1    2  501    0 -0.10236437752E+02  0.40652199534E+02 -0.10798414879E+04  0.10806549056E+04  0.00000000000E+00 0. -1.
          1    1    1    2  502    0 -0.23840450382E+02 -0.41013584456E+02  0.39446957470E+02  0.61697193112E+02  0.00000000000E+00 0. -1.
         22    1    3    3    0    0  0.55254993229E+02 -0.26561406197E+02 -0.32712401754E+03  0.33281938859E+03  0.00000000000E+00 0. -1.
         22    1    3    3    0    0 -0.21178105096E+02  0.26922791119E+02 -0.25066865180E+02  0.42446396161E+02  0.00000000000E+00 0. -1.
</event>
<event>
 7    1  0.5854318E-006  0.1232000E+03  0.7818608E-02  0.1305999E+00
          2   -1    0    0  502    0  0.00000000000E+00  0.00000000000E+00  0.46552141263E+03  0.46552141263E+03  0.00000000000E+00 0. -1.
          1   -1    0    0  501    0 -0.00000000000E+00 -0.00000000000E+00 -0.18553227489E+04  0.18553227489E+04  0.00000000000E+00 0. -1.
         25    2    1    2    0    0  0.35252478112E+02  0.87832017040E+02 -0.56096228040E+02  0.16652359814E+03  0.12500448594E+03 0.  0.
          2    1    1    2  501    0 -0.98221527875E+02 -0.77083595743E+02 -0.17392749745E+04  0.17437507809E+04  0.00000000000E+00 0. -1.
          1    1    1    2  502    0  0.62969049763E+02 -0.10748421297E+02  0.40556986628E+03  0.41056978240E+03  0.00000000000E+00 0. -1.
         22    1    3    3    0    0  0.57718908937E+02  0.10538979804E+03 -0.65049001190E+02  0.13663767612E+03  0.00000000000E+00 0.  1.
         22    1    3    3    0    0 -0.22466430825E+02 -0.17557781000E+02  0.89527731500E+01  0.29885922016E+02  0.00000000000E+00 0.  1.
</event>
<event>
 7    1  0.5854318E-006  0.2209385E+03  0.7818608E-02  0.1217085E+00
          2   -1    0    0  502    0  0.00000000000E+00  0.00000000000E+00  0.17421548820E+04  0.17421548820E+04  0.00000000000E+00 0. -1.
          1   -1    0    0  501    0 -0.00000000000E+00 -0.00000000000E+00 -0.10115597446E+04  0.10115597446E+04  0.00000000000E+00 0. -1.
         25    2    1    2    0    0 -0.48765790748E+02  0.14512431832E+03 -0.24715816107E+03  0.31646667373E+03  0.12499931555E+03 0.  0.
          2    1    1    2  501    0  0.35892691964E+02  0.77331737681E+02 -0.71995169120E+03  0.72498201402E+03  0.00000000000E+00 0. -1.
          1    1    1    2  502    0  0.12873098785E+02 -0.22245605600E+03  0.16977049897E+04  0.17122659389E+04  0.00000000000E+00 0. -1.
         22    1    3    3    0    0 -0.95164874226E+01  0.11376271567E+03 -0.23993629235E+03  0.26571026212E+03  0.00000000000E+00 0. -1.
         22    1    3    3    0    0 -0.39249303326E+02  0.31361602645E+02 -0.72218687185E+01  0.50756411613E+02  0.00000000000E+00 0. -1.
</event>
<event>
 7    1  0.5854318E-006  0.3305870E+03  0.7818608E-02  0.1260791E+00
          2   -1    0    0  502    0  0.00000000000E+00  0.00000000000E+00  0.48464555450E+03  0.48464555450E+03  0.00000000000E+00 0. -1.
          1   -1    0    0  501    0 -0.00000000000E+00 -0.00000000000E+00 -0.67272743059E+03  0.67272743059E+03  0.00000000000E+00 0. -1.
         25    2    1    2    0    0 -0.10205047684E+03  0.33416307334E+03 -0.14432135312E+03  0.39816913440E+03  0.12502298673E+03 0.  0.
          2    1    1    2  501    0  0.72223162049E+02 -0.31308727252E+03 -0.33587578609E+03  0.46481433824E+03  0.00000000000E+00 0. -1.
          1    1    1    2  502    0  0.29827314787E+02 -0.21075800822E+02  0.29211526313E+03  0.29438951245E+03  0.00000000000E+00 0. -1.
         22    1    3    3    0    0 -0.11305186141E+03  0.16516780342E+03 -0.96454452983E+02  0.22218143071E+03  0.00000000000E+00 0.  1.
         22    1    3    3    0    0  0.11001384569E+02  0.16899526992E+03 -0.47866900141E+02  0.17598770368E+03  0.00000000000E+00 0.  1.
</event>
<event>
 7    1  0.5854318E-006  0.1017338E+03  0.7818608E-02  0.1424732E+00
          2   -1    0    0  502    0  0.00000000000E+00  0.00000000000E+00  0.72516789203E+03  0.72516789203E+03  0.00000000000E+00 0. -1.
          1   -1    0    0  501    0 -0.00000000000E+00 -0.00000000000E+00 -0.25014069653E+03  0.25014069653E+03  0.00000000000E+00 0. -1.
         25    2    1    2    0    0 -0.79133953344E+02  0.76243009253E+02 -0.97274207781E+02  0.19277783160E+03  0.12500336726E+03 0.  0.
          2    1    1    2  501    0 -0.97464695894E+01 -0.26991404654E+02 -0.99260056639E+02  0.10332515879E+03  0.00000000000E+00 0. -1.
          1    1    1    2  502    0  0.88880422934E+02 -0.49251604598E+02  0.67156145992E+03  0.67920559818E+03  0.00000000000E+00 0. -1.
         22    1    3    3    0    0  0.10947955015E+01  0.79095481930E+02 -0.76070878142E+02  0.10974548893E+03  0.00000000000E+00 0. -1.
         22    1    3    3    0    0 -0.80228748846E+02 -0.28524726769E+01 -0.21203329639E+02  0.83032342672E+02  0.00000000000E+00 0. -1.
</event>
<event>
 7    1  0.5854318E-006  0.6712335E+02  0.7818608E-02  0.1512112E+00
          2   -1    0    0  502    0  0.00000000000E+00  0.00000000000E+00  0.75315960929E+03  0.75315960929E+03  0.00000000000E+00 0. -1.
          1   -1    0    0  501    0 -0.00000000000E+00 -0.00000000000E+00 -0.12716278322E+04  0.12716278322E+04  0.00000000000E+00 0. -1.
         25    2    1    2    0    0  0.51368245725E+02  0.66734974009E+02  0.32890884779E+03  0.36179918021E+03  0.12500145288E+03 0.  0.
          2    1    1    2  501    0 -0.39079566364E+01 -0.22883614532E+02 -0.12525147417E+04  0.12527298631E+04  0.00000000000E+00 0. -1.
          1    1    1    2  502    0 -0.47460289089E+02 -0.43851359477E+02  0.40513767098E+03  0.41025839810E+03  0.00000000000E+00 0. -1.
         22    1    3    3    0    0  0.17931004866E+01  0.71642636466E+02  0.28961522548E+03  0.29835023278E+03  0.00000000000E+00 0. -1.
         22    1    3    3    0    0  0.49575145238E+02 -0.49076624570E+01  0.39293622313E+02  0.63448947436E+02  0.00000000000E+00 0. -1.
</event>
<event>
 7    1  0.5854318E-006  0.1029241E+03  0.7818608E-02  0.1389686E+00
          2   -1    0    0  502    0  0.00000000000E+00  0.00000000000E+00  0.11473066533E+04  0.11473066533E+04  0.00000000000E+00 0. -1.
          1   -1    0    0  501    0 -0.00000000000E+00 -0.00000000000E+00 -0.92409462376E+03  0.92409462376E+03  0.00000000000E+00 0. -1.
         25    2    1    2    0    0 -0.11517687071E+03  0.65896536438E+02  0.86730987623E+02  0.20187954727E+03  0.12500008933E+03 0.  0.
          2    1    1    2  501    0  0.37326369246E+02 -0.48796696343E+00 -0.86353905913E+03  0.86434553426E+03  0.00000000000E+00 0. -1.
          1    1    1    2  502    0  0.77850501463E+02 -0.65408569474E+02  0.10000201010E+04  0.10051761955E+04  0.00000000000E+00 0. -1.
         22    1    3    3    0    0 -0.44117319201E+02  0.88316598618E+02  0.17683794255E+02  0.10029394809E+03  0.00000000000E+00 0. -1.
         22    1    3    3    0    0 -0.71059551507E+02 -0.22420062181E+02  0.69047193368E+02  0.10158559918E+03  0.00000000000E+00 0. -1.
</event>
<event>
 7    1  0.5854318E-006  0.7163856E+02  0.7818608E-02  0.1496443E+00
          2   -1    0    0  502    0  0.00000000000E+00  0.00000000000E+00  0.77335118444E+03  0.77335118444E+03  0.00000000000E+00 0. -1.
          1   -1    0    0  501    0 -0.00000000000E+00 -0.00000000000E+00 -0.26885993004E+03  0.26885993004E+03  0.00000000000E+00 0. -1.
         25    2    1    2    0    0  0.91108713427E+02  0.22672996558E+02 -0.32063180805E+01  0.15636445476E+03  0.12499879920E+03 0.  0.
          2    1    1    2  501    0 -0.68116972983E+02 -0.15092197396E+02 -0.18241884715E+03  0.19530574038E+03  0.00000000000E+00 0. -1.
          1    1    1    2  502    0 -0.22991740444E+02 -0.75807991624E+01  0.69011641962E+03  0.69054091934E+03  0.00000000000E+00 0. -1.
         22    1    3    3    0    0 -0.24446009764E+02 -0.21529597288E+02 -0.20330624000E+01  0.32638386840E+02  0.00000000000E+00 0. -1.
         22    1    3    3    0    0  0.11555472319E+03  0.44202593846E+02 -0.11732556805E+01  0.12372606792E+03  0.00000000000E+00 0. -1.
</event>
<event>
 7    1  0.5854318E-006  0.3839616E+03  0.7818608E-02  0.1221257E+00
          2   -1    0    0  502    0  0.00000000000E+00  0.00000000000E+00  0.22424811506E+04  0.22424811506E+04  0.00000000000E+00 0. -1.
          1   -1    0    0  501    0 -0.00000000000E+00 -0.00000000000E+00 -0.14386061796E+04  0.14386061796E+04  0.00000000000E+00 0. -1.
         25    2    1    2    0    0 -0.24232389960E+03 -0.25755144532E+03  0.10403555480E+03  0.38923115460E+03  0.12499550291E+03 0.  0.
          2    1    1    2  501    0  0.24000255091E+03  0.30444638938E+03 -0.12667311872E+04  0.13247251523E+04  0.00000000000E+00 0. -1.
          1    1    1    2  502    0  0.23213486850E+01 -0.46894944059E+02  0.19665706034E+04  0.19671310233E+04  0.00000000000E+00 0. -1.
         22    1    3    3    0    0  0.84862007638E+01 -0.10660023845E+02  0.25083046678E+02  0.28544893456E+02  0.00000000000E+00 0. -1.
         22    1    3    3    0    0 -0.25081010036E+03 -0.24689142147E+03  0.78952508121E+02  0.36068626114E+03  0.00000000000E+00 0. -1.
</event>
<event>
 7    1  0.5854318E-006  0.1380690E+03  0.7818608E-02  0.1309374E+00
          2   -1    0    0  502    0  0.00000000000E+00  0.00000000000E+00  0.25790003748E+04  0.25790003748E+04  0.00000000000E+00 0. -1.
          1   -1    0    0  501    0 -0.00000000000E+00 -0.00000000000E+00 -0.43150516285E+03  0.43150516285E+03  0.00000000000E+00 0. -1.
         25    2    1    2    0    0  0.89827622113E+02  0.33389451395E+02  0.85866199567E+03  0.87298932196E+03  0.12500430511E+03 0.  0.
          2    1    1    2  501    0 -0.13849341033E+03 -0.71790883669E+01 -0.41255019577E+03  0.43523514110E+03  0.00000000000E+00 0. -1.
          1    1    1    2  502    0  0.48665788213E+02 -0.26210363028E+02  0.17013834121E+04  0.17022810746E+04  0.00000000000E+00 0. -1.
         22    1    3    3    0    0  0.39508267851E+02  0.58431279481E+02  0.71885442449E+03  0.72230658398E+03  0.00000000000E+00 0. -1.
         22    1    3    3    0    0  0.50319354262E+02 -0.25041828086E+02  0.13980757117E+03  0.15068273798E+03  0.00000000000E+00 0. -1.
</event>
<event>
 7    1  0.5854318E-006  0.5722178E+02  0.7818608E-02  0.1543639E+00
          2   -1    0    0  502    0  0.00000000000E+00  0.00000000000E+00  0.39123731995E+03  0.39123731995E+03  0.00000000000E+00 0. -1.
          1   -1    0    0  501    0 -0.00000000000E+00 -0.00000000000E+00 -0.84048069992E+03  0.84048069992E+03  0.00000000000E+00 0. -1.
         25    2    1    2    0    0 -0.44514701853E+02 -0.20736064604E+02 -0.12454741466E+03  0.18316379019E+03  0.12500148993E+03 0.  0.
          2    1    1    2  501    0  0.39327136711E+02  0.42223570006E+02 -0.68507359800E+03  0.68749930053E+03  0.00000000000E+00 0. -1.
          1    1    1    2  502    0  0.51875651419E+01 -0.21487505403E+02  0.36037763269E+03  0.36105492915E+03  0.00000000000E+00 0. -1.
         22    1    3    3    0    0  0.20197766029E+00 -0.33292454252E+02  0.14685653272E+02  0.36388139786E+02  0.00000000000E+00 0.  1.
         22    1    3    3    0    0 -0.44716679513E+02  0.12556389648E+02 -0.13923306793E+03  0.14677565041E+03  0.00000000000E+00 0.  1.
</event>
<event>
 7    1  0.5854318E-006  0.1227315E+03  0.7818608E-02  0.1291917E+00
          2   -1    0    0  502    0  0.00000000000E+00  0.00000000000E+00  0.21760683838E+04  0.21760683838E+04  0.00000000000E+00 0. -1.
          1   -1    0    0  501    0 -0.00000000000E+00 -0.00000000000E+00 -0.20233511477E+03  0.20233511477E+03  0.00000000000E+00 0. -1.
         25    2    1    2    0    0 -0.19548583521E+02  0.65462630302E+02  0.50750327976E+03  0.52711675686E+03  0.12499997325E+03 0.  0.
          2    1    1    2  501    0  0.88984546744E+02 -0.88081264642E+02 -0.17127201598E+03  0.21215716391E+03  0.00000000000E+00 0. -1.
          1    1    1    2  502    0 -0.69435963223E+02  0.22618634340E+02  0.16375020053E+04  0.16391295778E+04  0.00000000000E+00 0. -1.
         22    1    3    3    0    0  0.12809345289E+02  0.89657770485E-01 -0.15147325814E+01  0.12898906157E+02  0.00000000000E+00 0. -1.
         22    1    3    3    0    0 -0.32357928810E+02  0.65372972531E+02  0.50901801234E+03  0.51421785071E+03  0.00000000000E+00 0. -1.
</event>
<event>
 7    1  0.5854318E-006  0.3310086E+03  0.7818608E-02  0.1317334E+00
          2   -1    0    0  502    0  0.00000000000E+00  0.00000000000E+00  0.28233093230E+04  0.28233093230E+04  0.00000000000E+00 0. -1.
          1   -1    0    0  501    0 -0.00000000000E+00 -0.00000000000E+00 -0.43086415136E+03  0.43086415136E+03  0.00000000000E+00 0. -1.
         25    2    1    2    0    0  0.30700371965E+03  0.57174264076E+02  0.11958191988E+03  0.35699518572E+03  0.12500218684E+03 0.  0.
          2    1    1    2  501    0  0.18762143451E+02  0.10411912456E+02 -0.30106902766E+03  0.30183271089E+03  0.00000000000E+00 0. -1.
          1    1    1    2  502    0 -0.32576586310E+03 -0.67586176532E+02  0.25739322794E+04  0.25953455777E+04  0.00000000000E+00 0. -1.
         22    1    3    3    0    0  0.21595563431E+03  0.55334882665E+02  0.14055819523E+03  0.26354390806E+03  0.00000000000E+00 0. -1.
         22    1    3    3    0    0  0.91048085344E+02  0.18393814108E+01 -0.20976275355E+02  0.93451277661E+02  0.00000000000E+00 0. -1.
</event>
<event>
 7    1  0.5854318E-006  0.5057569E+02  0.7818608E-02  0.1444785E+00
          2   -1    0    0  502    0  0.00000000000E+00  0.00000000000E+00  0.98183973298E+02  0.98183973298E+02  0.00000000000E+00 0. -1.
          1   -1    0    0  501    0 -0.00000000000E+00 -0.00000000000E+00 -0.37417114148E+03  0.37417114148E+03  0.00000000000E+00 0. -1.
         25    2    1    2    0    0  0.52578142602E+02  0.27100930107E+02 -0.12052463729E+03  0.18343955054E+03  0.12499983606E+03 0.  0.
          2    1    1    2  501    0 -0.90996463267E+01 -0.51044672533E+02 -0.20933644434E+03  0.21566202514E+03  0.00000000000E+00 0. -1.
          1    1    1    2  502    0 -0.43478496276E+02  0.23943742427E+02  0.53873913455E+02  0.73253539100E+02  0.00000000000E+00 0. -1.
         22    1    3    3    0    0  0.44617547224E+02  0.46877426219E+02 -0.14020840456E+03  0.15442349342E+03  0.00000000000E+00 0.  1.
         22    1    3    3    0    0  0.79605953779E+01 -0.19776496112E+02  0.19683767266E+02  0.29016057124E+02  0.00000000000E+00 0.  1.
</event>
<event>
 7    1  0.9601411E-006  0.6737115E+02  0.7818608E-02  0.1411596E+00
          2   -1    0    0  502    0  0.00000000000E+00  0.00000000000E+00  0.12182561469E+04  0.12182561469E+04  0.00000000000E+00 0. -1.
          1   -1    0    0  501    0 -0.00000000000E+00 -0.00000000000E+00 -0.11012592576E+04  0.11012592576E+04  0.00000000000E+00 0. -1.
         25    2    1    2    0    0  0.62685679266E+02  0.81274613142E+02 -0.13099824793E+03  0.20813703605E+03  0.12500171073E+03 0.  0.
          2    1    1    2  501    0 -0.45057964225E+02 -0.16411841633E+02 -0.93011599806E+03  0.93135135074E+03  0.00000000000E+00 0. -1.
          1    1    1    2  502    0 -0.17627715042E+02 -0.64862771509E+02  0.11781111353E+04  0.11800270177E+04  0.00000000000E+00 0. -1.
         22    1    3    3    0    0  0.58882133948E+02  0.63721119124E+02 -0.11760948218E+02  0.87554592247E+02  0.00000000000E+00 0. -1.
         22    1    3    3    0    0  0.38035453187E+01  0.17553494018E+02 -0.11923729971E+03  0.12058244380E+03  0.00000000000E+00 0. -1.
</event>
<event>
 7    1  0.5854318E-006  0.6663852E+02  0.7818608E-02  0.1416364E+00
          2   -1    0    0  502    0  0.00000000000E+00  0.00000000000E+00  0.91575152092E+03  0.91575152092E+03  0.00000000000E+00 0. -1.
          1   -1    0    0  501    0 -0.00000000000E+00 -0.00000000000E+00 -0.58319066646E+02  0.58319066646E+02  0.00000000000E+00 0. -1.
         25    2    1    2    0    0 -0.75412976437E+02 -0.50087733632E+02  0.11282867279E+03  0.19118493174E+03  0.12500188257E+03 0.  0.
          2    1    1    2  501    0  0.93900110852E+01  0.45767195241E+02  0.13274849108E+02  0.48569847511E+02  0.00000000000E+00 0. -1.
          1    1    1    2  502    0  0.66022965352E+02  0.43205383912E+01  0.73132893237E+03  0.73431580831E+03  0.00000000000E+00 0. -1.
         22    1    3    3    0    0 -0.99817951269E+01 -0.75155404697E+02  0.27211751466E+02  0.80550918722E+02  0.00000000000E+00 0. -1.
         22    1    3    3    0    0 -0.65431181310E+02  0.25067671065E+02  0.85616921323E+02  0.11063401302E+03  0.00000000000E+00 0. -1.
</event>
<event>
 7    1  0.5854318E-006  0.9490750E+02  0.7818608E-02  0.1292638E+00
          2   -1    0    0  502    0  0.00000000000E+00  0.00000000000E+00  0.28151918550E+04  0.28151918550E+04  0.00000000000E+00 0. -1.
          1   -1    0    0  501    0 -0.00000000000E+00 -0.00000000000E+00 -0.29237605599E+03  0.29237605599E+03  0.00000000000E+00 0. -1.
         25    2    1    2    0    0  0.80405396610E+02  0.51815464038E+02  0.28700183173E+03  0.32732983286E+03  0.12499959179E+03 0.  0.
          2    1    1    2  501    0  0.52130623154E+01 -0.94764217935E+02 -0.26299402152E+03  0.27959486471E+03  0.00000000000E+00 0. -1.
          1    1    1    2  502    0 -0.85618458925E+02  0.42948753896E+02  0.24988079888E+04  0.25006432134E+04  0.00000000000E+00 0. -1.
         22    1    3    3    0    0  0.44393082108E+02 -0.39354622257E+02  0.10425060045E+03  0.11994882128E+03  0.00000000000E+00 0.  1.
         22    1    3    3    0    0  0.36012314502E+02  0.91170086296E+02  0.18275123128E+03  0.20738101158E+03  0.00000000000E+00 0.  1.
</event>
<event>
 7    1  0.5854318E-006  0.1131410E+03  0.7818608E-02  0.1417120E+00
          2   -1    0    0  502    0  0.00000000000E+00  0.00000000000E+00  0.75418654624E+03  0.75418654624E+03  0.00000000000E+00 0. -1.
          1   -1    0    0  501    0 -0.00000000000E+00 -0.00000000000E+00 -0.26103766166E+04  0.26103766166E+04  0.00000000000E+00 0. -1.
         25    2    1    2    0    0 -0.39743789281E+01 -0.13183080076E+03  0.41974667094E+03  0.45739279075E+03  0.12500296614E+03 0.  0.
          2    1    1    2  501    0 -0.14973471884E+02  0.11209752943E+03 -0.25897242987E+04  0.25921925091E+04  0.00000000000E+00 0. -1.
          1    1    1    2  502    0  0.18947850813E+02  0.19733271328E+02  0.31378755736E+03  0.31497786303E+03  0.00000000000E+00 0. -1.
         22    1    3    3    0    0  0.12418202922E+02 -0.29196460348E+02  0.79861562136E+01  0.32717331061E+02  0.00000000000E+00 0.  1.
         22    1    3    3    0    0 -0.16392581850E+02 -0.10263434041E+03  0.41176051473E+03  0.42467545969E+03  0.00000000000E+00 0.  1.
</event>
<event>
 7    1  0.5854318E-006  0.1921710E+03  0.7818608E-02  0.1358350E+00
          2   -1    0    0  502    0  0.00000000000E+00  0.00000000000E+00  0.19720422313E+03  0.19720422313E+03  0.00000000000E+00 0. -1.
          1   -1    0    0  501    0 -0.00000000000E+00 -0.00000000000E+00 -0.73890595487E+03  0.73890595487E+03  0.00000000000E+00 0. -1.
         25    2    1    2    0    0  0.18429427109E+03 -0.10531448491E+03 -0.21245177914E+03  0.32529171855E+03  0.12499369827E+03 0.  0.
          2    1    1    2  501    0 -0.18071929206E+02  0.18517751014E+02 -0.40699838243E+03  0.40782004000E+03  0.00000000000E+00 0. -1.
          1    1    1    2  502    0 -0.16622234189E+03  0.86796733891E+02  0.77748429836E+02  0.20299841945E+03  0.00000000000E+00 0. -1.
         22    1    3    3    0    0 -0.14736036053E+01 -0.37898553910E+02 -0.41384880194E+01  0.38152312894E+02  0.00000000000E+00 0. -1.
         22    1    3    3    0    0  0.18576787470E+03 -0.67415930995E+02 -0.20831329113E+03  0.28713940566E+03  0.00000000000E+00 0. -1.
</event>
<event>
 7    1  0.5854318E-006  0.3801986E+02  0.7818608E-02  0.1584616E+00
          2   -1    0    0  502    0  0.00000000000E+00  0.00000000000E+00  0.64244546224E+03  0.64244546224E+03  0.00000000000E+00 0. -1.
          1   -1    0    0  501    0 -0.00000000000E+00 -0.00000000000E+00 -0.10622883939E+04  0.10622883939E+04  0.00000000000E+00 0. -1.
         25    2    1    2    0    0  0.26752510722E+02  0.23894157830E+02 -0.85583968314E+02  0.15568077181E+03  0.12500103788E+03 0.  0.
          2    1    1    2  501    0 -0.51399524256E+01 -0.37789388646E+02 -0.94099787095E+03  0.94177038079E+03  0.00000000000E+00 0. -1.
          1    1    1    2  502    0 -0.21612558296E+02  0.13895230816E+02  0.60673890756E+03  0.60728270358E+03  0.00000000000E+00 0. -1.
         22    1    3    3    0    0  0.56223186378E+02  0.53740786798E+02 -0.24426455110E+02  0.81521595675E+02  0.00000000000E+00 0. -1.
         22    1    3    3    0    0 -0.29470675656E+02 -0.29846628968E+02 -0.61157513204E+02  0.74159176139E+02  0.00000000000E+00 0. -1.
</event>
<event>
 7    1  0.5854318E-006  0.1806301E+03  0.7818608E-02  0.1378610E+00
          2   -1    0    0  502    0  0.00000000000E+00  0.00000000000E+00  0.26243119764E+04  0.26243119764E+04  0.00000000000E+00 0. -1.
          1   -1    0    0  501    0 -0.00000000000E+00 -0.00000000000E+00 -0.17828848063E+03  0.17828848063E+03  0.00000000000E+00 0. -1.
         25    2    1    2    0    0 -0.11300542254E+03  0.16781711232E+03  0.25853193759E+02  0.23922358972E+03  0.12500691796E+03 0.  0.
          2    1    1    2  501    0  0.17613065682E+02 -0.15205302500E+02 -0.66370700235E+02  0.70331295712E+02  0.00000000000E+00 0. -1.
          1    1    1    2  502    0  0.95392356858E+02 -0.15261180982E+03  0.24865410023E+04  0.24930455716E+04  0.00000000000E+00 0. -1.
         22    1    3    3    0    0 -0.85604818448E+02  0.34099387814E+02 -0.21725241339E+02  0.94672801279E+02  0.00000000000E+00 0.  1.
         22    1    3    3    0    0 -0.27400604093E+02  0.13371772451E+03  0.47578435098E+02  0.14455078844E+03  0.00000000000E+00 0.  1.
</event>
<event>
 7    1  0.5854318E-006  0.7796989E+02  0.7818608E-02  0.1495186E+00
          2   -1    0    0  502    0  0.00000000000E+00  0.00000000000E+00  0.25866206142E+04  0.25866206142E+04  0.00000000000E+00 0. -1.
          1   -1    0    0  501    0 -0.00000000000E+00 -0.00000000000E+00 -0.71667863158E+02  0.71667863158E+02  0.00000000000E+00 0. -1.
         25    2    1    2    0    0 -0.81436562755E+02  0.57620892848E+02  0.15153692058E+04  0.15237849429E+04  0.12499856393E+03 0.  0.
          2    1    1    2  501    0  0.61381752462E+02 -0.47558841831E+02 -0.44954578909E+02  0.89724451163E+02  0.00000000000E+00 0. -1.
          1    1    1    2  502    0  0.20054810293E+02 -0.10062051017E+02  0.10445381241E+04  0.10447790833E+04  0.00000000000E+00 0. -1.
         22    1    3    3    0    0 -0.45103415590E+02  0.28896960935E+02  0.18472211581E+03  0.19233203716E+03  0.00000000000E+00 0. -1.
         22    1    3    3    0    0 -0.36333147166E+02  0.28723931913E+02  0.13306470900E+04  0.13314529057E+04  0.00000000000E+00 0. -1.
</event>
<event>
 7    1  0.5854318E-006  0.2553229E+02  0.7818608E-02  0.1669746E+00
          2   -1    0    0  502    0  0.00000000000E+00  0.00000000000E+00  0.30259628910E+03  0.30259628910E+03  0.00000000000E+00 0. -1.
          1   -1    0    0  501    0 -0.00000000000E+00 -0.00000000000E+00 -0.49283447206E+03  0.49283447206E+03  0.00000000000E+00 0. -1.
         25    2    1    2    0    0  0.38197486159E+02  0.12091150841E+01  0.33431289288E+02  0.13491799163E+03  0.12499881381E+03 0.  0.
          2    1    1    2  501    0 -0.17259768734E+02 -0.15683953166E+02 -0.44104041097E+03  0.44165657485E+03  0.00000000000E+00 0. -1.
          1    1    1    2  502    0 -0.20937717425E+02  0.14474838082E+02  0.21737093872E+03  0.21885619468E+03  0.00000000000E+00 0. -1.
         22    1    3    3    0    0  0.45271127226E+02  0.51445084594E+02  0.46146816645E+02  0.82617191768E+02  0.00000000000E+00 0.  1.
         22    1    3    3    0    0 -0.70736410667E+01 -0.50235969510E+02 -0.12715527357E+02  0.52300799865E+02  0.00000000000E+00 0.  1.
</event>
<event>
 7    1  0.5854318E-006  0.5879753E+02  0.7818608E-02  0.1446909E+00
          2   -1    0    0  502    0  0.00000000000E+00  0.00000000000E+00  0.53602695965E+03  0.53602695965E+03  0.00000000000E+00 0. -1.
          1   -1    0    0  501    0 -0.00000000000E+00 -0.00000000000E+00 -0.73735376269E+02  0.73735376269E+02  0.00000000000E+00 0. -1.
         25    2    1    2    0    0  0.60642937541E+02  0.26248707005E+02  0.19034580609E+03  0.23711567309E+03  0.12500302411E+03 0.  0.
          2    1    1    2  501    0 -0.57211409437E+02  0.15638911426E+02 -0.30914841624E+02  0.66883842242E+02  0.00000000000E+00 0. -1.
          1    1    1    2  502    0 -0.34315281041E+01 -0.41887618431E+02  0.30286061892E+03  0.30576282059E+03  0.00000000000E+00 0. -1.
         22    1    3    3    0    0  0.22013446337E+02  0.69198529638E+02  0.15000783090E+03  0.16665946615E+03  0.00000000000E+00 0. -1.
         22    1    3    3    0    0  0.38629491204E+02 -0.42949822633E+02  0.40337975184E+02  0.70456206943E+02  0.00000000000E+00 0. -1.
</event>
<event>
 7    1  0.5854318E-006  0.9281997E+02  0.7818608E-02  0.1320356E+00
          2   -1    0    0  502    0  0.00000000000E+00  0.00000000000E+00  0.21985847503E+04  0.21985847503E+04  0.00000000000E+00 0. -1.
          1   -1    0    0  501    0 -0.00000000000E+00 -0.00000000000E+00 -0.17363765447E+04  0.17363765447E+04  0.00000000000E+00 0. -1.
         25    2    1    2    0    0  0.28443101560E+02 -0.86249294926E+01  0.16931264565E+03  0.21254657012E+03  0.12500349217E+03 0.  0.
          2    1    1    2  501    0  0.62809912032E+02  0.40024843550E+02 -0.17127901481E+04  0.17144086924E+04  0.00000000000E+00 0. -1.
          1    1    1    2  502    0 -0.91253013592E+02 -0.31399914057E+02  0.20056857081E+04  0.20080060325E+04  0.00000000000E+00 0. -1.
         22    1    3    3    0    0  0.25336865169E+02  0.34098230211E+02  0.50379566016E+01  0.42778815398E+02  0.00000000000E+00 0.  1.
         22    1    3    3    0    0  0.31062363913E+01 -0.42723159704E+02  0.16427468905E+03  0.16976775472E+03  0.00000000000E+00 0.  1.
</event>
<event>
 7    1  0.5854318E-006  0.6508125E+02  0.7818608E-02  0.1433498E+00
          2   -1    0    0  502    0  0.00000000000E+00  0.00000000000E+00  0.32287342613E+04  0.32287342613E+04  0.00000000000E+00 0. -1.
          1   -1    0    0  501    0 -0.00000000000E+00 -0.00000000000E+00 -0.19175291788E+02  0.19175291788E+02  0.00000000000E+00 0. -1.
         25    2    1    2    0    0 -0.60122778408E+01 -0.97527079274E+02  0.10110949726E+04  0.10234676286E+04  0.12500105783E+03 0.  0.
          2    1    1    2  501    0  0.22257938530E+02  0.58827207185E+02  0.64589309765E+02  0.90154506647E+02  0.00000000000E+00 0. -1.
          1    1    1    2  502    0 -0.16245660689E+02  0.38699872089E+02  0.21338746871E+04  0.21342874178E+04  0.00000000000E+00 0. -1.
         22    1    3    3    0    0 -0.58546427962E+02 -0.81502193466E+02  0.54646422549E+03  0.55560187320E+03  0.00000000000E+00 0. -1.
         22    1    3    3    0    0  0.52534150121E+02 -0.16024885808E+02  0.46463074716E+03  0.46786575542E+03  0.00000000000E+00 0. -1.
</event>
<event>
 7    1  0.5854318E-006  0.5461235E+02  0.7818608E-02  0.1550844E+00
          2   -1    0    0  502    0  0.00000000000E+00  0.00000000000E+00  0.50292328606E+03  0.50292328606E+03  0.00000000000E+00 0. -1.
          1   -1    0    0  501    0 -0.00000000000E+00 -0.00000000000E+00 -0.52087523622E+03  0.52087523622E+03  0.00000000000E+00 0. -1.
         25    2    1    2    0    0 -0.48858334205E+02  0.20253606006E+02 -0.23391627261E+03  0.27044369938E+03  0.12500250623E+03 0.  0.
          2    1    1    2  501    0 -0.57807512690E+01 -0.21340794162E+02 -0.26669576387E+03  0.26761068186E+03  0.00000000000E+00 0. -1.
          1    1    1    2  502    0  0.54639085474E+02  0.10871881559E+01  0.48266008631E+03  0.48574414104E+03  0.00000000000E+00 0. -1.
         22    1    3    3    0    0 -0.91411161345E+02  0.15506693552E+02 -0.15311474584E+03  0.17899883619E+03  0.00000000000E+00 0.  1.
         22    1    3    3    0    0  0.42552827140E+02  0.47469124549E+01 -0.80801526767E+02  0.91444863187E+02  0.00000000000E+00 0.  1.
</event>
<event>
 7    1  0.5854318E-006  0.8144071E+02  0.7818608E-02  0.1361558E+00
          2   -1    0    0  502    0  0.00000000000E+00  0.00000000000E+00  0.43325816237E+03  0.43325816237E+03  0.00000000000E+00 0. -1.
          1   -1    0    0  501    0 -0.00000000000E+00 -0.00000000000E+00 -0.27031370692E+03  0.27031370692E+03  0.00000000000E+00 0. -1.
         25    2    1    2    0    0  0.24311411046E+02  0.50756466882E+02  0.85751639111E+02  0.16169643824E+03  0.12500052357E+03 0.  0.
          2    1    1    2  501    0  0.27849652022E+02 -0.79239661743E+02 -0.22172843736E+03  0.23710341002E+03  0.00000000000E+00 0. -1.
          1    1    1    2  502    0 -0.52161063068E+02  0.28483194861E+02  0.29892125369E+03  0.30477202102E+03  0.00000000000E+00 0. -1.
         22    1    3    3    0    0  0.23526680373E+02  0.78620546455E+02  0.12107780526E+02  0.82953561488E+02  0.00000000000E+00 0. -1.
         22    1    3    3    0    0  0.78473067264E+00 -0.27864079573E+02  0.73643858584E+02  0.78742876756E+02  0.00000000000E+00 0. -1.
</event>
<event>
 7    1  0.5854318E-006  0.1320948E+03  0.7818608E-02  0.1335026E+00
          2   -1    0    0  502    0  0.00000000000E+00  0.00000000000E+00  0.42952587160E+03  0.42952587160E+03  0.00000000000E+00 0. -1.
          1   -1    0    0  501    0 -0.00000000000E+00 -0.00000000000E+00 -0.95902401738E+03  0.95902401738E+03  0.00000000000E+00 0. -1.
         25    2    1    2    0    0 -0.58588586526E+02  0.15568162528E+03  0.19015177975E+03  0.28187399043E+03  0.12500342482E+03 0.  0.
          2    1    1    2  501    0  0.70163523044E+02 -0.11118556738E+03 -0.90561654114E+03  0.91511008624E+03  0.00000000000E+00 0. -1.
          1    1    1    2  502    0 -0.11574936519E+02 -0.44496057899E+02  0.18596661561E+03  0.19156581231E+03  0.00000000000E+00 0. -1.
         22    1    3    3    0    0 -0.82704437653E+02  0.84051981625E+02  0.16380392612E+03  0.20183281655E+03  0.00000000000E+00 0.  1.
         22    1    3    3    0    0  0.24115851128E+02  0.71629643650E+02  0.26347853630E+02  0.80041173880E+02  0.00000000000E+00 0.  1.
</event>
<event>
 7    1  0.5854318E-006  0.1803090E+03  0.7818608E-02  0.1265482E+00
          2   -1    0    0  502    0  0.00000000000E+00  0.00000000000E+00  0.43272230493E+03  0.43272230493E+03  0.00000000000E+00 0. -1.
          1   -1    0    0  501    0 -0.00000000000E+00 -0.00000000000E+00 -0.72462550426E+03  0.72462550426E+03  0.00000000000E+00 0. -1.
         25    2    1    2    0    0 -0.13048451975E+03  0.60755718882E+02 -0.20684881906E+03  0.28129905028E+03  0.12500101786E+03 0.  0.
          2    1    1    2  501    0 -0.52070315249E+02 -0.37141438555E+02 -0.45678362557E+03  0.46123972594E+03  0.00000000000E+00 0. -1.
          1    1    1    2  502    0  0.18255483500E+03 -0.23614280327E+02  0.37172924531E+03  0.41480903297E+03  0.00000000000E+00 0. -1.
         22    1    3    3    0    0 -0.11928891572E+02  0.70128738770E+02 -0.66999216135E+02  0.97720179176E+02  0.00000000000E+00 0.  1.
         22    1    3    3    0    0 -0.11855562818E+03 -0.93730198878E+01 -0.13984960293E+03  0.18357887110E+03  0.00000000000E+00 0.  1.
</event>
<event>
 7    1  0.5854318E-006  0.1741202E+03  0.7818608E-02  0.1361574E+00
          2   -1    0    0  502    0  0.00000000000E+00  0.00000000000E+00  0.19685781617E+04  0.19685781617E+04  0.00000000000E+00 0. -1.
          1   -1    0    0  501    0 -0.00000000000E+00 -0.00000000000E+00 -0.33407756034E+03  0.33407756034E+03  0.00000000000E+00 0. -1.
         25    2    1    2    0    0  0.52222470300E+02 -0.19308064266E+03  0.63309615214E+03  0.67560616238E+03  0.12500251121E+03 0.  0.
          2    1    1    2  501    0 -0.38703796710E+02  0.16879606858E+03 -0.28869406349E+03  0.33665168786E+03  0.00000000000E+00 0. -1.
          1    1    1    2  502    0 -0.13518673589E+02  0.24284574082E+02  0.12900985127E+04  0.12903978718E+04  0.00000000000E+00 0. -1.
         22    1    3    3    0    0  0.30692576445E+02 -0.10341360125E+03  0.15590060943E+03  0.18958219113E+03  0.00000000000E+00 0. -1.
         22    1    3    3    0    0  0.21529893854E+02 -0.89667041416E+02  0.47719554272E+03  0.48602397125E+03  0.00000000000E+00 0. -1.
</event>
<event>
 7    1  0.5854318E-006  0.1081234E+03  0.7818608E-02  0.1345884E+00
          2   -1    0    0  502    0  0.00000000000E+00  0.00000000000E+00  0.73654085685E+03  0.73654085685E+03  0.00000000000E+00 0. -1.
          1   -1    0    0  501    0 -0.00000000000E+00 -0.00000000000E+00 -0.50776954159E+03  0.50776954159E+03  0.00000000000E+00 0. -1.
         25    2    1    2    0    0  0.10681525773E+03  0.80879025590E+02 -0.39217594955E+02  0.18738736563E+03  0.12500035592E+03 0.  0.
          2    1    1    2  501    0 -0.10206031787E+03 -0.29969181125E+02 -0.38628069333E+03  0.40065850090E+03  0.00000000000E+00 0. -1.
          1    1    1    2  502    0 -0.47549398608E+01 -0.50909844465E+02  0.65426960355E+03  0.65626453191E+03  0.00000000000E+00 0. -1.
         22    1    3    3    0    0  0.10943447126E+03  0.22055764129E+02 -0.57711054838E+02  0.12566990921E+03  0.00000000000E+00 0.  1.
         22    1    3    3    0    0 -0.26192135279E+01  0.58823261461E+02  0.18493459884E+02  0.61717456419E+02  0.00000000000E+00 0.  1.
</event>
<event>
 7    1  0.5854318E-006  0.1555868E+03  0.7818608E-02  0.1349794E+00
          2   -1    0    0  502    0  0.00000000000E+00  0.00000000000E+00  0.70227499567E+03  0.70227499567E+03  0.00000000000E+00 0. -1.
          1   -1    0    0  501    0 -0.00000000000E+00 -0.00000000000E+00 -0.11399549167E+04  0.11399549167E+04  0.00000000000E+00 0. -1.
         25    2    1    2    0    0  0.39390215959E+02  0.16381369760E+03  0.86261505185E+02  0.22682784773E+03  0.12499323419E+03 0.  0.
          2    1    1    2  501    0 -0.65044351150E+02 -0.14095059545E+03 -0.10634902061E+04  0.10747600925E+04  0.00000000000E+00 0. -1.
          1    1    1    2  502    0  0.25654135190E+02 -0.22863102155E+02  0.53954877991E+03  0.54064197210E+03  0.00000000000E+00 0. -1.
         22    1    3    3    0    0  0.67373698506E+02  0.11055370982E+03  0.10179345045E+03  0.16469136152E+03  0.00000000000E+00 0. -1.
         22    1    3    3    0    0 -0.27983482546E+02  0.53259987786E+02 -0.15531945267E+02  0.62136486207E+02  0.00000000000E+00 0. -1.
</event>
<event>
 7    1  0.5854318E-006  0.9506405E+02  0.7818608E-02  0.1310587E+00
          2   -1    0    0  502    0  0.00000000000E+00  0.00000000000E+00  0.11660154537E+03  0.11660154537E+03  0.00000000000E+00 0. -1.
          1   -1    0    0  501    0 -0.00000000000E+00 -0.00000000000E+00 -0.23810807944E+04  0.23810807944E+04  0.00000000000E+00 0. -1.
         25    2    1    2    0    0  0.42784949207E+02  0.10777832401E+03 -0.33347317754E+03  0.37453494951E+03  0.12500139701E+03 0.  0.
          2    1    1    2  501    0  0.43426202870E+02 -0.66473649554E+02 -0.20023129839E+04  0.20038866900E+04  0.00000000000E+00 0. -1.
          1    1    1    2  502    0 -0.86211152078E+02 -0.41304674460E+02  0.71306912351E+02  0.11926070025E+03  0.00000000000E+00 0. -1.
         22    1    3    3    0    0  0.87118841669E+02  0.79105904472E+02 -0.22678894703E+03  0.25550080859E+03  0.00000000000E+00 0.  1.
         22    1    3    3    0    0 -0.44333892462E+02  0.28672419541E+02 -0.10668423051E+03  0.11903414091E+03  0.00000000000E+00 0.  1.
</event>
<event>
 7    1  0.5854318E-006  0.1756184E+03  0.7818608E-02  0.1273758E+00
          2   -1    0    0  502    0  0.00000000000E+00  0.00000000000E+00  0.14673097419E+03  0.14673097419E+03  0.00000000000E+00 0. -1.
          1   -1    0    0  501    0 -0.00000000000E+00 -0.00000000000E+00 -0.48069874386E+03  0.48069874386E+03  0.00000000000E+00 0. -1.
         25    2    1    2    0    0  0.12352235432E+02  0.20365194456E+03 -0.28946274897E+02  0.24101780918E+03  0.12500002106E+03 0.  0.
          2    1    1    2  501    0 -0.15897532716E+02 -0.58492884422E+02 -0.19508894715E+03  0.20428863496E+03  0.00000000000E+00 0. -1.
          1    1    1    2  502    0  0.35452972841E+01 -0.14515906014E+03 -0.10993254761E+03  0.18212327391E+03  0.00000000000E+00 0. -1.
         22    1    3    3    0    0 -0.31400981205E+02  0.75715097898E+02 -0.60858985623E+02  0.10209120335E+03  0.00000000000E+00 0. -1.
         22    1    3    3    0    0  0.43753216637E+02  0.12793684667E+03  0.31912710727E+02  0.13892660583E+03  0.00000000000E+00 0. -1.
</event>
<event>
 7    1  0.5854318E-006  0.7249242E+02  0.7818608E-02  0.1477837E+00
          2   -1    0    0  502    0  0.00000000000E+00  0.00000000000E+00  0.11606983436E+03  0.11606983436E+03  0.00000000000E+00 0. -1.
          1   -1    0    0  501    0 -0.00000000000E+00 -0.00000000000E+00 -0.72174111746E+03  0.72174111746E+03  0.00000000000E+00 0. -1.
         25    2    1    2    0    0  0.86809487650E+02 -0.41437079982E+02 -0.89494206758E+02  0.18134926126E+03  0.12500169108E+03 0.  0.
          2    1    1    2  501    0 -0.22249664165E+02  0.15730949874E+02 -0.56870210769E+03  0.56935454475E+03  0.00000000000E+00 0. -1.
          1    1    1    2  502    0 -0.64559823485E+02  0.25706130108E+02  0.52525031345E+02  0.87107145811E+02  0.00000000000E+00 0. -1.
         22    1    3    3    0    0  0.90543278738E+02 -0.71458666372E+02 -0.37668543503E+02  0.12133979353E+03  0.00000000000E+00 0.  1.
         22    1    3    3    0    0 -0.37337910882E+01  0.30021586391E+02 -0.51825663256E+02  0.60009467730E+02  0.00000000000E+00 0.  1.
</event>
<event>
 7    1  0.5854318E-006  0.5950804E+02  0.7818608E-02  0.1547346E+00
          2   -1    0    0  502    0  0.00000000000E+00  0.00000000000E+00  0.12606036205E+04  0.12606036205E+04  0.00000000000E+00 0. -1.
          1   -1    0    0  501    0 -0.00000000000E+00 -0.00000000000E+00 -0.47064974690E+03  0.47064974690E+03  0.00000000000E+00 0. -1.
         25    2    1    2    0    0  0.14066005797E+02 -0.60800628507E+02  0.62256224191E+03  0.63804980057E+03  0.12501693489E+03 0.  0.
          2    1    1    2  501    0 -0.31921139876E+02  0.50224275224E+02 -0.46082130969E+03  0.46464794895E+03  0.00000000000E+00 0. -1.
          1    1    1    2  502    0  0.17855134078E+02  0.10576353283E+02  0.62821294141E+03  0.62855561792E+03  0.00000000000E+00 0. -1.
         22    1    3    3    0    0  0.67506333219E+02 -0.42246049474E+02  0.29116904752E+03  0.30186296221E+03  0.00000000000E+00 0. -1.
         22    1    3    3    0    0 -0.53440327422E+02 -0.18554579033E+02  0.33139319439E+03  0.33618683836E+03  0.00000000000E+00 0. -1.
</event>
<event>
 7    1  0.5854318E-006  0.5785441E+02  0.7818608E-02  0.1553001E+00
          2   -1    0    0  502    0  0.00000000000E+00  0.00000000000E+00  0.13813755159E+04  0.13813755159E+04  0.00000000000E+00 0. -1.
          1   -1    0    0  501    0 -0.00000000000E+00 -0.00000000000E+00 -0.42739356911E+03  0.42739356911E+03  0.00000000000E+00 0. -1.
         25    2    1    2    0    0 -0.16238582425E+01 -0.74848147627E+02  0.50739334442E+02  0.15430633809E+03  0.12502433282E+03 0.  0.
          2    1    1    2  501    0 -0.84357877502E+01  0.56889263186E+02 -0.37332515390E+03  0.37772903161E+03  0.00000000000E+00 0. -1.
          1    1    1    2  502    0  0.10059645993E+02  0.17958884441E+02  0.12765677663E+04  0.12767337153E+04  0.00000000000E+00 0. -1.
         22    1    3    3    0    0 -0.45120952022E+01 -0.73113559817E+02 -0.25822208602E+02  0.77670702902E+02  0.00000000000E+00 0.  1.
         22    1    3    3    0    0  0.28882369597E+01 -0.17345878109E+01  0.76561543044E+02  0.76635635190E+02  0.00000000000E+00 0.  1.
</event>
<event>
 7    1  0.5854318E-006  0.7238197E+02  0.7818608E-02  0.1463392E+00
          2   -1    0    0  502    0  0.00000000000E+00  0.00000000000E+00  0.45712675627E+03  0.45712675627E+03  0.00000000000E+00 0. -1.
          1   -1    0    0  501    0 -0.00000000000E+00 -0.00000000000E+00 -0.87922445125E+03  0.87922445125E+03  0.00000000000E+00 0. -1.
         25    2    1    2    0    0  0.16452743414E+02 -0.98313630159E+02  0.61724558407E+02  0.17137907127E+03  0.12499840926E+03 0.  0.
          2    1    1    2  501    0 -0.22042204399E+02  0.68571448440E+02 -0.82214726673E+03  0.82529632891E+03  0.00000000000E+00 0. -1.
          1    1    1    2  502    0  0.55894609857E+01  0.29742181719E+02  0.33832501334E+03  0.33967580735E+03  0.00000000000E+00 0. -1.
         22    1    3    3    0    0  0.51266784239E+02 -0.43358289248E+01 -0.38813756152E+01  0.51596004257E+02  0.00000000000E+00 0. -1.
         22    1    3    3    0    0 -0.34814040825E+02 -0.93977801234E+02  0.65605934023E+02  0.11978306701E+03  0.00000000000E+00 0. -1.
</event>
<event>
 7    1  0.5854318E-006  0.1966436E+03  0.7818608E-02  0.1283287E+00
          2   -1    0    0  502    0  0.00000000000E+00  0.00000000000E+00  0.43128176914E+03  0.43128176914E+03  0.00000000000E+00 0. -1.
          1   -1    0    0  501    0 -0.00000000000E+00 -0.00000000000E+00 -0.13833652361E+04  0.13833652361E+04  0.00000000000E+00 0. -1.
         25    2    1    2    0    0 -0.16685511846E+03  0.17004006403E+03 -0.65273453799E+03  0.70600415663E+03  0.12500095267E+03 0.  0.
          2    1    1    2  501    0  0.15231301827E+02 -0.47025496324E+02 -0.67949287103E+03  0.68128844966E+03  0.00000000000E+00 0. -1.
          1    1    1    2  502    0  0.15162381663E+03 -0.12301456771E+03  0.38014394205E+03  0.42735439896E+03  0.00000000000E+00 0. -1.
         22    1    3    3    0    0 -0.11295085748E+03  0.11869157916E+03 -0.26787682556E+03  0.31401207117E+03  0.00000000000E+00 0. -1.
         22    1    3    3    0    0 -0.53904260981E+02  0.51348484872E+02 -0.38485771243E+03  0.39199208546E+03  0.00000000000E+00 0. -1.
</event>
<event>
 7    1  0.5854318E-006  0.1713630E+03  0.7818608E-02  0.1227496E+00
          2   -1    0    0  502    0  0.00000000000E+00  0.00000000000E+00  0.22750036382E+04  0.22750036382E+04  0.00000000000E+00 0. -1.
          1   -1    0    0  501    0 -0.00000000000E+00 -0.00000000000E+00 -0.68900181691E+03  0.68900181691E+03  0.00000000000E+00 0. -1.
         25    2    1    2    0    0  0.58484618932E+02  0.11119660452E+03  0.44354239850E+03  0.47764990471E+03  0.12503774109E+03 0.  0.
          2    1    1    2  501    0 -0.61560140629E+02  0.76996238109E+02 -0.66341489317E+03  0.67069918151E+03  0.00000000000E+00 0. -1.
          1    1    1    2  502    0  0.30755216967E+01 -0.18819284263E+03  0.18058743160E+04  0.18156563689E+04  0.00000000000E+00 0. -1.
         22    1    3    3    0    0  0.74037480378E+02  0.12569329521E+03  0.31222809442E+03  0.34462550095E+03  0.00000000000E+00 0. -1.
         22    1    3    3    0    0 -0.15552861446E+02 -0.14496690684E+02  0.13131430408E+03  0.13302440376E+03  0.00000000000E+00 0. -1.
</event>
<event>
 7    1  0.5854318E-006  0.3115206E+02  0.7818608E-02  0.1591951E+00
          2   -1    0    0  502    0  0.00000000000E+00  0.00000000000E+00  0.16409492190E+03  0.16409492190E+03  0.00000000000E+00 0. -1.
          1   -1    0    0  501    0 -0.00000000000E+00 -0.00000000000E+00 -0.16918873053E+04  0.16918873053E+04  0.00000000000E+00 0. -1.
         25    2    1    2    0    0 -0.50210828166E+02 -0.34161674005E+02 -0.68461334255E+02  0.15492018121E+03  0.12500064408E+03 0.  0.
          2    1    1    2  501    0  0.27255454477E+02  0.14871320850E+02 -0.15781818567E+04  0.15784872469E+04  0.00000000000E+00 0. -1.
          1    1    1    2  502    0  0.22955373689E+02  0.19290353155E+02  0.11885080755E+03  0.12257479905E+03  0.00000000000E+00 0. -1.
         22    1    3    3    0    0 -0.80147476848E+02 -0.34310030298E+02 -0.84108549470E+02  0.12114059732E+03  0.00000000000E+00 0.  1.
         22    1    3    3    0    0  0.29936648682E+02  0.14835629321E+00  0.15647215215E+02  0.33779583891E+02  0.00000000000E+00 0.  1.
</event>
<event>
 7    1  0.5854318E-006  0.4835094E+02  0.7818608E-02  0.1464317E+00
          2   -1    0    0  502    0  0.00000000000E+00  0.00000000000E+00  0.19101944529E+02  0.19101944529E+02  0.00000000000E+00 0. -1.
          1   -1    0    0  501    0 -0.00000000000E+00 -0.00000000000E+00 -0.17822562059E+04  0.17822562059E+04  0.00000000000E+00 0. -1.
         25    2    1    2    0    0 -0.12284871257E+02 -0.38468371762E+02 -0.87664774650E+03  0.88643481156E+03  0.12499868005E+03 0.  0.
          2    1    1    2  501    0  0.48288694126E+02  0.61955036438E+01 -0.85678671532E+03  0.85816878164E+03  0.00000000000E+00 0. -1.
          1    1    1    2  502    0 -0.36003822869E+02  0.32272868119E+02 -0.29719799508E+02  0.56754557179E+02  0.00000000000E+00 0. -1.
         22    1    3    3    0    0 -0.56248036716E+02 -0.59215367303E+02 -0.49296350600E+03  0.49968321926E+03  0.00000000000E+00 0. -1.
         22    1    3    3    0    0  0.43963165459E+02  0.20746995541E+02 -0.38368424050E+03  0.38675159231E+03  0.00000000000E+00 0. -1.
</event>
<event>
 7    1  0.5854318E-006  0.5342783E+02  0.7818608E-02  0.1474694E+00
          2   -1    0    0  502    0  0.00000000000E+00  0.00000000000E+00  0.23588721355E+03  0.23588721355E+03  0.00000000000E+00 0. -1.
          1   -1    0    0  501    0 -0.00000000000E+00 -0.00000000000E+00 -0.15186792630E+04  0.15186792630E+04  0.00000000000E+00 0. -1.
         25    2    1    2    0    0  0.44019313898E+02  0.68200307471E+02 -0.13749175368E+03  0.20277438925E+03  0.12499795467E+03 0.  0.
          2    1    1    2  501    0 -0.43511660001E+02 -0.30396985115E+02 -0.13462605465E+04  0.13473064612E+04  0.00000000000E+00 0. -1.
          1    1    1    2  502    0 -0.50765389671E+00 -0.37803322356E+02  0.20096025076E+03  0.20448562609E+03  0.00000000000E+00 0. -1.
         22    1    3    3    0    0  0.44180030185E+01 -0.28559947976E+02  0.13963097468E+01  0.28933355491E+02  0.00000000000E+00 0. -1.
         22    1    3    3    0    0  0.39601310879E+02  0.96760255447E+02 -0.13888806342E+03  0.17384103376E+03  0.00000000000E+00 0. -1.
</event>
<event>
 7    1  0.5854318E-006  0.7158899E+02  0.7818608E-02  0.1456940E+00
          2   -1    0    0  502    0  0.00000000000E+00  0.00000000000E+00  0.20635784997E+04  0.20635784997E+04  0.00000000000E+00 0. -1.
          1   -1    0    0  501    0 -0.00000000000E+00 -0.00000000000E+00 -0.12258064674E+04  0.12258064674E+04  0.00000000000E+00 0. -1.
         25    2    1    2    0    0 -0.57473096096E+02 -0.40532575187E+02  0.42530861554E+03  0.44884037085E+03  0.12499685447E+03 0.  0.
          2    1    1    2  501    0  0.70708037301E+02  0.11325520960E+02 -0.12128263527E+04  0.12149385399E+04  0.00000000000E+00 0. -1.
          1    1    1    2  502    0 -0.13234941205E+02  0.29207054227E+02  0.16252897695E+04  0.16256060563E+04  0.00000000000E+00 0. -1.
         22    1    3    3    0    0  0.19408159549E+02 -0.53486558258E+02  0.10774383762E+03  0.12184507834E+03  0.00000000000E+00 0.  1.
         22    1    3    3    0    0 -0.76881255645E+02  0.12953983070E+02  0.31756477792E+03  0.32699529251E+03  0.00000000000E+00 0.  1.
</event>
<event>
 7    1  0.5854318E-006  0.7583639E+02  0.7818608E-02  0.1387016E+00
          2   -1    0    0  502    0  0.00000000000E+00  0.00000000000E+00  0.11438225631E+04  0.11438225631E+04  0.00000000000E+00 0. -1.
          1   -1    0    0  501    0 -0.00000000000E+00 -0.00000000000E+00 -0.26372158246E+02  0.26372158246E+02  0.00000000000E+00 0. -1.
         25    2    1    2    0    0 -0.20808375226E+02 -0.96923686751E+02  0.63034496588E+03  0.65022072863E+03  0.12500012159E+03 0.  0.
          2    1    1    2  501    0  0.43194999554E+02  0.28526994359E+02  0.35732907031E+02  0.62900222881E+02  0.00000000000E+00 0. -1.
          1    1    1    2  502    0 -0.22386624329E+02  0.68396692392E+02  0.45137253199E+03  0.45707376988E+03  0.00000000000E+00 0. -1.
         22    1    3    3    0    0 -0.50067747871E+02 -0.24705321544E+02  0.10307722559E+03  0.11722647621E+03  0.00000000000E+00 0. -1.
         22    1    3    3    0    0  0.29259372646E+02 -0.72218365207E+02  0.52726774029E+03  0.53299425242E+03  0.00000000000E+00 0. -1.
</event>
<event>
 7    1  0.5854318E-006  0.4722431E+02  0.7818608E-02  0.1524330E+00
          2   -1    0    0  502    0  0.00000000000E+00  0.00000000000E+00  0.83259543803E+03  0.83259543803E+03  0.00000000000E+00 0. -1.
          1   -1    0    0  501    0 -0.00000000000E+00 -0.00000000000E+00 -0.13587154345E+03  0.13587154345E+03  0.00000000000E+00 0. -1.
         25    2    1    2    0    0 -0.79229975977E+01  0.68904589779E+02  0.21736015286E+02  0.14459728700E+03  0.12500121865E+03 0.  0.
          2    1    1    2  501    0  0.19485236854E+02 -0.23337520295E+02 -0.70565197302E+02  0.76835938070E+02  0.00000000000E+00 0. -1.
          1    1    1    2  502    0 -0.11562239256E+02 -0.45567069484E+02  0.74555307659E+03  0.74703375641E+03  0.00000000000E+00 0. -1.
         22    1    3    3    0    0 -0.19226449806E+01 -0.36696315128E+02  0.69333584315E+00  0.36753187920E+02  0.00000000000E+00 0. -1.
         22    1    3    3    0    0 -0.60003526172E+01  0.10560090491E+03  0.21042679443E+02  0.10784409908E+03  0.00000000000E+00 0. -1.
</event>
<event>
 7    1  0.5854318E-006  0.1362115E+03  0.7818608E-02  0.1307101E+00
          2   -1    0    0  502    0  0.00000000000E+00  0.00000000000E+00  0.25912416801E+03  0.25912416801E+03  0.00000000000E+00 0. -1.
          1   -1    0    0  501    0 -0.00000000000E+00 -0.00000000000E+00 -0.58871885303E+03  0.58871885303E+03  0.00000000000E+00 0. -1.
         25    2    1    2    0    0  0.11767863411E+03 -0.14214886295E+03 -0.14179927460E+03  0.26417127949E+03  0.12499948186E+03 0.  0.
          2    1    1    2  501    0 -0.85965822170E+02  0.94545179932E+02 -0.37066070213E+03  0.39206921549E+03  0.00000000000E+00 0. -1.
          1    1    1    2  502    0 -0.31712811935E+02  0.47603683019E+02  0.18286529171E+03  0.19160252606E+03  0.00000000000E+00 0. -1.
         22    1    3    3    0    0  0.10978005792E+03 -0.14582207353E+03 -0.16080968956E+03  0.24326013751E+03  0.00000000000E+00 0.  1.
         22    1    3    3    0    0  0.78985761804E+01  0.36732105764E+01  0.19010414961E+02  0.20911141973E+02  0.00000000000E+00 0.  1.
</event>
<event>
 7    1  0.5854318E-006  0.6946384E+02  0.7818608E-02  0.1422438E+00
          2   -1    0    0  502    0  0.00000000000E+00  0.00000000000E+00  0.21492406426E+04  0.21492406426E+04  0.00000000000E+00 0. -1.
          1   -1    0    0  501    0 -0.00000000000E+00 -0.00000000000E+00 -0.23804472170E+03  0.23804472170E+03  0.00000000000E+00 0. -1.
         25    2    1    2    0    0 -0.86847508548E+02 -0.38651768997E+02  0.19189412720E+03  0.24796151922E+03  0.12500043988E+03 0.  0.
          2    1    1    2  501    0  0.46025422598E+02  0.51422089350E+02 -0.20409740132E+03  0.21544911237E+03  0.00000000000E+00 0. -1.
          1    1    1    2  502    0  0.40822085950E+02 -0.12770320353E+02  0.19233991950E+04  0.19238747327E+04  0.00000000000E+00 0. -1.
         22    1    3    3    0    0  0.59088186530E+01  0.32701360894E+02  0.77447261401E+02  0.84275568469E+02  0.00000000000E+00 0. -1.
         22    1    3    3    0    0 -0.92756327201E+02 -0.71353129891E+02  0.11444686580E+03  0.16368595075E+03  0.00000000000E+00 0. -1.
</event>
<event>
 7    1  0.5854318E-006  0.1065667E+03  0.7818608E-02  0.1275555E+00
          2   -1    0    0  502    0  0.00000000000E+00  0.00000000000E+00  0.16384611689E+04  0.16384611689E+04  0.00000000000E+00 0. -1.
          1   -1    0    0  501    0 -0.00000000000E+00 -0.00000000000E+00 -0.13391659832E+04  0.13391659832E+04  0.00000000000E+00 0. -1.
         25    2    1    2    0    0  0.41931683972E+02  0.17664591698E+03  0.11488719021E+03  0.24856641793E+03  0.12499660613E+03 0.  0.
          2    1    1    2  501    0  0.23314084396E+02 -0.10327778831E+03 -0.12684639936E+04  0.12728749943E+04  0.00000000000E+00 0. -1.
          1    1    1    2  502    0 -0.65245768369E+02 -0.73368128667E+02  0.14528719890E+04  0.14561857399E+04  0.00000000000E+00 0. -1.
         22    1    3    3    0    0 -0.44912767544E+02  0.58916478656E+02  0.36260792804E+02  0.82481229625E+02  0.00000000000E+00 0. -1.
         22    1    3    3    0    0  0.86844451516E+02  0.11772943832E+03  0.78626397407E+02  0.16608518831E+03  0.00000000000E+00 0. -1.
</event>
<event>
 7    1  0.5854318E-006  0.7248809E+02  0.7818608E-02  0.1355297E+00
          2   -1    0    0  502    0  0.00000000000E+00  0.00000000000E+00  0.21873240135E+04  0.21873240135E+04  0.00000000000E+00 0. -1.
          1   -1    0    0  501    0 -0.00000000000E+00 -0.00000000000E+00 -0.75177174699E+03  0.75177174699E+03  0.00000000000E+00 0. -1.
         25    2    1    2    0    0 -0.65104911277E+01  0.39887155694E+01  0.34139749469E+03  0.36364832612E+03  0.12501823615E+03 0.  0.
          2    1    1    2  501    0  0.18457558210E+02  0.70098797999E+02 -0.73810277556E+03  0.74165371314E+03  0.00000000000E+00 0. -1.
          1    1    1    2  502    0 -0.11947067082E+02 -0.74087513569E+02  0.18322575473E+04  0.18337937212E+04  0.00000000000E+00 0. -1.
         22    1    3    3    0    0 -0.39376308745E+01 -0.17154713312E+02 -0.36239739007E+01  0.17970039303E+02  0.00000000000E+00 0. -1.
         22    1    3    3    0    0 -0.25728602532E+01  0.21143428881E+02  0.34502146859E+03  0.34567828682E+03  0.00000000000E+00 0. -1.
</event>
<event>
 7    1  0.5854318E-006  0.1209333E+03  0.7818608E-02  0.1320575E+00
          2   -1    0    0  502    0  0.00000000000E+00  0.00000000000E+00  0.18544176942E+03  0.18544176942E+03  0.00000000000E+00 0. -1.
          1   -1    0    0  501    0 -0.00000000000E+00 -0.00000000000E+00 -0.40298486439E+03  0.40298486439E+03  0.00000000000E+00 0. -1.
         25    2    1    2    0    0  0.15474587145E+03 -0.45934598358E+02 -0.11500965511E+03  0.23432524803E+03  0.12499931614E+03 0.  0.
          2    1    1    2  501    0 -0.98225556089E+02  0.53713526250E+02 -0.20684973027E+03  0.23520249507E+03  0.00000000000E+00 0. -1.
          1    1    1    2  502    0 -0.56520315365E+02 -0.77789278916E+01  0.10431629041E+03  0.11889889072E+03  0.00000000000E+00 0. -1.
         22    1    3    3    0    0  0.28344607632E+02  0.41093492260E+02 -0.19662389174E+02  0.53653531440E+02  0.00000000000E+00 0.  1.
         22    1    3    3    0    0  0.12640126382E+03 -0.87028090618E+02 -0.95347265939E+02  0.18067171659E+03  0.00000000000E+00 0.  1.
</event>
<event>
 7    1  0.5854318E-006  0.6800249E+02  0.7818608E-02  0.1443540E+00
          2   -1    0    0  502    0  0.00000000000E+00  0.00000000000E+00  0.67482039555E+02  0.67482039555E+02  0.00000000000E+00 0. -1.
          1   -1    0    0  501    0 -0.00000000000E+00 -0.00000000000E+00 -0.10066930384E+04  0.10066930384E+04  0.00000000000E+00 0. -1.
         25    2    1    2    0    0 -0.10103717198E+03  0.17033297392E+02 -0.22794273527E+03  0.27943121073E+03  0.12500107049E+03 0.  0.
          2    1    1    2  501    0  0.65902787861E+02 -0.46333606578E+01 -0.74292265920E+03  0.74585435779E+03  0.00000000000E+00 0. -1.
          1    1    1    2  502    0  0.35134384121E+02 -0.12399936734E+02  0.31654395579E+02  0.48889509489E+02  0.00000000000E+00 0. -1.
         22    1    3    3    0    0 -0.90508456361E+02  0.62845329650E+02 -0.12738243851E+03  0.16842684398E+03  0.00000000000E+00 0.  1.
         22    1    3    3    0    0 -0.10528715621E+02 -0.45812032258E+02 -0.10056029676E+03  0.11100436675E+03  0.00000000000E+00 0.  1.
</event>
<event>
 7    1  0.5854318E-006  0.2185846E+03  0.7818608E-02  0.1315218E+00
          2   -1    0    0  502    0  0.00000000000E+00  0.00000000000E+00  0.51891839537E+03  0.51891839537E+03  0.00000000000E+00 0. -1.
          1   -1    0    0  501    0 -0.00000000000E+00 -0.00000000000E+00 -0.10958599074E+04  0.10958599074E+04  0.00000000000E+00 0. -1.
         25    2    1    2    0    0  0.12339300366E+03  0.18148366844E+03  0.47437271248E+02  0.25697718167E+03  0.12499928773E+03 0.  0.
          2    1    1    2  501    0 -0.28984878884E+02  0.16019941819E+02 -0.95810920091E+03  0.95868138743E+03  0.00000000000E+00 0. -1.
          1    1    1    2  502    0 -0.94408124780E+02 -0.19750361026E+03  0.33373041767E+03  0.39911973362E+03  0.00000000000E+00 0. -1.
         22    1    3    3    0    0  0.44643271249E+02  0.16352462404E+03  0.15848652001E+02  0.17024836007E+03  0.00000000000E+00 0.  1.
         22    1    3    3    0    0  0.78749732414E+02  0.17959044400E+02  0.31588619247E+02  0.86728821605E+02  0.00000000000E+00 0.  1.
</event>
<event>
 7    1  0.5854318E-006  0.6507202E+02  0.7818608E-02  0.1403645E+00
          2   -1    0    0  502    0  0.00000000000E+00  0.00000000000E+00  0.29622412934E+03  0.29622412934E+03  0.00000000000E+00 0. -1.
          1   -1    0    0  501    0 -0.00000000000E+00 -0.00000000000E+00 -0.97852174079E+03  0.97852174079E+03  0.00000000000E+00 0. -1.
         25    2    1    2    0    0  0.28433180265E+02  0.54299058952E+01 -0.36987053408E+03  0.39149363151E+03  0.12500048764E+03 0.  0.
          2    1    1    2  501    0  0.16223697434E+01  0.52812471849E+02 -0.59288668715E+03  0.59523643459E+03  0.00000000000E+00 0. -1.
          1    1    1    2  502    0 -0.30055550009E+02 -0.58242377744E+02  0.28045960979E+03  0.28801580403E+03  0.00000000000E+00 0. -1.
         22    1    3    3    0    0  0.37239969126E+02 -0.55329789917E+02 -0.20398277133E+03  0.21460934731E+03  0.00000000000E+00 0. -1.
         22    1    3    3    0    0 -0.88067888606E+01  0.60759695813E+02 -0.16588776275E+03  0.17688428420E+03  0.00000000000E+00 0. -1.
</event>
<event>
 7    1  0.5854318E-006  0.1923864E+03  0.7818608E-02  0.1330651E+00
          2   -1    0    0  502    0  0.00000000000E+00  0.00000000000E+00  0.86521215701E+03  0.86521215701E+03  0.00000000000E+00 0. -1.
          1   -1    0    0  501    0 -0.00000000000E+00 -0.00000000000E+00 -0.10165505561E+04  0.10165505561E+04  0.00000000000E+00 0. -1.
         25    2    1    2    0    0  0.39684464825E+02  0.21231231568E+03 -0.38467654505E+03  0.45853194607E+03  0.12499650041E+03 0.  0.
          2    1    1    2  501    0 -0.30648156059E+02 -0.18078007638E+03 -0.58048043531E+03  0.60875141171E+03  0.00000000000E+00 0. -1.
          1    1    1    2  502    0 -0.90363087657E+01 -0.31532239300E+02  0.81381858129E+03  0.81447935532E+03  0.00000000000E+00 0. -1.
         22    1    3    3    0    0  0.21016146260E+02  0.47390572989E+02 -0.21505538104E+03  0.22121564530E+03  0.00000000000E+00 0. -1.
         22    1    3    3    0    0  0.18668318565E+02  0.16492174269E+03 -0.16962116401E+03  0.23731630077E+03  0.00000000000E+00 0. -1.
</event>
<event>
 7    1  0.5854318E-006  0.5916015E+02  0.7818608E-02  0.1536620E+00
          2   -1    0    0  502    0  0.00000000000E+00  0.00000000000E+00  0.13297151521E+04  0.13297151521E+04  0.00000000000E+00 0. -1.
          1   -1    0    0  501    0 -0.00000000000E+00 -0.00000000000E+00 -0.38784141382E+03  0.38784141382E+03  0.00000000000E+00 0. -1.
         25    2    1    2    0    0 -0.54409949328E+02 -0.52155234726E+02  0.28769676451E+03  0.32260577869E+03  0.12499779614E+03 0.  0.
          2    1    1    2  501    0  0.43459904487E+01  0.21953804976E+02 -0.36921366213E+03  0.36989131578E+03  0.00000000000E+00 0. -1.
          1    1    1    2  502    0  0.50063958879E+02  0.30201429751E+02  0.10233906359E+04  0.10250594714E+04  0.00000000000E+00 0. -1.
         22    1    3    3    0    0 -0.19494716174E+02  0.42858826674E+01 -0.65186744906E+01  0.20997758596E+02  0.00000000000E+00 0.  1.
         22    1    3    3    0    0 -0.34915233154E+02 -0.56441117394E+02  0.29421543900E+03  0.30160802009E+03  0.00000000000E+00 0.  1.
</event>
<event>
 7    1  0.5854318E-006  0.1234681E+03  0.7818608E-02  0.1391198E+00
          2   -1    0    0  502    0  0.00000000000E+00  0.00000000000E+00  0.50404027168E+03  0.50404027168E+03  0.00000000000E+00 0. -1.
          1   -1    0    0  501    0 -0.00000000000E+00 -0.00000000000E+00 -0.20118192244E+04  0.20118192244E+04  0.00000000000E+00 0. -1.
         25    2    1    2    0    0 -0.13152060957E+03 -0.43063696230E+02  0.99424308479E+02  0.21134064268E+03  0.12501008543E+03 0.  0.
          2    1    1    2  501    0  0.12255879694E+03  0.13656169401E+02 -0.19532351047E+04  0.19571240441E+04  0.00000000000E+00 0. -1.
          1    1    1    2  502    0  0.89618126330E+01  0.29407526829E+02  0.34603184357E+03  0.34739480924E+03  0.00000000000E+00 0. -1.
         22    1    3    3    0    0 -0.14914130535E+03 -0.42984305670E+02  0.56905033330E+02  0.16531473713E+03  0.00000000000E+00 0.  1.
         22    1    3    3    0    0  0.17620695779E+02 -0.79390559679E-01  0.42519275149E+02  0.46025905551E+02  0.00000000000E+00 0.  1.
</event>
<event>
 7    1  0.6070914E-006  0.6549228E+02  0.7818608E-02  0.1412474E+00
          2   -1    0    0  502    0  0.00000000000E+00  0.00000000000E+00  0.52533778526E+03  0.52533778526E+03  0.00000000000E+00 0. -1.
          1   -1    0    0  501    0 -0.00000000000E+00 -0.00000000000E+00 -0.15985289280E+04  0.15985289280E+04  0.00000000000E+00 0. -1.
         25    2    1    2    0    0  0.98354937579E+02  0.43259164482E+02 -0.42333671330E+03  0.45429675188E+03  0.12500606737E+03 0.  0.
          2    1    1    2  501    0 -0.49506321830E+02 -0.39494266357E+02 -0.11576677545E+04  0.11593986815E+04  0.00000000000E+00 0. -1.
          1    1    1    2  502    0 -0.48848615748E+02 -0.37648981250E+01  0.50781332503E+03  0.51017127986E+03  0.00000000000E+00 0. -1.
         22    1    3    3    0    0  0.12107442903E+03  0.56836496880E+02 -0.38611123068E+03  0.40862120259E+03  0.00000000000E+00 0.  1.
         22    1    3    3    0    0 -0.22719491454E+02 -0.13577332398E+02 -0.37225482620E+02  0.45675549293E+02  0.00000000000E+00 0.  1.
</event>
<event>
 7    1  0.5854318E-006  0.7140353E+02  0.7818608E-02  0.1391951E+00
          2   -1    0    0  502    0  0.00000000000E+00  0.00000000000E+00  0.15894599650E+03  0.15894599650E+03  0.00000000000E+00 0. -1.
          1   -1    0    0  501    0 -0.00000000000E+00 -0.00000000000E+00 -0.39076601724E+03  0.39076601724E+03  0.00000000000E+00 0. -1.
         25    2    1    2    0    0 -0.13536329835E+02 -0.11270468901E+03  0.16084055429E+02  0.16963779756E+03  0.12503082169E+03 0.  0.
          2    1    1    2  501    0 -0.55926349854E+01  0.52542389566E+02 -0.29601952945E+03  0.30069842381E+03  0.00000000000E+00 0. -1.
          1    1    1    2  502    0  0.19128964821E+02  0.60162299442E+02  0.48115453284E+02  0.79375792368E+02  0.00000000000E+00 0. -1.
         22    1    3    3    0    0  0.45273592914E+01 -0.11572725251E+03 -0.30346538948E+02  0.11972554607E+03  0.00000000000E+00 0.  1.
         22    1    3    3    0    0 -0.18063689127E+02  0.30225634995E+01  0.46430594377E+02  0.49912251494E+02  0.00000000000E+00 0.  1.
</event>
<event>
 7    1  0.5854318E-006  0.6654444E+02  0.7818608E-02  0.1398712E+00
          2   -1    0    0  502    0  0.00000000000E+00  0.00000000000E+00  0.27479864655E+04  0.27479864655E+04  0.00000000000E+00 0. -1.
          1   -1    0    0  501    0 -0.00000000000E+00 -0.00000000000E+00 -0.20094559779E+02  0.20094559779E+02  0.00000000000E+00 0. -1.
         25    2    1    2    0    0 -0.65047730491E+02  0.43099789397E-01  0.93926050102E+03  0.94976862075E+03  0.12497573804E+03 0.  0.
          2    1    1    2  501    0  0.17956322659E+02  0.50632676796E+02  0.36805152965E+02  0.65120785989E+02  0.00000000000E+00 0. -1.
          1    1    1    2  502    0  0.47091407832E+02 -0.50675776586E+02  0.17518262517E+04  0.17531916185E+04  0.00000000000E+00 0. -1.
         22    1    3    3    0    0 -0.61941741772E+02  0.46768918513E+02  0.77754860698E+03  0.78141278933E+03  0.00000000000E+00 0. -1.
         22    1    3    3    0    0 -0.31059887190E+01 -0.46725818724E+02  0.16171189404E+03  0.16835583143E+03  0.00000000000E+00 0. -1.
</event>
<event>
 7    1  0.5854318E-006  0.7869279E+02  0.7818608E-02  0.1405099E+00
          2   -1    0    0  502    0  0.00000000000E+00  0.00000000000E+00  0.12011326808E+04  0.12011326808E+04  0.00000000000E+00 0. -1.
          1   -1    0    0  501    0 -0.00000000000E+00 -0.00000000000E+00 -0.23657672402E+04  0.23657672402E+04  0.00000000000E+00 0. -1.
         25    2    1    2    0    0 -0.36645804186E+02  0.10164951692E+03  0.12637095542E+03  0.20801400500E+03  0.12499867458E+03 0.  0.
          2    1    1    2  501    0  0.11425992087E+00 -0.78601128352E+02 -0.23238298296E+04  0.23251587532E+04  0.00000000000E+00 0. -1.
          1    1    1    2  502    0  0.36531544265E+02 -0.23048388571E+02  0.10328243148E+04  0.10337271629E+04  0.00000000000E+00 0. -1.
         22    1    3    3    0    0 -0.47524708679E+02  0.12536077855E+03  0.12256825486E+03  0.18165048812E+03  0.00000000000E+00 0. -1.
         22    1    3    3    0    0  0.10878904494E+02 -0.23711261625E+02  0.38027005569E+01  0.26363516881E+02  0.00000000000E+00 0. -1.
</event>
<event>
 7    1  0.7936927E-006  0.7365548E+02  0.7818608E-02  0.1404140E+00
          2   -1    0    0  502    0  0.00000000000E+00  0.00000000000E+00  0.10988080674E+04  0.10988080674E+04  0.00000000000E+00 0. -1.
          1   -1    0    0  501    0 -0.00000000000E+00 -0.00000000000E+00 -0.64012653816E+03  0.64012653816E+03  0.00000000000E+00 0. -1.
         25    2    1    2    0    0  0.66508919144E+02 -0.36387626765E+02 -0.26355584265E+03  0.30138763269E+03  0.12500130895E+03 0.  0.
          2    1    1    2  501    0  0.65682600960E+01  0.46032136553E+02 -0.35487855495E+03  0.35791184445E+03  0.00000000000E+00 0. -1.
          1    1    1    2  502    0 -0.73077179240E+02 -0.96445097875E+01  0.10771159268E+04  0.10796351284E+04  0.00000000000E+00 0. -1.
         22    1    3    3    0    0  0.15742397348E+02 -0.69134725247E+02 -0.74210445420E+02  0.10263831409E+03  0.00000000000E+00 0. -1.
         22    1    3    3    0    0  0.50766521796E+02  0.32747098482E+02 -0.18934539723E+03  0.19874931860E+03  0.00000000000E+00 0. -1.
</event>
<event>
 7    1  0.5854318E-006  0.1970498E+03  0.7818608E-02  0.1276635E+00
          2   -1    0    0  502    0  0.00000000000E+00  0.00000000000E+00  0.53634908306E+03  0.53634908306E+03  0.00000000000E+00 0. -1.
          1   -1    0    0  501    0 -0.00000000000E+00 -0.00000000000E+00 -0.27428186519E+04  0.27428186519E+04  0.00000000000E+00 0. -1.
         25    2    1    2    0    0  0.17136569447E+03 -0.42936103792E+02 -0.62266667925E+03  0.65919982866E+03  0.12498364058E+03 0.  0.
          2    1    1    2  501    0  0.26437681094E+02  0.45417478603E+02 -0.20826585976E+04  0.20833215144E+04  0.00000000000E+00 0. -1.
          1    1    1    2  502    0 -0.19780337556E+03 -0.24813748115E+01  0.49885570795E+03  0.53664639192E+03  0.00000000000E+00 0. -1.
         22    1    3    3    0    0  0.94259253244E+02 -0.52224529081E+02 -0.18014955382E+03  0.20991919874E+03  0.00000000000E+00 0. -1.
         22    1    3    3    0    0  0.77106441226E+02  0.92884252889E+01 -0.44251712543E+03  0.44928062992E+03  0.00000000000E+00 0. -1.
</event>
<event>
 7    1  0.5854318E-006  0.1420726E+03  0.7818608E-02  0.1419042E+00
          2   -1    0    0  502    0  0.00000000000E+00  0.00000000000E+00  0.38543520230E+03  0.38543520230E+03  0.00000000000E+00 0. -1.
          1   -1    0    0  501    0 -0.00000000000E+00 -0.00000000000E+00 -0.80504185338E+03  0.80504185338E+03  0.00000000000E+00 0. -1.
         25    2    1    2    0    0  0.83743061613E+02  0.11245152434E+03  0.12607327204E+03  0.22622503386E+03  0.12500020131E+03 0.  0.
          2    1    1    2  501    0 -0.10117515545E+03 -0.99925526715E+02 -0.74769613078E+03  0.76109856586E+03  0.00000000000E+00 0. -1.
          1    1    1    2  502    0  0.17432093834E+02 -0.12525997627E+02  0.20201620766E+03  0.20315345596E+03  0.00000000000E+00 0. -1.
         22    1    3    3    0    0  0.16180510618E+02 -0.18000324913E+02 -0.98026363940E+01  0.26113450578E+02  0.00000000000E+00 0. -1.
         22    1    3    3    0    0  0.67562550994E+02  0.13045184926E+03  0.13587590844E+03  0.20011158328E+03  0.00000000000E+00 0. -1.
</event>
<event>
 7    1  0.5854318E-006  0.1537609E+03  0.7818608E-02  0.1372324E+00
          2   -1    0    0  502    0  0.00000000000E+00  0.00000000000E+00  0.45662027293E+02  0.45662027293E+02  0.00000000000E+00 0. -1.
          1   -1    0    0  501    0 -0.00000000000E+00 -0.00000000000E+00 -0.14252837758E+04  0.14252837758E+04  0.00000000000E+00 0. -1.
         25    2    1    2    0    0  0.13903740301E+03  0.38543378801E+02 -0.28406696811E+03  0.34225147872E+03  0.12500016332E+03 0.  0.
          2    1    1    2  501    0 -0.15523446535E+03 -0.14750904922E+02 -0.10877533611E+04  0.10988733790E+04  0.00000000000E+00 0. -1.
          1    1    1    2  502    0  0.16197062338E+02 -0.23792473880E+02 -0.78014192975E+01  0.29820945403E+02  0.00000000000E+00 0. -1.
         22    1    3    3    0    0  0.11737383782E+03  0.59627145621E+02 -0.28286140774E+03  0.31199774084E+03  0.00000000000E+00 0. -1.
         22    1    3    3    0    0  0.21663565191E+02 -0.21083766820E+02 -0.12055603718E+01  0.30253737883E+02  0.00000000000E+00 0. -1.
</event>
<event>
 7    1  0.5854318E-006  0.6890047E+02  0.7818608E-02  0.1398790E+00
          2   -1    0    0  502    0  0.00000000000E+00  0.00000000000E+00  0.11147429365E+04  0.11147429365E+04  0.00000000000E+00 0. -1.
          1   -1    0    0  501    0 -0.00000000000E+00 -0.00000000000E+00 -0.53429914268E+03  0.53429914268E+03  0.00000000000E+00 0. -1.
         25    2    1    2    0    0 -0.98076200195E+02 -0.48014370330E+02  0.52775626450E+02  0.17416670858E+03  0.12499781930E+03 0.  0.
          2    1    1    2  501    0  0.51807509340E+02 -0.21787168872E+01 -0.47101557876E+03  0.47386120359E+03  0.00000000000E+00 0. -1.
          1    1    1    2  502    0  0.46268690855E+02  0.50193087217E+02  0.99868374609E+03  0.10010141670E+04  0.00000000000E+00 0. -1.
         22    1    3    3    0    0 -0.47066796541E+01  0.11204281007E+02  0.62035068139E+02  0.63214226447E+02  0.00000000000E+00 0. -1.
         22    1    3    3    0    0 -0.93369520541E+02 -0.59218651337E+02 -0.92594416884E+01  0.11095248214E+03  0.00000000000E+00 0. -1.
</event>
<event>
 7    1  0.5854318E-006  0.3873263E+03  0.7818608E-02  0.1194644E+00
          2   -1    0    0  502    0  0.00000000000E+00  0.00000000000E+00  0.12640900364E+04  0.12640900364E+04  0.00000000000E+00 0. -1.
          1   -1    0    0  501    0 -0.00000000000E+00 -0.00000000000E+00 -0.16444197756E+04  0.16444197756E+04  0.00000000000E+00 0. -1.
         25    2    1    2    0    0  0.30586445510E+03 -0.22382362155E+03  0.86451882788E+03  0.95219134545E+03  0.12500190452E+03 0.  0.
          2    1    1    2  501    0  0.56204192942E+02  0.25944239464E+02 -0.14800718971E+04  0.14813658682E+04  0.00000000000E+00 0. -1.
          1    1    1    2  502    0 -0.36206864804E+03  0.19787938208E+03  0.23522332998E+03  0.47495259839E+03  0.00000000000E+00 0. -1.
         22    1    3    3    0    0  0.61200843144E+02 -0.10478600172E+03  0.34528637344E+03  0.36598952040E+03  0.00000000000E+00 0. -1.
         22    1    3    3    0    0  0.24466361196E+03 -0.11903761982E+03  0.51923245445E+03  0.58620182506E+03  0.00000000000E+00 0. -1.
</event>
<event>
 7    1  0.5854318E-006  0.9916519E+02  0.7818608E-02  0.1420072E+00
          2   -1    0    0  502    0  0.00000000000E+00  0.00000000000E+00  0.15489670458E+04  0.15489670458E+04  0.00000000000E+00 0. -1.
          1   -1    0    0  501    0 -0.00000000000E+00 -0.00000000000E+00 -0.17567832093E+02  0.17567832093E+02  0.00000000000E+00 0. -1.
         25    2    1    2    0    0  0.42721214407E+02  0.11304714949E+03  0.58756699487E+03  0.61275141517E+03  0.12499825262E+03 0.  0.
          2    1    1    2  501    0  0.35906085233E+01 -0.30298989428E+02  0.97678494566E+02  0.10233283701E+03  0.00000000000E+00 0. -1.
          1    1    1    2  502    0 -0.46311822931E+02 -0.82748160062E+02  0.84615372429E+03  0.85145062573E+03  0.00000000000E+00 0. -1.
         22    1    3    3    0    0  0.16878840975E+02  0.13344158534E+03  0.52612096456E+03  0.54304219111E+03  0.00000000000E+00 0.  1.
         22    1    3    3    0    0  0.25842373433E+02 -0.20394435849E+02  0.61446030309E+02  0.69709224059E+02  0.00000000000E+00 0.  1.
</event>
<event>
 7    1  0.5854318E-006  0.8761196E+02  0.7818608E-02  0.1390756E+00
          2   -1    0    0  502    0  0.00000000000E+00  0.00000000000E+00  0.11949492734E+03  0.11949492734E+03  0.00000000000E+00 0. -1.
          1   -1    0    0  501    0 -0.00000000000E+00 -0.00000000000E+00 -0.20082784101E+04  0.20082784101E+04  0.00000000000E+00 0. -1.
         25    2    1    2    0    0 -0.11348287630E+03 -0.54171896959E+02 -0.54735816375E+03  0.57536006348E+03  0.12500114238E+03 0.  0.
          2    1    1    2  501    0  0.43326503786E+02  0.36315367311E+01 -0.14288156720E+04  0.14294770368E+04  0.00000000000E+00 0. -1.
          1    1    1    2  502    0  0.70156372516E+02  0.50540360227E+02  0.87390353015E+02  0.12293623720E+03  0.00000000000E+00 0. -1.
         22    1    3    3    0    0  0.24657009639E+02 -0.25759492523E+02 -0.13090769045E+03  0.13567734888E+03  0.00000000000E+00 0. -1.
         22    1    3    3    0    0 -0.13813988594E+03 -0.28412404435E+02 -0.41645047329E+03  0.43968271460E+03  0.00000000000E+00 0. -1.
</event>
<event>
 7    1  0.5854318E-006  0.5035583E+02  0.7818608E-02  0.1450854E+00
          2   -1    0    0  502    0  0.00000000000E+00  0.00000000000E+00  0.84035296826E+03  0.84035296826E+03  0.00000000000E+00 0. -1.
          1   -1    0    0  501    0 -0.00000000000E+00 -0.00000000000E+00 -0.33158102170E+02  0.33158102170E+02  0.00000000000E+00 0. -1.
         25    2    1    2    0    0  0.66373039489E-01 -0.79211224419E+01  0.53465771955E+03  0.54913159233E+03  0.12499552007E+03 0.  0.
          2    1    1    2  501    0  0.37936016054E+02  0.36692937239E+02  0.54343813979E+01  0.53057001974E+02  0.00000000000E+00 0. -1.
          1    1    1    2  502    0 -0.38002389093E+02 -0.28771814797E+02  0.26710276514E+03  0.27132247612E+03  0.00000000000E+00 0. -1.
         22    1    3    3    0    0 -0.82842365976E+01 -0.65852866037E+02  0.26372763190E+03  0.27195126837E+03  0.00000000000E+00 0. -1.
         22    1    3    3    0    0  0.83506096371E+01  0.57931743595E+02  0.27093008765E+03  0.27718032396E+03  0.00000000000E+00 0. -1.
</event>
<event>
 7    1  0.5854318E-006  0.5567611E+02  0.7818608E-02  0.1453750E+00
          2   -1    0    0  502    0  0.00000000000E+00  0.00000000000E+00  0.17873474713E+03  0.17873474713E+03  0.00000000000E+00 0. -1.
          1   -1    0    0  501    0 -0.00000000000E+00 -0.00000000000E+00 -0.14526260464E+04  0.14526260464E+04  0.00000000000E+00 0. -1.
         25    2    1    2    0    0 -0.18946294993E+02  0.70102866850E+01 -0.62805816699E+03  0.64069647352E+03  0.12500721519E+03 0.  0.
          2    1    1    2  501    0  0.57445792658E+02 -0.24300539945E+02 -0.81445561087E+03  0.81684054589E+03  0.00000000000E+00 0. -1.
          1    1    1    2  502    0 -0.38499497666E+02  0.17290253260E+02  0.16862247856E+03  0.17382377414E+03  0.00000000000E+00 0. -1.
         22    1    3    3    0    0 -0.19881560266E+02 -0.53589183225E+02 -0.42377921280E+03  0.42761653172E+03  0.00000000000E+00 0. -1.
         22    1    3    3    0    0  0.93526527389E+00  0.60599469910E+02 -0.20427895419E+03  0.21307994180E+03  0.00000000000E+00 0. -1.
</event>
<event>
 7    1  0.5854318E-006  0.8023674E+02  0.7818608E-02  0.1469934E+00
          2   -1    0    0  502    0  0.00000000000E+00  0.00000000000E+00  0.12825111654E+04  0.12825111654E+04  0.00000000000E+00 0. -1.
          1   -1    0    0  501    0 -0.00000000000E+00 -0.00000000000E+00 -0.52343565352E+02  0.52343565352E+02  0.00000000000E+00 0. -1.
         25    2    1    2    0    0  0.58639410927E+02 -0.12298943187E+02  0.41612129199E+03  0.43860269640E+03  0.12500220451E+03 0.  0.
          2    1    1    2  501    0 -0.75916695233E+02  0.31788135570E+02  0.51597310328E+00  0.82304899043E+02  0.00000000000E+00 0. -1.
          1    1    1    2  502    0  0.17277284306E+02 -0.19489192384E+02  0.81353033500E+03  0.81394713535E+03  0.00000000000E+00 0. -1.
         22    1    3    3    0    0  0.68954592375E+02 -0.15767926140E+02  0.10106901053E+03  0.12336250725E+03  0.00000000000E+00 0.  1.
         22    1    3    3    0    0 -0.10315181448E+02  0.34689829540E+01  0.31505228145E+03  0.31524018915E+03  0.00000000000E+00 0.  1.
</event>
<event>
 7    1  0.5854318E-006  0.5342460E+02  0.7818608E-02  0.1462688E+00
          2   -1    0    0  502    0  0.00000000000E+00  0.00000000000E+00  0.44096731625E+02  0.44096731625E+02  0.00000000000E+00 0. -1.
          1   -1    0    0  501    0 -0.00000000000E+00 -0.00000000000E+00 -0.93924445008E+03  0.93924445008E+03  0.00000000000E+00 0. -1.
         25    2    1    2    0    0  0.41176302170E+02 -0.29607402064E+02 -0.29000335996E+03  0.31984305161E+03  0.12500217100E+03 0.  0.
          2    1    1    2  501    0 -0.33001259497E+02 -0.24683016594E+02 -0.60716163723E+03  0.60855861522E+03  0.00000000000E+00 0. -1.
          1    1    1    2  502    0 -0.81750426725E+01  0.54290418658E+02  0.20172787418E+01  0.54939514871E+02  0.00000000000E+00 0. -1.
         22    1    3    3    0    0  0.78027626546E+02 -0.27314636925E+02 -0.25819995150E+03  0.27111181245E+03  0.00000000000E+00 0. -1.
         22    1    3    3    0    0 -0.36851324377E+02 -0.22927651381E+01 -0.31803408468E+02  0.48731239164E+02  0.00000000000E+00 0. -1.
</event>
<event>
 7    1  0.5854318E-006  0.4514948E+02  0.7818608E-02  0.1588490E+00
          2   -1    0    0  502    0  0.00000000000E+00  0.00000000000E+00  0.25599440798E+03  0.25599440798E+03  0.00000000000E+00 0. -1.
          1   -1    0    0  501    0 -0.00000000000E+00 -0.00000000000E+00 -0.20717148777E+03  0.20717148777E+03  0.00000000000E+00 0. -1.
         25    2    1    2    0    0 -0.49942245434E+02  0.39838981085E+02  0.84287972431E+02  0.16373949612E+03  0.12499915200E+03 0.  0.
          2    1    1    2  501    0  0.13320238200E+02 -0.16402029792E+02 -0.16316499127E+03  0.16452741322E+03  0.00000000000E+00 0. -1.
          1    1    1    2  502    0  0.36622007234E+02 -0.23436951293E+02  0.12769993905E+03  0.13489898640E+03  0.00000000000E+00 0. -1.
         22    1    3    3    0    0 -0.16505130683E+02  0.34878412149E+02  0.11298855275E+03  0.11939571192E+03  0.00000000000E+00 0. -1.
         22    1    3    3    0    0 -0.33437114751E+02  0.49605689359E+01 -0.28700580317E+02  0.44343784205E+02  0.00000000000E+00 0. -1.
</event>
<event>
 7    1  0.6618523E-006  0.1159689E+03  0.7818608E-02  0.1351676E+00
          2   -1    0    0  502    0  0.00000000000E+00  0.00000000000E+00  0.10319223848E+04  0.10319223848E+04  0.00000000000E+00 0. -1.
          1   -1    0    0  501    0 -0.00000000000E+00 -0.00000000000E+00 -0.30645974788E+04  0.30645974788E+04  0.00000000000E+00 0. -1.
         25    2    1    2    0    0  0.29247955808E+02 -0.72468458903E+02 -0.39090226909E+03  0.41777564741E+03  0.12499914854E+03 0.  0.
          2    1    1    2  501    0 -0.64432249914E+02  0.10111183097E+03 -0.26584014245E+04  0.26611037655E+04  0.00000000000E+00 0. -1.
          1    1    1    2  502    0  0.35184294106E+02 -0.28643372066E+02  0.10166285996E+04  0.10176404507E+04  0.00000000000E+00 0. -1.
         22    1    3    3    0    0 -0.12065359498E+02 -0.30680447450E+02 -0.33516945980E+03  0.33678692008E+03  0.00000000000E+00 0.  1.
         22    1    3    3    0    0  0.41313315306E+02 -0.41788011453E+02 -0.55732809286E+02  0.80988727325E+02  0.00000000000E+00 0.  1.
</event>
<event>
 7    1  0.5854318E-006  0.1312748E+03  0.7818608E-02  0.1291392E+00
          2   -1    0    0  502    0  0.00000000000E+00  0.00000000000E+00  0.14355254192E+04  0.14355254192E+04  0.00000000000E+00 0. -1.
          1   -1    0    0  501    0 -0.00000000000E+00 -0.00000000000E+00 -0.69908450846E+02  0.69908450846E+02  0.00000000000E+00 0. -1.
         25    2    1    2    0    0  0.18562422099E+03 -0.43792177429E+02  0.77562165199E+03  0.80844767416E+03  0.12499835436E+03 0.  0.
          2    1    1    2  501    0 -0.12515608315E+03  0.11372767182E+02  0.25369259565E+02  0.12820680292E+03  0.00000000000E+00 0. -1.
          1    1    1    2  502    0 -0.60468137841E+02  0.32419410247E+02  0.56462605678E+03  0.56877939296E+03  0.00000000000E+00 0. -1.
         22    1    3    3    0    0  0.19884083570E+03 -0.22327362985E+02  0.64161414546E+03  0.67208994988E+03  0.00000000000E+00 0. -1.
         22    1    3    3    0    0 -0.13216614704E+02 -0.21464814444E+02  0.13400750653E+03  0.13635772427E+03  0.00000000000E+00 0. -1.
</event>
<event>
 7    1  0.5854318E-006  0.3425363E+03  0.7818608E-02  0.1085400E+00
          2   -1    0    0  502    0  0.00000000000E+00  0.00000000000E+00  0.13703073790E+04  0.13703073790E+04  0.00000000000E+00 0. -1.
          1   -1    0    0  501    0 -0.00000000000E+00 -0.00000000000E+00 -0.24376060958E+04  0.24376060958E+04  0.00000000000E+00 0. -1.
         25    2    1    2    0    0  0.29946066648E+03 -0.37302771654E+03  0.14905013749E+03  0.51639902085E+03  0.12500254866E+03 0.  0.
          2    1    1    2  501    0  0.12794752186E+02  0.26187530194E+03 -0.22195475546E+04  0.22349795808E+04  0.00000000000E+00 0. -1.
          1    1    1    2  502    0 -0.31225541866E+03  0.11115241460E+03  0.10031987003E+04  0.10565348731E+04  0.00000000000E+00 0. -1.
         22    1    3    3    0    0  0.13032768694E+03 -0.72751913821E+02  0.34130514793E+02  0.15311119811E+03  0.00000000000E+00 0.  1.
         22    1    3    3    0    0  0.16913297954E+03 -0.30027580272E+03  0.11491962270E+03  0.36328782273E+03  0.00000000000E+00 0.  1.
</event>
<event>
 7    1  0.5854318E-006  0.8288932E+02  0.7818608E-02  0.1449800E+00
          2   -1    0    0  502    0  0.00000000000E+00  0.00000000000E+00  0.10708417010E+04  0.10708417010E+04  0.00000000000E+00 0. -1.
          1   -1    0    0  501    0 -0.00000000000E+00 -0.00000000000E+00 -0.11418667851E+04  0.11418667851E+04  0.00000000000E+00 0. -1.
         25    2    1    2    0    0 -0.80058931023E+02  0.10211312887E+02  0.31940823654E+03  0.35236361088E+03  0.12499915743E+03 0.  0.
          2    1    1    2  501    0  0.80724791628E+02  0.18963834350E+02 -0.11235709138E+04  0.11266266983E+04  0.00000000000E+00 0. -1.
          1    1    1    2  502    0 -0.66586060498E+00 -0.29175147238E+02  0.73313759320E+03  0.73371817692E+03  0.00000000000E+00 0. -1.
         22    1    3    3    0    0 -0.10761075756E+03  0.28508906610E+02  0.27735622502E+03  0.29886336084E+03  0.00000000000E+00 0.  1.
         22    1    3    3    0    0  0.27551826536E+02 -0.18297593722E+02  0.42052011521E+02  0.53500250041E+02  0.00000000000E+00 0.  1.
</event>
<event>
 7    1  0.5854318E-006  0.7350692E+02  0.7818608E-02  0.1379717E+00
          2   -1    0    0  502    0  0.00000000000E+00  0.00000000000E+00  0.30696509899E+04  0.30696509899E+04  0.00000000000E+00 0. -1.
          1   -1    0    0  501    0 -0.00000000000E+00 -0.00000000000E+00 -0.21008382853E+02  0.21008382853E+02  0.00000000000E+00 0. -1.
         25    2    1    2    0    0  0.61922902485E+02 -0.87202045040E+02  0.94023079273E+03  0.95451461917E+03  0.12500228840E+03 0.  0.
          2    1    1    2  501    0 -0.54374292786E+02  0.15944786949E+02  0.47365437238E+02  0.73853128516E+02  0.00000000000E+00 0. -1.
          1    1    1    2  502    0 -0.75486096987E+01  0.71257258091E+02  0.20610463771E+04  0.20622916250E+04  0.00000000000E+00 0. -1.
         22    1    3    3    0    0  0.73616422965E+02 -0.19812218153E+02  0.26264330853E+03  0.27348383724E+03  0.00000000000E+00 0. -1.
         22    1    3    3    0    0 -0.11693520480E+02 -0.67389826887E+02  0.67758748420E+03  0.68103078193E+03  0.00000000000E+00 0. -1.
</event>
<event>
 7    1  0.5854318E-006  0.1466008E+03  0.7818608E-02  0.1208601E+00
          2   -1    0    0  502    0  0.00000000000E+00  0.00000000000E+00  0.32810324526E+03  0.32810324526E+03  0.00000000000E+00 0. -1.
          1   -1    0    0  501    0 -0.00000000000E+00 -0.00000000000E+00 -0.61093045759E+03  0.61093045759E+03  0.00000000000E+00 0. -1.
         25    2    1    2    0    0  0.30084119141E+02 -0.32743287185E+02 -0.23902094392E+02  0.13479943954E+03  0.12498960638E+03 0.  0.
          2    1    1    2  501    0 -0.16832616526E+03 -0.16051454773E+02 -0.49681435173E+03  0.52480076905E+03  0.00000000000E+00 0. -1.
          1    1    1    2  502    0  0.13824204612E+03  0.48794741958E+02  0.23788923379E+03  0.27943349425E+03  0.00000000000E+00 0. -1.
         22    1    3    3    0    0  0.70809582095E+02 -0.15782018062E+01  0.12485902772E+02  0.71919297866E+02  0.00000000000E+00 0.  1.
         22    1    3    3    0    0 -0.40725462954E+02 -0.31165085379E+02 -0.36387997165E+02  0.62880141676E+02  0.00000000000E+00 0.  1.
</event>
<event>
 7    1  0.5854318E-006  0.7652860E+02  0.7818608E-02  0.1494480E+00
          2   -1    0    0  502    0  0.00000000000E+00  0.00000000000E+00  0.94251562536E+03  0.94251562536E+03  0.00000000000E+00 0. -1.
          1   -1    0    0  501    0 -0.00000000000E+00 -0.00000000000E+00 -0.44279584056E+03  0.44279584056E+03  0.00000000000E+00 0. -1.
         25    2    1    2    0    0 -0.18067582676E+02  0.57458795908E+02 -0.44387872722E+02  0.14567950779E+03  0.12499713987E+03 0.  0.
          2    1    1    2  501    0  0.38548102737E+02 -0.67863576690E+02 -0.34323261080E+03  0.35199438402E+03  0.00000000000E+00 0. -1.
          1    1    1    2  502    0 -0.20480520061E+02  0.10404780783E+02  0.88734026832E+03  0.88763757410E+03  0.00000000000E+00 0. -1.
         22    1    3    3    0    0 -0.44253019395E+02 -0.15280971452E+02 -0.49586157723E+02  0.68195489967E+02  0.00000000000E+00 0. -1.
         22    1    3    3    0    0  0.26185436719E+02  0.72739767359E+02  0.51982850011E+01  0.77484017827E+02  0.00000000000E+00 0. -1.
</event>
<event>
 7    1  0.5854318E-006  0.2626318E+03  0.7818608E-02  0.1345592E+00
          2   -1    0    0  502    0  0.00000000000E+00  0.00000000000E+00  0.19500346950E+04  0.19500346950E+04  0.00000000000E+00 0. -1.
          1   -1    0    0  501    0 -0.00000000000E+00 -0.00000000000E+00 -0.37935506048E+03  0.37935506048E+03  0.00000000000E+00 0. -1.
         25    2    1    2    0    0  0.19917927170E+03 -0.19994418044E+03  0.10559469878E+04  0.11001351918E+04  0.12499336648E+03 0.  0.
          2    1    1    2  501    0 -0.18118114992E+03  0.18892554591E+03 -0.30915993267E+03  0.40509176114E+03  0.00000000000E+00 0. -1.
          1    1    1    2  502    0 -0.17998121781E+02  0.11018634538E+02  0.82389257935E+03  0.82416280248E+03  0.00000000000E+00 0. -1.
         22    1    3    3    0    0  0.16148907814E+03 -0.77292937096E+02  0.66446931090E+03  0.68816595790E+03  0.00000000000E+00 0.  1.
         22    1    3    3    0    0  0.37690193562E+02 -0.12265124335E+03  0.39147767692E+03  0.41196923394E+03  0.00000000000E+00 0.  1.
</event>
<event>
 7    1  0.5854318E-006  0.5114848E+02  0.7818608E-02  0.1488146E+00
          2   -1    0    0  502    0  0.00000000000E+00  0.00000000000E+00  0.13638792760E+04  0.13638792760E+04  0.00000000000E+00 0. -1.
          1   -1    0    0  501    0 -0.00000000000E+00 -0.00000000000E+00 -0.13532694672E+04  0.13532694672E+04  0.00000000000E+00 0. -1.
         25    2    1    2    0    0  0.26885269212E+02  0.74124722081E+02  0.11388355309E+03  0.18657797275E+03  0.12499833649E+03 0.  0.
          2    1    1    2  501    0  0.65729448887E+00 -0.51069582596E+02 -0.13161610988E+04  0.13171516891E+04  0.00000000000E+00 0. -1.
          1    1    1    2  502    0 -0.27542563701E+02 -0.23055139485E+02  0.12128873544E+04  0.12134190813E+04  0.00000000000E+00 0. -1.
         22    1    3    3    0    0  0.35766075296E+02  0.11142073971E+02 -0.16938485484E+02  0.41112896334E+02  0.00000000000E+00 0.  1.
         22    1    3    3    0    0 -0.88808060835E+01  0.62982648110E+02  0.13082203857E+03  0.14546507642E+03  0.00000000000E+00 0.  1.
</event>
<event>
 7    1  0.5854318E-006  0.1529356E+03  0.7818608E-02  0.1273688E+00
          2   -1    0    0  502    0  0.00000000000E+00  0.00000000000E+00  0.28491366575E+04  0.28491366575E+04  0.00000000000E+00 0. -1.
          1   -1    0    0  501    0 -0.00000000000E+00 -0.00000000000E+00 -0.25959053512E+03  0.25959053512E+03  0.00000000000E+00 0. -1.
         25    2    1    2    0    0 -0.12972629022E+03  0.58299779528E+02 -0.58700264846E+02  0.19823928690E+03  0.12500127643E+03 0.  0.
          2    1    1    2  501    0  0.16706919438E+03  0.49534521184E+00 -0.77275834492E+02  0.18407584218E+03  0.00000000000E+00 0. -1.
          1    1    1    2  502    0 -0.37342904156E+02 -0.58795124740E+02  0.27255222217E+04  0.27264120635E+04  0.00000000000E+00 0. -1.
         22    1    3    3    0    0 -0.28104061662E+02  0.80354685246E+02 -0.31327204600E+02  0.90708916160E+02  0.00000000000E+00 0.  1.
         22    1    3    3    0    0 -0.10162222856E+03 -0.22054905717E+02 -0.27373060246E+02  0.10753037074E+03  0.00000000000E+00 0.  1.
</event>
<event>
 7    1  0.5854318E-006  0.1040821E+03  0.7818608E-02  0.1287012E+00
          2   -1    0    0  502    0  0.00000000000E+00  0.00000000000E+00  0.15014817822E+04  0.15014817822E+04  0.00000000000E+00 0. -1.
          1   -1    0    0  501    0 -0.00000000000E+00 -0.00000000000E+00 -0.37723566999E+03  0.37723566999E+03  0.00000000000E+00 0. -1.
         25    2    1    2    0    0 -0.72109665579E+02  0.34127312404E+02  0.72005410551E+03  0.73516476341E+03  0.12499934872E+03 0.  0.
          2    1    1    2  501    0  0.89487617549E+02  0.54345992206E+02 -0.35956211334E+03  0.37449490505E+03  0.00000000000E+00 0. -1.
          1    1    1    2  502    0 -0.17377951970E+02 -0.88473304610E+02  0.76375412006E+03  0.76905778376E+03  0.00000000000E+00 0. -1.
         22    1    3    3    0    0  0.30469418675E+02  0.33718852919E+02  0.20140388410E+03  0.20646760290E+03  0.00000000000E+00 0.  1.
         22    1    3    3    0    0 -0.10257908425E+03  0.40845948460E+00  0.51865022141E+03  0.52869716051E+03  0.00000000000E+00 0.  1.
</event>
<event>
 7    1  0.5854318E-006  0.8395562E+02  0.7818608E-02  0.1383451E+00
          2   -1    0    0  502    0  0.00000000000E+00  0.00000000000E+00  0.11532047320E+03  0.11532047320E+03  0.00000000000E+00 0. -1.
          1   -1    0    0  501    0 -0.00000000000E+00 -0.00000000000E+00 -0.18646880397E+04  0.18646880397E+04  0.00000000000E+00 0. -1.
         25    2    1    2    0    0  0.48321161655E+02 -0.72885373961E+02 -0.10691193389E+04  0.10799485887E+04  0.12500232372E+03 0.  0.
          2    1    1    2  501    0  0.28545731999E+02  0.38747344787E+02 -0.77320473689E+03  0.77470109119E+03  0.00000000000E+00 0. -1.
          1    1    1    2  502    0 -0.76866893654E+02  0.34138029175E+02  0.92956509351E+02  0.12535883298E+03  0.00000000000E+00 0. -1.
         22    1    3    3    0    0  0.22659419355E+02 -0.10727556918E+03 -0.76571934327E+03  0.77352932051E+03  0.00000000000E+00 0.  1.
         22    1    3    3    0    0  0.25661742300E+02  0.34390195223E+02 -0.30339999566E+03  0.30641926818E+03  0.00000000000E+00 0.  1.
</event>
<event>
 7    1  0.5854318E-006  0.7568203E+02  0.7818608E-02  0.1389051E+00
          2   -1    0    0  502    0  0.00000000000E+00  0.00000000000E+00  0.35203188922E+03  0.35203188922E+03  0.00000000000E+00 0. -1.
          1   -1    0    0  501    0 -0.00000000000E+00 -0.00000000000E+00 -0.76932885993E+03  0.76932885993E+03  0.00000000000E+00 0. -1.
         25    2    1    2    0    0 -0.24157251621E+02 -0.29994641724E+02 -0.98438997210E+02  0.16369166063E+03  0.12498588821E+03 0.  0.
          2    1    1    2  501    0  0.19555679623E+02 -0.47130579995E+02 -0.63254873354E+03  0.63460351124E+03  0.00000000000E+00 0. -1.
          1    1    1    2  502    0  0.46015719981E+01  0.77125221719E+02  0.31369076003E+03  0.32306557728E+03  0.00000000000E+00 0. -1.
         22    1    3    3    0    0 -0.42630430994E+02 -0.54552705147E+01  0.15498072697E+02  0.45687020919E+02  0.00000000000E+00 0.  1.
         22    1    3    3    0    0  0.18473179373E+02 -0.24539371209E+02 -0.11393706991E+03  0.11800463972E+03  0.00000000000E+00 0.  1.
</event>
<event>
 7    1  0.5854318E-006  0.1217168E+03  0.7818608E-02  0.1276078E+00
          2   -1    0    0  502    0  0.00000000000E+00  0.00000000000E+00  0.99002312002E+03  0.99002312002E+03  0.00000000000E+00 0. -1.
          1   -1    0    0  501    0 -0.00000000000E+00 -0.00000000000E+00 -0.20899464523E+03  0.20899464523E+03  0.00000000000E+00 0. -1.
         25    2    1    2    0    0  0.44688350651E+02  0.73579801344E+02  0.14973373314E+02  0.15251299904E+03  0.12499990847E+03 0.  0.
          2    1    1    2  501    0  0.62130436622E+01 -0.14231733040E+03 -0.10139147892E+03  0.17485152685E+03  0.00000000000E+00 0. -1.
          1    1    1    2  502    0 -0.50901394314E+02  0.68737529057E+02  0.86744658040E+03  0.87165323936E+03  0.00000000000E+00 0. -1.
         22    1    3    3    0    0 -0.25501895922E+02 -0.55969947352E+00  0.39957883316E+02  0.47405615682E+02  0.00000000000E+00 0. -1.
         22    1    3    3    0    0  0.70190246573E+02  0.74139500817E+02 -0.24984510002E+02  0.10510738335E+03  0.00000000000E+00 0. -1.
</event>
<event>
 7    1  0.5854318E-006  0.5084862E+02  0.7818608E-02  0.1515472E+00
          2   -1    0    0  502    0  0.00000000000E+00  0.00000000000E+00  0.95736412122E+03  0.95736412122E+03  0.00000000000E+00 0. -1.
          1   -1    0    0  501    0 -0.00000000000E+00 -0.00000000000E+00 -0.21353329662E+03  0.21353329662E+03  0.00000000000E+00 0. -1.
         25    2    1    2    0    0 -0.23875102860E+02 -0.32499814384E+02  0.29226267039E+03  0.32042016015E+03  0.12500140824E+03 0.  0.
          2    1    1    2  501    0 -0.25497528514E+02  0.15729004517E+02 -0.19727773509E+03  0.19953954572E+03  0.00000000000E+00 0. -1.
          1    1    1    2  502    0  0.49372631374E+02  0.16770809867E+02  0.64884588930E+03  0.65093771197E+03  0.00000000000E+00 0. -1.
         22    1    3    3    0    0 -0.30377805377E+02  0.43135331160E+02  0.15254453934E+03  0.16141036006E+03  0.00000000000E+00 0. -1.
         22    1    3    3    0    0  0.65027025177E+01 -0.75635145544E+02  0.13971813105E+03  0.15900980009E+03  0.00000000000E+00 0. -1.
</event>
<event>
 7    1  0.5854318E-006  0.1351805E+03  0.7818608E-02  0.1284004E+00
          2   -1    0    0  502    0  0.00000000000E+00  0.00000000000E+00  0.16663052560E+04  0.16663052560E+04  0.00000000000E+00 0. -1.
          1   -1    0    0  501    0 -0.00000000000E+00 -0.00000000000E+00 -0.65769376877E+02  0.65769376877E+02  0.00000000000E+00 0. -1.
         25    2    1    2    0    0  0.63813582211E+01  0.68206111479E+02  0.11968574720E+04  0.12053152874E+04  0.12499735427E+03 0.  0.
          2    1    1    2  501    0 -0.83339019673E+01 -0.13959852887E+03  0.25819974463E+02  0.14221066861E+03  0.00000000000E+00 0. -1.
          1    1    1    2  502    0  0.19525437462E+01  0.71392417392E+02  0.37785843268E+03  0.38454867681E+03  0.00000000000E+00 0. -1.
         22    1    3    3    0    0 -0.58168879370E+01  0.84702951286E+02  0.11602352634E+04  0.11633375661E+04  0.00000000000E+00 0. -1.
         22    1    3    3    0    0  0.12198246158E+02 -0.16496839807E+02  0.36622208510E+02  0.41977721342E+02  0.00000000000E+00 0. -1.
</event>
<event>
 7    1  0.5854318E-006  0.3831905E+02  0.7818608E-02  0.1611312E+00
          2   -1    0    0  502    0  0.00000000000E+00  0.00000000000E+00  0.57314854617E+03  0.57314854617E+03  0.00000000000E+00 0. -1.
          1   -1    0    0  501    0 -0.00000000000E+00 -0.00000000000E+00 -0.20795542249E+03  0.20795542249E+03  0.00000000000E+00 0. -1.
         25    2    1    2    0    0  0.89650809516E+01 -0.57805482624E+02  0.25375315781E+03  0.28885550914E+03  0.12499997425E+03 0.  0.
          2    1    1    2  501    0 -0.11848856137E+02  0.36296686376E+02 -0.18809359761E+03  0.19192979522E+03  0.00000000000E+00 0. -1.
          1    1    1    2  502    0  0.28837751850E+01  0.21508796248E+02  0.29953356347E+03  0.30031866429E+03  0.00000000000E+00 0. -1.
         22    1    3    3    0    0  0.29112049285E+02 -0.86978778448E+02  0.12332222612E+03  0.15369186956E+03  0.00000000000E+00 0.  1.
         22    1    3    3    0    0 -0.20146968334E+02  0.29173295824E+02  0.13043093170E+03  0.13516363959E+03  0.00000000000E+00 0.  1.
</event>
<event>
 7    1  0.5854318E-006  0.8641111E+02  0.7818608E-02  0.1390031E+00
          2   -1    0    0  502    0  0.00000000000E+00  0.00000000000E+00  0.84346470118E+03  0.84346470118E+03  0.00000000000E+00 0. -1.
          1   -1    0    0  501    0 -0.00000000000E+00 -0.00000000000E+00 -0.11853649290E+03  0.11853649290E+03  0.00000000000E+00 0. -1.
         25    2    1    2    0    0 -0.67715488573E+02 -0.10240506620E+03  0.20285611247E+03  0.26804471712E+03  0.12500073212E+03 0.  0.
          2    1    1    2  501    0  0.36588368560E+02  0.25046758339E+02 -0.77137204528E+02  0.88973013547E+02  0.00000000000E+00 0. -1.
          1    1    1    2  502    0  0.31127120013E+02  0.77358307865E+02  0.59920930033E+03  0.60498346341E+03  0.00000000000E+00 0. -1.
         22    1    3    3    0    0 -0.39205228231E+02 -0.35681992899E+02  0.43683632193E+00  0.53013633755E+02  0.00000000000E+00 0.  1.
         22    1    3    3    0    0 -0.28510260342E+02 -0.66723073305E+02  0.20241927615E+03  0.21503108336E+03  0.00000000000E+00 0.  1.
</event>
<event>
 7    1  0.5854318E-006  0.6506936E+02  0.7818608E-02  0.1485487E+00
          2   -1    0    0  502    0  0.00000000000E+00  0.00000000000E+00  0.74191784457E+03  0.74191784457E+03  0.00000000000E+00 0. -1.
          1   -1    0    0  501    0 -0.00000000000E+00 -0.00000000000E+00 -0.37469309414E+02  0.37469309414E+02  0.00000000000E+00 0. -1.
         25    2    1    2    0    0  0.28972403245E+02 -0.44503773402E+02  0.18592626175E+03  0.23022707762E+03  0.12496378062E+03 0.  0.
          2    1    1    2  501    0 -0.19180433614E+02 -0.21435906781E+02  0.25255291418E+01  0.28874996633E+02  0.00000000000E+00 0. -1.
          1    1    1    2  502    0 -0.97919696306E+01  0.65939680182E+02  0.51599674426E+03  0.52028507972E+03  0.00000000000E+00 0. -1.
         22    1    3    3    0    0  0.12539456667E+01 -0.84138230941E+02  0.92663386793E+02  0.12516915570E+03  0.00000000000E+00 0.  1.
         22    1    3    3    0    0  0.27718457578E+02  0.39634457540E+02  0.93262874954E+02  0.10505792193E+03  0.00000000000E+00 0.  1.
</event>
<event>
 7    1  0.5854318E-006  0.6009803E+02  0.7818608E-02  0.1461552E+00
          2   -1    0    0  502    0  0.00000000000E+00  0.00000000000E+00  0.54359437676E+03  0.54359437676E+03  0.00000000000E+00 0. -1.
          1   -1    0    0  501    0 -0.00000000000E+00 -0.00000000000E+00 -0.11343977761E+03  0.11343977761E+03  0.00000000000E+00 0. -1.
         25    2    1    2    0    0 -0.45343237825E+02 -0.78296365654E+02  0.81860286614E+02  0.17467952452E+03  0.12500199866E+03 0.  0.
          2    1    1    2  501    0  0.36612043538E+01  0.36755488976E+02 -0.59664780450E+02  0.70173046202E+02  0.00000000000E+00 0. -1.
          1    1    1    2  502    0  0.41682033472E+02  0.41540876678E+02  0.40795909299E+03  0.41218158365E+03  0.00000000000E+00 0. -1.
         22    1    3    3    0    0 -0.81136627858E+02 -0.43349758845E+02  0.84051254435E+02  0.12460725237E+03  0.00000000000E+00 0.  1.
         22    1    3    3    0    0  0.35793390033E+02 -0.34946606809E+02 -0.21909678210E+01  0.50072272142E+02  0.00000000000E+00 0.  1.
</event>
<event>
 7    1  0.5854318E-006  0.1268522E+03  0.7818608E-02  0.1356209E+00
          2   -1    0    0  502    0  0.00000000000E+00  0.00000000000E+00  0.30017458575E+03  0.30017458575E+03  0.00000000000E+00 0. -1.
          1   -1    0    0  501    0 -0.00000000000E+00 -0.00000000000E+00 -0.29432258917E+04  0.29432258917E+04  0.00000000000E+00 0. -1.
         25    2    1    2    0    0  0.17622794931E+02 -0.15340157469E+03 -0.73350882495E+03  0.75993581025E+03  0.12499853358E+03 0.  0.
          2    1    1    2  501    0 -0.28917087289E+02  0.27510697438E+02 -0.21823939185E+04  0.21827588625E+04  0.00000000000E+00 0. -1.
          1    1    1    2  502    0  0.11294292358E+02  0.12589087725E+03  0.27285143751E+03  0.30070580468E+03  0.00000000000E+00 0. -1.
         22    1    3    3    0    0  0.56388592478E+02 -0.14862941949E+03 -0.61167782590E+03  0.63199694651E+03  0.00000000000E+00 0. -1.
         22    1    3    3    0    0 -0.38765797547E+02 -0.47721551964E+01 -0.12183099905E+03  0.12793886374E+03  0.00000000000E+00 0. -1.
</event>
<event>
 7    1  0.5854318E-006  0.1378256E+03  0.7818608E-02  0.1333357E+00
          2   -1    0    0  502    0  0.00000000000E+00  0.00000000000E+00  0.23089439284E+04  0.23089439284E+04  0.00000000000E+00 0. -1.
          1   -1    0    0  501    0 -0.00000000000E+00 -0.00000000000E+00 -0.15330290671E+04  0.15330290671E+04  0.00000000000E+00 0. -1.
         25    2    1    2    0    0 -0.12883121097E+03  0.12649611654E+03  0.15992862897E+03  0.27166346169E+03  0.12500048652E+03 0.  0.
          2    1    1    2  501    0  0.90975808231E+02 -0.10270118095E+03 -0.14737361265E+04  0.14801088814E+04  0.00000000000E+00 0. -1.
          1    1    1    2  502    0  0.37855402738E+02 -0.23794935593E+02  0.20897223588E+04  0.20902006524E+04  0.00000000000E+00 0. -1.
         22    1    3    3    0    0 -0.17825974100E+02  0.27448819672E+02  0.10995748708E+03  0.11472511503E+03  0.00000000000E+00 0. -1.
         22    1    3    3    0    0 -0.11100523687E+03  0.99047296870E+02  0.49971141898E+02  0.15693834666E+03  0.00000000000E+00 0. -1.
</event>
<event>
 7    1  0.5854318E-006  0.6111414E+02  0.7818608E-02  0.1419482E+00
          2   -1    0    0  502    0  0.00000000000E+00  0.00000000000E+00  0.11311449338E+04  0.11311449338E+04  0.00000000000E+00 0. -1.
          1   -1    0    0  501    0 -0.00000000000E+00 -0.00000000000E+00 -0.99776027757E+02  0.99776027757E+02  0.00000000000E+00 0. -1.
         25    2    1    2    0    0 -0.50271317054E+02  0.92426746864E+02  0.53194007077E+03  0.55646660491E+03  0.12499973857E+03 0.  0.
          2    1    1    2  501    0  0.17908950713E+02 -0.46396415586E+02 -0.78969817312E+02  0.93325183853E+02  0.00000000000E+00 0. -1.
          1    1    1    2  502    0  0.32362366342E+02 -0.46030331278E+02  0.57839865258E+03  0.58112917278E+03  0.00000000000E+00 0. -1.
         22    1    3    3    0    0 -0.44938129910E+02  0.70913357847E+02  0.52714620018E+03  0.53378952425E+03  0.00000000000E+00 0. -1.
         22    1    3    3    0    0 -0.53331871443E+01  0.21513389017E+02  0.47938705905E+01  0.22677080662E+02  0.00000000000E+00 0. -1.
</event>
<event>
 7    1  0.5854318E-006  0.1942651E+03  0.7818608E-02  0.1233206E+00
          2   -1    0    0  502    0  0.00000000000E+00  0.00000000000E+00  0.35784897912E+04  0.35784897912E+04  0.00000000000E+00 0. -1.
          1   -1    0    0  501    0 -0.00000000000E+00 -0.00000000000E+00 -0.84815906698E+02  0.84815906698E+02  0.00000000000E+00 0. -1.
         25    2    1    2    0    0  0.11610551362E+03 -0.10314478106E+03  0.96780617218E+03  0.98812638445E+03  0.12500251432E+03 0.  0.
          2    1    1    2  501    0  0.80008283345E+02  0.17885371416E+02 -0.46289217519E+02  0.94148306268E+02  0.00000000000E+00 0. -1.
          1    1    1    2  502    0 -0.19611379697E+03  0.85259409639E+02  0.25721569298E+04  0.25810310072E+04  0.00000000000E+00 0. -1.
         22    1    3    3    0    0  0.46625037159E+02  0.25501913824E+02  0.25427355084E+03  0.25976774310E+03  0.00000000000E+00 0. -1.
         22    1    3    3    0    0  0.69480476463E+02 -0.12864669488E+03  0.71353262134E+03  0.72835864135E+03  0.00000000000E+00 0. -1.
</event>
<event>
 7    1  0.5854318E-006  0.3256823E+03  0.7818608E-02  0.1208887E+00
          2   -1    0    0  502    0  0.00000000000E+00  0.00000000000E+00  0.58070428387E+03  0.58070428387E+03  0.00000000000E+00 0. -1.
          1   -1    0    0  501    0 -0.00000000000E+00 -0.00000000000E+00 -0.49588664459E+03  0.49588664459E+03  0.00000000000E+00 0. -1.
         25    2    1    2    0    0  0.33112312300E+03 -0.11330796217E+03  0.30290057214E+03  0.47943221186E+03  0.12500108918E+03 0.  0.
          2    1    1    2  501    0 -0.44894712323E+02  0.44338626699E+02 -0.28776733199E+03  0.29460394834E+03  0.00000000000E+00 0. -1.
          1    1    1    2  502    0 -0.28622841067E+03  0.68969335474E+02  0.69684399134E+02  0.30255476826E+03  0.00000000000E+00 0. -1.
         22    1    3    3    0    0  0.20804676012E+03 -0.10463784812E+03  0.12903741637E+03  0.26623896874E+03  0.00000000000E+00 0.  1.
         22    1    3    3    0    0  0.12307636287E+03 -0.86701140566E+01  0.17386315577E+03  0.21319324312E+03  0.00000000000E+00 0.  1.
</event>
<event>
 7    1  0.5854318E-006  0.2402450E+02  0.7818608E-02  0.1685507E+00
          2   -1    0    0  502    0  0.00000000000E+00  0.00000000000E+00  0.11941614596E+03  0.11941614596E+03  0.00000000000E+00 0. -1.
          1   -1    0    0  501    0 -0.00000000000E+00 -0.00000000000E+00 -0.50075118855E+03  0.50075118855E+03  0.00000000000E+00 0. -1.
         25    2    1    2    0    0  0.27953116098E+02 -0.31658876488E+02 -0.44088603384E+02  0.13912245212E+03  0.12501036187E+03 0.  0.
          2    1    1    2  501    0 -0.21838512087E+02  0.97537277448E+01 -0.40698730832E+03  0.40768949575E+03  0.00000000000E+00 0. -1.
          1    1    1    2  502    0 -0.61146040109E+01  0.21905148743E+02  0.69740869118E+02  0.73355386639E+02  0.00000000000E+00 0. -1.
         22    1    3    3    0    0  0.54693886338E+02  0.91270514896E+01 -0.65533843554E+02  0.85845261504E+02  0.00000000000E+00 0. -1.
         22    1    3    3    0    0 -0.26740770240E+02 -0.40785927977E+02  0.21445240170E+02  0.53277190616E+02  0.00000000000E+00 0. -1.
</event>
<event>
 7    1  0.6200054E-006  0.1030112E+03  0.7818608E-02  0.1319325E+00
          2   -1    0    0  502    0  0.00000000000E+00  0.00000000000E+00  0.19430604176E+04  0.19430604176E+04  0.00000000000E+00 0. -1.
          1   -1    0    0  501    0 -0.00000000000E+00 -0.00000000000E+00 -0.13738699261E+04  0.13738699261E+04  0.00000000000E+00 0. -1.
         25    2    1    2    0    0  0.13500690951E+03 -0.82811136386E+02 -0.11010874862E+03  0.22985679491E+03  0.12500263884E+03 0.  0.
          2    1    1    2  501    0 -0.67692228991E+02  0.75310713724E+02 -0.12011470347E+04  0.12054078731E+04  0.00000000000E+00 0. -1.
          1    1    1    2  502    0 -0.67314680518E+02  0.75004226619E+01  0.18804462749E+04  0.18816656757E+04  0.00000000000E+00 0. -1.
         22    1    3    3    0    0  0.13054032829E+03 -0.35546844517E+02 -0.12059362832E+03  0.18123790623E+03  0.00000000000E+00 0. -1.
         22    1    3    3    0    0  0.44665812212E+01 -0.47264291869E+02  0.10484879696E+02  0.48618888674E+02  0.00000000000E+00 0. -1.
</event>
<event>
 7    1  0.5854318E-006  0.6187458E+02  0.7818608E-02  0.1466062E+00
          2   -1    0    0  502    0  0.00000000000E+00  0.00000000000E+00  0.23990747359E+04  0.23990747359E+04  0.00000000000E+00 0. -1.
          1   -1    0    0  501    0 -0.00000000000E+00 -0.00000000000E+00 -0.11063976176E+03  0.11063976176E+03  0.00000000000E+00 0. -1.
         25    2    1    2    0    0 -0.46897524246E+02 -0.38183081421E+02  0.13211293663E+03  0.19166534440E+03  0.12499780290E+03 0.  0.
          2    1    1    2  501    0  0.27783936120E+02 -0.20832228575E+02 -0.76684567569E+02  0.84181065311E+02  0.00000000000E+00 0. -1.
          1    1    1    2  502    0  0.19113588126E+02  0.59015309996E+02  0.22330066051E+04  0.22338680880E+04  0.00000000000E+00 0. -1.
         22    1    3    3    0    0  0.27931876304E+02 -0.54429175917E+02  0.70800954527E+02  0.93570829145E+02  0.00000000000E+00 0.  1.
         22    1    3    3    0    0 -0.74829400549E+02  0.16246094496E+02  0.61311982107E+02  0.98094515254E+02  0.00000000000E+00 0.  1.
</event>
<event>
 7    1  0.5854318E-006  0.8749474E+02  0.7818608E-02  0.1329449E+00
          2   -1    0    0  502    0  0.00000000000E+00  0.00000000000E+00  0.75319114746E+02  0.75319114746E+02  0.00000000000E+00 0. -1.
          1   -1    0    0  501    0 -0.00000000000E+00 -0.00000000000E+00 -0.37131519130E+03  0.37131519130E+03  0.00000000000E+00 0. -1.
         25    2    1    2    0    0 -0.21227512527E+02  0.22382122281E+01 -0.69643137557E+02  0.14467579748E+03  0.12500121153E+03 0.  0.
          2    1    1    2  501    0  0.20415832587E+02 -0.89729184826E+02 -0.18182389951E+03  0.20378435480E+03  0.00000000000E+00 0. -1.
          1    1    1    2  502    0  0.81167994012E+00  0.87490972598E+02 -0.44529039488E+02  0.98174153769E+02  0.00000000000E+00 0. -1.
         22    1    3    3    0    0 -0.13391419278E+02 -0.46722284542E+02 -0.80390194044E+02  0.93940860554E+02  0.00000000000E+00 0. -1.
         22    1    3    3    0    0 -0.78360932492E+01  0.48960496770E+02  0.10747056487E+02  0.50734936922E+02  0.00000000000E+00 0. -1.
</event>
<event>
 7    1  0.5854318E-006  0.7006233E+02  0.7818608E-02  0.1510454E+00
          2   -1    0    0  502    0  0.00000000000E+00  0.00000000000E+00  0.11132369709E+04  0.11132369709E+04  0.00000000000E+00 0. -1.
          1   -1    0    0  501    0 -0.00000000000E+00 -0.00000000000E+00 -0.34760314090E+03  0.34760314090E+03  0.00000000000E+00 0. -1.
         25    2    1    2    0    0 -0.48961332795E+02  0.29153084196E+02 -0.17632465068E+03  0.22354003237E+03  0.12503059309E+03 0.  0.
          2    1    1    2  501    0  0.71213476668E+02 -0.25876867047E+02 -0.13782676431E+03  0.15728060423E+03  0.00000000000E+00 0. -1.
          1    1    1    2  502    0 -0.22252143873E+02 -0.32762171491E+01  0.10797852450E+04  0.10800194752E+04  0.00000000000E+00 0. -1.
         22    1    3    3    0    0  0.19222559817E+02  0.45374644535E+01 -0.14193969191E+03  0.14330726265E+03  0.00000000000E+00 0. -1.
         22    1    3    3    0    0 -0.68183892612E+02  0.24615619743E+02 -0.34384958768E+02  0.80232769717E+02  0.00000000000E+00 0. -1.
</event>
<event>
 7    1  0.5854318E-006  0.2744571E+03  0.7818608E-02  0.1257236E+00
          2   -1    0    0  502    0  0.00000000000E+00  0.00000000000E+00  0.68674632100E+03  0.68674632100E+03  0.00000000000E+00 0. -1.
          1   -1    0    0  501    0 -0.00000000000E+00 -0.00000000000E+00 -0.12604723495E+04  0.12604723495E+04  0.00000000000E+00 0. -1.
         25    2    1    2    0    0  0.24413965720E+03 -0.94579719443E+02 -0.15790206363E+03  0.33031536776E+03  0.12500273970E+03 0.  0.
          2    1    1    2  501    0 -0.55851979548E+01 -0.45214340282E+02 -0.98398283666E+03  0.98503693020E+03  0.00000000000E+00 0. -1.
          1    1    1    2  502    0 -0.23855445924E+03  0.13979405973E+03  0.56815887179E+03  0.63186637255E+03  0.00000000000E+00 0. -1.
         22    1    3    3    0    0  0.99764444857E+02 -0.42920497560E+02  0.21997641283E+01  0.10862758642E+03  0.00000000000E+00 0.  1.
         22    1    3    3    0    0  0.14437521234E+03 -0.51659221884E+02 -0.16010182776E+03  0.22168778134E+03  0.00000000000E+00 0.  1.
</event>
<event>
 7    1  0.5854318E-006  0.8669825E+02  0.7818608E-02  0.1320741E+00
          2   -1    0    0  502    0  0.00000000000E+00  0.00000000000E+00  0.77985104941E+03  0.77985104941E+03  0.00000000000E+00 0. -1.
          1   -1    0    0  501    0 -0.00000000000E+00 -0.00000000000E+00 -0.40551614892E+03  0.40551614892E+03  0.00000000000E+00 0. -1.
         25    2    1    2    0    0 -0.57422913276E+02 -0.95968504920E+02  0.28573244349E+02  0.17013583440E+03  0.12498970737E+03 0.  0.
          2    1    1    2  501    0 -0.26898730223E+02  0.74772597783E+02 -0.32718237507E+03  0.33669391088E+03  0.00000000000E+00 0. -1.
          1    1    1    2  502    0  0.84321643498E+02  0.21195907137E+02  0.67294403122E+03  0.67853745305E+03  0.00000000000E+00 0. -1.
         22    1    3    3    0    0  0.17332724852E+02  0.82415736922E+01  0.36923875617E+02  0.41613933704E+02  0.00000000000E+00 0.  1.
         22    1    3    3    0    0 -0.74755638128E+02 -0.10421007861E+03 -0.83506312678E+01  0.12852190070E+03  0.00000000000E+00 0.  1.
</event>
<event>
 7    1  0.5854318E-006  0.4505251E+02  0.7818608E-02  0.1478202E+00
          2   -1    0    0  502    0  0.00000000000E+00  0.00000000000E+00  0.25383709547E+03  0.25383709547E+03  0.00000000000E+00 0. -1.
          1   -1    0    0  501    0 -0.00000000000E+00 -0.00000000000E+00 -0.11050647789E+04  0.11050647789E+04  0.00000000000E+00 0. -1.
         25    2    1    2    0    0 -0.26853034257E+02 -0.31121406296E+00  0.17287403434E+02  0.12901339623E+03  0.12499767912E+03 0.  0.
          2    1    1    2  501    0  0.13117691372E+02 -0.43100520114E+02 -0.10458405424E+04  0.10468104742E+04  0.00000000000E+00 0. -1.
          1    1    1    2  502    0  0.13735342885E+02  0.43411734177E+02  0.17732545561E+03  0.18307800391E+03  0.00000000000E+00 0. -1.
         22    1    3    3    0    0 -0.39594030968E+02  0.39506228894E+02 -0.31955718437E+02  0.64417368392E+02  0.00000000000E+00 0. -1.
         22    1    3    3    0    0  0.12740996711E+02 -0.39817442957E+02  0.49243121870E+02  0.64596027837E+02  0.00000000000E+00 0. -1.
</event>
<event>
 7    1  0.5854318E-006  0.1065085E+03  0.7818608E-02  0.1442460E+00
          2   -1    0    0  502    0  0.00000000000E+00  0.00000000000E+00  0.17628448055E+04  0.17628448055E+04  0.00000000000E+00 0. -1.
          1   -1    0    0  501    0 -0.00000000000E+00 -0.00000000000E+00 -0.17674235865E+03  0.17674235865E+03  0.00000000000E+00 0. -1.
         25    2    1    2    0    0  0.76185986176E+02 -0.39008030659E+02  0.95352337122E+03  0.96548305272E+03  0.12499909871E+03 0.  0.
          2    1    1    2  501    0 -0.88895548907E+02  0.59343261388E+02 -0.15383678956E+03  0.18732271382E+03  0.00000000000E+00 0. -1.
          1    1    1    2  502    0  0.12709562731E+02 -0.20335230729E+02  0.78641586518E+03  0.78678139760E+03  0.00000000000E+00 0. -1.
         22    1    3    3    0    0  0.85278345376E+02 -0.34579253594E+02  0.35061922029E+03  0.36249408078E+03  0.00000000000E+00 0. -1.
         22    1    3    3    0    0 -0.90923592005E+01 -0.44287770655E+01  0.60290415093E+03  0.60298897193E+03  0.00000000000E+00 0. -1.
</event>
<event>
 7    1  0.5854318E-006  0.7301046E+02  0.7818608E-02  0.1414461E+00
          2   -1    0    0  502    0  0.00000000000E+00  0.00000000000E+00  0.16870801865E+04  0.16870801865E+04  0.00000000000E+00 0. -1.
          1   -1    0    0  501    0 -0.00000000000E+00 -0.00000000000E+00 -0.14823529827E+04  0.14823529827E+04  0.00000000000E+00 0. -1.
         25    2    1    2    0    0  0.70129347343E+02  0.10704897455E+02 -0.17119068486E+02  0.14474497394E+03  0.12500129914E+03 0.  0.
          2    1    1    2  501    0 -0.45028521565E+01 -0.43040804216E+02 -0.14002621754E+04  0.14009307429E+04  0.00000000000E+00 0. -1.
          1    1    1    2  502    0 -0.65626495186E+02  0.32335906762E+02  0.16221084477E+04  0.16237574523E+04  0.00000000000E+00 0. -1.
         22    1    3    3    0    0  0.77538975451E+02 -0.39341855854E+02  0.96926003432E+01  0.87487261002E+02  0.00000000000E+00 0.  1.
         22    1    3    3    0    0 -0.74096281085E+01  0.50046753309E+02 -0.26811668829E+02  0.57257712938E+02  0.00000000000E+00 0.  1.
</event>
<event>
 7    1  0.5854318E-006  0.7221347E+02  0.7818608E-02  0.1373888E+00
          2   -1    0    0  502    0  0.00000000000E+00  0.00000000000E+00  0.21211454792E+04  0.21211454792E+04  0.00000000000E+00 0. -1.
          1   -1    0    0  501    0 -0.00000000000E+00 -0.00000000000E+00 -0.27537202531E+03  0.27537202531E+03  0.00000000000E+00 0. -1.
         25    2    1    2    0    0 -0.28945310825E+02 -0.78353809277E+02 -0.39592523238E+02  0.15546772312E+03  0.12500197834E+03 0.  0.
          2    1    1    2  501    0 -0.36712868141E+02  0.48088476798E+02 -0.17204302755E+03  0.18237088479E+03  0.00000000000E+00 0. -1.
          1    1    1    2  502    0  0.65658178966E+02  0.30265332479E+02  0.20574090047E+04  0.20586788966E+04  0.00000000000E+00 0. -1.
         22    1    3    3    0    0 -0.62324538817E+02 -0.93135378926E+02 -0.39913351139E+02  0.11896059241E+03  0.00000000000E+00 0.  1.
         22    1    3    3    0    0  0.33379227992E+02  0.14781569649E+02  0.32082790132E+00  0.36507130717E+02  0.00000000000E+00 0.  1.
</event>
<event>
 7    1  0.5854318E-006  0.6692722E+02  0.7818608E-02  0.1383640E+00
          2   -1    0    0  502    0  0.00000000000E+00  0.00000000000E+00  0.10330100935E+04  0.10330100935E+04  0.00000000000E+00 0. -1.
          1   -1    0    0  501    0 -0.00000000000E+00 -0.00000000000E+00 -0.11048300299E+03  0.11048300299E+03  0.00000000000E+00 0. -1.
         25    2    1    2    0    0 -0.58529060538E+02  0.92138634547E+02  0.10851782196E+03  0.19828469839E+03  0.12500210010E+03 0.  0.
          2    1    1    2  501    0  0.61240683671E+00 -0.60276501185E+02 -0.50217971699E+02  0.78456843671E+02  0.00000000000E+00 0. -1.
          1    1    1    2  502    0  0.57916653701E+02 -0.31862133362E+02  0.86422724026E+03  0.86675155444E+03  0.00000000000E+00 0. -1.
         22    1    3    3    0    0 -0.40585693880E+02 -0.24300185717E+02  0.22322976656E+02  0.52306910254E+02  0.00000000000E+00 0. -1.
         22    1    3    3    0    0 -0.17943366658E+02  0.11643882026E+03  0.86194845309E+02  0.14597778814E+03  0.00000000000E+00 0. -1.
</event>
<event>
 7    1  0.5854318E-006  0.2095720E+03  0.7818608E-02  0.1217947E+00
          2   -1    0    0  502    0  0.00000000000E+00  0.00000000000E+00  0.20083892737E+04  0.20083892737E+04  0.00000000000E+00 0. -1.
          1   -1    0    0  501    0 -0.00000000000E+00 -0.00000000000E+00 -0.18045082605E+04  0.18045082605E+04  0.00000000000E+00 0. -1.
         25    2    1    2    0    0  0.14897918273E+02 -0.28265377109E+03 -0.21403275104E+03  0.37623175071E+03  0.12500083776E+03 0.  0.
          2    1    1    2  501    0 -0.44630709907E+02  0.19869717193E+03 -0.15014694793E+04  0.15152171672E+04  0.00000000000E+00 0. -1.
          1    1    1    2  502    0  0.29732791633E+02  0.83956599167E+02  0.19193832435E+04  0.19214486163E+04  0.00000000000E+00 0. -1.
         22    1    3    3    0    0  0.23227344829E+02 -0.29422222244E+03 -0.20518841370E+03  0.35945585382E+03  0.00000000000E+00 0. -1.
         22    1    3    3    0    0 -0.83294265558E+01  0.11568451352E+02 -0.88443373459E+01  0.16775896892E+02  0.00000000000E+00 0. -1.
</event>
<event>
 7    1  0.5854318E-006  0.1174519E+03  0.7818608E-02  0.1338848E+00
          2   -1    0    0  502    0  0.00000000000E+00  0.00000000000E+00  0.25850589246E+04  0.25850589246E+04  0.00000000000E+00 0. -1.
          1   -1    0    0  501    0 -0.00000000000E+00 -0.00000000000E+00 -0.24197816650E+04  0.24197816650E+04  0.00000000000E+00 0. -1.
         25    2    1    2    0    0 -0.43838505841E+01  0.12205692501E+03 -0.16230836907E+04  0.16324632386E+04  0.12497378613E+03 0.  0.
          2    1    1    2  501    0  0.51805567884E+02 -0.10615433673E+03 -0.78735988446E+03  0.79617092871E+03  0.00000000000E+00 0. -1.
          1    1    1    2  502    0 -0.47421717300E+02 -0.15902588287E+02  0.25757208348E+04  0.25762064223E+04  0.00000000000E+00 0. -1.
         22    1    3    3    0    0  0.58097561868E+02  0.82079156120E+02 -0.94168435004E+03  0.94703839926E+03  0.00000000000E+00 0.  1.
         22    1    3    3    0    0 -0.62481412453E+02  0.39977768892E+02 -0.68139934063E+03  0.68542483929E+03  0.00000000000E+00 0.  1.
</event>
<event>
 7    1  0.5854318E-006  0.9982597E+02  0.7818608E-02  0.1336649E+00
          2   -1    0    0  502    0  0.00000000000E+00  0.00000000000E+00  0.20099444372E+04  0.20099444372E+04  0.00000000000E+00 0. -1.
          1   -1    0    0  501    0 -0.00000000000E+00 -0.00000000000E+00 -0.11698447743E+03  0.11698447743E+03  0.00000000000E+00 0. -1.
         25    2    1    2    0    0 -0.18386050915E+02  0.59598423843E+02  0.55919361622E+03  0.57637932385E+03  0.12500242213E+03 0.  0.
          2    1    1    2  501    0 -0.27706660272E+02 -0.97985765780E+02 -0.83701231812E+02  0.13181337385E+03  0.00000000000E+00 0. -1.
          1    1    1    2  502    0  0.46092711187E+02  0.38387341938E+02  0.14174675753E+04  0.14187362169E+04  0.00000000000E+00 0. -1.
         22    1    3    3    0    0  0.47260032296E+02  0.10360863273E+02  0.11654445639E+03  0.12618822629E+03  0.00000000000E+00 0.  1.
         22    1    3    3    0    0 -0.65646083211E+02  0.49237560570E+02  0.44264915984E+03  0.45019109755E+03  0.00000000000E+00 0.  1.
</event>
<event>
 7    1  0.5854318E-006  0.7561094E+02  0.7818608E-02  0.1431468E+00
          2   -1    0    0  502    0  0.00000000000E+00  0.00000000000E+00  0.15827781295E+04  0.15827781295E+04  0.00000000000E+00 0. -1.
          1   -1    0    0  501    0 -0.00000000000E+00 -0.00000000000E+00 -0.82877391296E+02  0.82877391296E+02  0.00000000000E+00 0. -1.
         25    2    1    2    0    0  0.81234413727E+02  0.48102240351E+02  0.17470736981E+03  0.23464923124E+03  0.12499896461E+03 0.  0.
          2    1    1    2  501    0 -0.34951765866E+02  0.11141355264E+02 -0.45390902018E+02  0.58361714508E+02  0.00000000000E+00 0. -1.
          1    1    1    2  502    0 -0.46282647861E+02 -0.59243595615E+02  0.13705842704E+04  0.13726445750E+04  0.00000000000E+00 0. -1.
         22    1    3    3    0    0  0.38995614960E+01 -0.21056109833E+02  0.11068552655E+03  0.11273797998E+03  0.00000000000E+00 0.  1.
         22    1    3    3    0    0  0.77334852231E+02  0.69158350184E+02  0.64021843258E+02  0.12191125126E+03  0.00000000000E+00 0.  1.
</event>
<event>
 7    1  0.5854318E-006  0.6533131E+02  0.7818608E-02  0.1470363E+00
          2   -1    0    0  502    0  0.00000000000E+00  0.00000000000E+00  0.79842497567E+03  0.79842497567E+03  0.00000000000E+00 0. -1.
          1   -1    0    0  501    0 -0.00000000000E+00 -0.00000000000E+00 -0.77192923242E+03  0.77192923242E+03  0.00000000000E+00 0. -1.
         25    2    1    2    0    0  0.31142551755E+02 -0.75506050419E+02 -0.19984220818E+03  0.24946485847E+03  0.12499914106E+03 0.  0.
          2    1    1    2  501    0 -0.44571227657E+02  0.46582427876E+02 -0.54504639382E+03  0.54884614268E+03  0.00000000000E+00 0. -1.
          1    1    1    2  502    0  0.13428675901E+02  0.28923622543E+02  0.77138434524E+03  0.77204320693E+03  0.00000000000E+00 0. -1.
         22    1    3    3    0    0  0.42126695651E+02  0.12592475302E+02 -0.18786648801E+02  0.47813879720E+02  0.00000000000E+00 0.  1.
         22    1    3    3    0    0 -0.10984143896E+02 -0.88098525721E+02 -0.18105555938E+03  0.20165097875E+03  0.00000000000E+00 0.  1.
</event>
<event>
 7    1  0.5854318E-006  0.6385359E+02  0.7818608E-02  0.1406221E+00
          2   -1    0    0  502    0  0.00000000000E+00  0.00000000000E+00  0.29046438632E+04  0.29046438632E+04  0.00000000000E+00 0. -1.
          1   -1    0    0  501    0 -0.00000000000E+00 -0.00000000000E+00 -0.71366426204E+03  0.71366426204E+03  0.00000000000E+00 0. -1.
         25    2    1    2    0    0 -0.64682704806E+02 -0.92964783715E+02  0.13253260416E+04  0.13360166788E+04  0.12500058438E+03 0.  0.
          2    1    1    2  501    0  0.46861564078E+02  0.43299278458E+02 -0.70643861287E+03  0.70931399779E+03  0.00000000000E+00 0. -1.
          1    1    1    2  502    0  0.17821140728E+02  0.49665505257E+02  0.15720921724E+04  0.15729774487E+04  0.00000000000E+00 0. -1.
         22    1    3    3    0    0  0.10799408887E+02 -0.78057538187E+02  0.92593788422E+03  0.92928497886E+03  0.00000000000E+00 0.  1.
         22    1    3    3    0    0 -0.75482113693E+02 -0.14907245529E+02  0.39938815741E+03  0.40673169994E+03  0.00000000000E+00 0.  1.
</event>
<event>
 7    1  0.5854318E-006  0.7282986E+02  0.7818608E-02  0.1356271E+00
          2   -1    0    0  502    0  0.00000000000E+00  0.00000000000E+00  0.61733701569E+03  0.61733701569E+03  0.00000000000E+00 0. -1.
          1   -1    0    0  501    0 -0.00000000000E+00 -0.00000000000E+00 -0.78514495943E+03  0.78514495943E+03  0.00000000000E+00 0. -1.
         25    2    1    2    0    0  0.73791667051E+01  0.13754099518E+03 -0.63128701861E+02  0.19642381004E+03  0.12500041078E+03 0.  0.
          2    1    1    2  501    0  0.10117675886E+02 -0.70297977752E+02 -0.65123864941E+03  0.65509995537E+03  0.00000000000E+00 0. -1.
          1    1    1    2  502    0 -0.17496842591E+02 -0.67243017424E+02  0.54655940753E+03  0.55095820971E+03  0.00000000000E+00 0. -1.
         22    1    3    3    0    0 -0.80981921810E+01  0.43357380588E+02  0.37379951336E+02  0.57816121713E+02  0.00000000000E+00 0. -1.
         22    1    3    3    0    0  0.15477358886E+02  0.94183614588E+02 -0.10050865320E+03  0.13860768832E+03  0.00000000000E+00 0. -1.
</event>
<event>
 7    1  0.5854318E-006  0.1001088E+03  0.7818608E-02  0.1417230E+00
          2   -1    0    0  502    0  0.00000000000E+00  0.00000000000E+00  0.12940159324E+03  0.12940159324E+03  0.00000000000E+00 0. -1.
          1   -1    0    0  501    0 -0.00000000000E+00 -0.00000000000E+00 -0.51630737885E+03  0.51630737885E+03  0.00000000000E+00 0. -1.
         25    2    1    2    0    0 -0.40032424119E+02 -0.64654519800E+02 -0.15246647048E+03  0.21131793260E+03  0.12500576829E+03 0.  0.
          2    1    1    2  501    0 -0.27382883468E+02 -0.14301290240E+02 -0.30647404818E+03  0.30802709527E+03  0.00000000000E+00 0. -1.
          1    1    1    2  502    0  0.67415307586E+02  0.78955810039E+02  0.72034733050E+02  0.12636394423E+03  0.00000000000E+00 0. -1.
         22    1    3    3    0    0 -0.48318224096E+02 -0.69835207334E+02 -0.17068527036E+03  0.19064382623E+03  0.00000000000E+00 0.  1.
         22    1    3    3    0    0  0.82857999771E+01  0.51806875343E+01  0.18218799887E+02  0.20674106363E+02  0.00000000000E+00 0.  1.
</event>
<event>
 7    1  0.5854318E-006  0.6820052E+02  0.7818608E-02  0.1401767E+00
          2   -1    0    0  502    0  0.00000000000E+00  0.00000000000E+00  0.17518323507E+04  0.17518323507E+04  0.00000000000E+00 0. -1.
          1   -1    0    0  501    0 -0.00000000000E+00 -0.00000000000E+00 -0.13974971358E+04  0.13974971358E+04  0.00000000000E+00 0. -1.
         25    2    1    2    0    0  0.56674011303E+00  0.79061316758E+02  0.69517554416E+01  0.14806999313E+03  0.12500153183E+03 0.  0.
          2    1    1    2  501    0 -0.44081718036E+02 -0.52147133027E+02 -0.13256682229E+04  0.13274256132E+04  0.00000000000E+00 0. -1.
          1    1    1    2  502    0  0.43514977923E+02 -0.26914183731E+02  0.16730516824E+04  0.16738338802E+04  0.00000000000E+00 0. -1.
         22    1    3    3    0    0  0.40953721951E+02  0.13802452412E+01 -0.32246110433E+02  0.52143303085E+02  0.00000000000E+00 0.  1.
         22    1    3    3    0    0 -0.40386981838E+02  0.77681071516E+02  0.39197865875E+02  0.95926690045E+02  0.00000000000E+00 0.  1.
</event>
<event>
 7    1  0.5854318E-006  0.3560858E+03  0.7818608E-02  0.1164064E+00
          2   -1    0    0  502    0  0.00000000000E+00  0.00000000000E+00  0.37355327405E+04  0.37355327405E+04  0.00000000000E+00 0. -1.
          1   -1    0    0  501    0 -0.00000000000E+00 -0.00000000000E+00 -0.12929090818E+04  0.12929090818E+04  0.00000000000E+00 0. -1.
         25    2    1    2    0    0  0.31991238729E+03  0.30692707582E+03  0.24058694477E+03  0.51966798080E+03  0.12499826742E+03 0.  0.
          2    1    1    2  501    0 -0.55299039119E+02 -0.77238029873E+02 -0.11422438714E+04  0.11461870522E+04  0.00000000000E+00 0. -1.
          1    1    1    2  502    0 -0.26461334817E+03 -0.22968904595E+03  0.33442805853E+04  0.33625867892E+04  0.00000000000E+00 0. -1.
         22    1    3    3    0    0  0.10283224725E+03  0.76647206554E+02  0.11068303194E+02  0.12873139742E+03  0.00000000000E+00 0.  1.
         22    1    3    3    0    0  0.21708014004E+03  0.23027986927E+03  0.22951864158E+03  0.39093658338E+03  0.00000000000E+00 0.  1.
</event>
<event>
 7    1  0.5854318E-006  0.1050736E+03  0.7818608E-02  0.1315371E+00
          2   -1    0    0  502    0  0.00000000000E+00  0.00000000000E+00  0.96963157563E+03  0.96963157563E+03  0.00000000000E+00 0. -1.
          1   -1    0    0  501    0 -0.00000000000E+00 -0.00000000000E+00 -0.21960735651E+03  0.21960735651E+03  0.00000000000E+00 0. -1.
         25    2    1    2    0    0  0.68207326229E+02 -0.22994517554E+02  0.14908860152E+02  0.14501129695E+03  0.12500005978E+03 0.  0.
          2    1    1    2  501    0  0.32523267356E+02  0.60626345445E+02 -0.14345592967E+03  0.15910034707E+03  0.00000000000E+00 0. -1.
          1    1    1    2  502    0 -0.10073059359E+03 -0.37631827892E+02  0.87857128864E+03  0.88512728812E+03  0.00000000000E+00 0. -1.
         22    1    3    3    0    0 -0.13623108431E+02 -0.54332796388E+02 -0.63022216316E+00  0.56018202637E+02  0.00000000000E+00 0. -1.
         22    1    3    3    0    0  0.81830434660E+02  0.31338278835E+02  0.15539082315E+02  0.88993094317E+02  0.00000000000E+00 0. -1.
</event>
<event>
 7    1  0.5854318E-006  0.1056921E+03  0.7818608E-02  0.1347812E+00
          2   -1    0    0  502    0  0.00000000000E+00  0.00000000000E+00  0.20416466608E+03  0.20416466608E+03  0.00000000000E+00 0. -1.
          1   -1    0    0  501    0 -0.00000000000E+00 -0.00000000000E+00 -0.99761261989E+03  0.99761261989E+03  0.00000000000E+00 0. -1.
         25    2    1    2    0    0  0.21197832005E+02 -0.68263197095E+02 -0.70576463797E+02  0.16035835281E+03  0.12499820765E+03 0.  0.
          2    1    1    2  501    0 -0.70607969608E+02  0.82607026640E+02 -0.87453765658E+03  0.88126359224E+03  0.00000000000E+00 0. -1.
          1    1    1    2  502    0  0.49410137604E+02 -0.14343829545E+02  0.15166616657E+03  0.16015534092E+03  0.00000000000E+00 0. -1.
         22    1    3    3    0    0  0.38152704426E+02 -0.23348831907E+02  0.26548932390E+02  0.52015792001E+02  0.00000000000E+00 0.  1.
         22    1    3    3    0    0 -0.16954872422E+02 -0.44914365187E+02 -0.97125396186E+02  0.10834256081E+03  0.00000000000E+00 0.  1.
</event>
<event>
 7    1  0.5854318E-006  0.4815568E+02  0.7818608E-02  0.1467783E+00
          2   -1    0    0  502    0  0.00000000000E+00  0.00000000000E+00  0.17346806016E+04  0.17346806016E+04  0.00000000000E+00 0. -1.
          1   -1    0    0  501    0 -0.00000000000E+00 -0.00000000000E+00 -0.21134483718E+03  0.21134483718E+03  0.00000000000E+00 0. -1.
         25    2    1    2    0    0 -0.71771272924E+02 -0.55342666125E+02  0.27198629449E+03  0.31275559010E+03  0.12500235373E+03 0.  0.
          2    1    1    2  501    0  0.30895861103E+02  0.31426959789E+02 -0.18802287375E+03  0.19311863993E+03  0.00000000000E+00 0. -1.
          1    1    1    2  502    0  0.40875411821E+02  0.23915706337E+02  0.14393723437E+04  0.14401512088E+04  0.00000000000E+00 0. -1.
         22    1    3    3    0    0  0.35132675756E+02 -0.21794969177E+02  0.90023240238E+02  0.99063158490E+02  0.00000000000E+00 0.  1.
         22    1    3    3    0    0 -0.10690394868E+03 -0.33547696948E+02  0.18196305425E+03  0.21369243161E+03  0.00000000000E+00 0.  1.
</event>
<event>
 7    1  0.5854318E-006  0.1049596E+03  0.7818608E-02  0.1314697E+00
          2   -1    0    0  502    0  0.00000000000E+00  0.00000000000E+00  0.73766074268E+03  0.73766074268E+03  0.00000000000E+00 0. -1.
          1   -1    0    0  501    0 -0.00000000000E+00 -0.00000000000E+00 -0.16631655859E+04  0.16631655859E+04  0.00000000000E+00 0. -1.
         25    2    1    2    0    0  0.94717220172E+01 -0.59654674566E+02  0.51883787503E+01  0.13892844086E+03  0.12500319472E+03 0.  0.
          2    1    1    2  501    0  0.67055134563E+02 -0.17469473036E+02 -0.15911026785E+04  0.15926108461E+04  0.00000000000E+00 0. -1.
          1    1    1    2  502    0 -0.76526856580E+02  0.77124147602E+02  0.66040945650E+03  0.66928704167E+03  0.00000000000E+00 0. -1.
         22    1    3    3    0    0 -0.86466427711E+01 -0.53779884832E+02 -0.54030114456E+02  0.76722185266E+02  0.00000000000E+00 0.  1.
         22    1    3    3    0    0  0.18118364788E+02 -0.58747897339E+01  0.59218493207E+02  0.62206255591E+02  0.00000000000E+00 0.  1.
</event>
<event>
 7    1  0.5854318E-006  0.6053933E+02  0.7818608E-02  0.1501226E+00
          2   -1    0    0  502    0  0.00000000000E+00  0.00000000000E+00  0.99350147316E+03  0.99350147316E+03  0.00000000000E+00 0. -1.
          1   -1    0    0  501    0 -0.00000000000E+00 -0.00000000000E+00 -0.33304221273E+03  0.33304221273E+03  0.00000000000E+00 0. -1.
         25    2    1    2    0    0 -0.40624210952E+02  0.27789789129E+02 -0.34068105362E+02  0.13858653312E+03  0.12499196960E+03 0.  0.
          2    1    1    2  501    0  0.30569028286E+02 -0.53621824553E+02 -0.24264625659E+03  0.25037366355E+03  0.00000000000E+00 0. -1.
          1    1    1    2  502    0  0.10055182666E+02  0.25832035425E+02  0.93717362239E+03  0.93758348922E+03  0.00000000000E+00 0. -1.
         22    1    3    3    0    0 -0.55714570230E+02 -0.35626312169E+02 -0.25511964962E+01  0.66180480946E+02  0.00000000000E+00 0.  1.
         22    1    3    3    0    0  0.15090359277E+02  0.63416101298E+02 -0.31516908866E+02  0.72406052174E+02  0.00000000000E+00 0.  1.
</event>
<event>
 7    1  0.5854318E-006  0.1657758E+03  0.7818608E-02  0.1289872E+00
          2   -1    0    0  502    0  0.00000000000E+00  0.00000000000E+00  0.47964568182E+03  0.47964568182E+03  0.00000000000E+00 0. -1.
          1   -1    0    0  501    0 -0.00000000000E+00 -0.00000000000E+00 -0.17768590335E+04  0.17768590335E+04  0.00000000000E+00 0. -1.
         25    2    1    2    0    0  0.19630988834E+03  0.96882138096E+02  0.64474373981E+02  0.26020656844E+03  0.12500716946E+03 0.  0.
          2    1    1    2  501    0 -0.15058125757E+03 -0.66126146641E+02 -0.16725361490E+04  0.16806024373E+04  0.00000000000E+00 0. -1.
          1    1    1    2  502    0 -0.45728630774E+02 -0.30755991455E+02  0.31084842342E+03  0.31569570955E+03  0.00000000000E+00 0. -1.
         22    1    3    3    0    0  0.12215664069E+03  0.25890011163E+02 -0.20999782031E+02  0.12662356963E+03  0.00000000000E+00 0.  1.
         22    1    3    3    0    0  0.74153247656E+02  0.70992126933E+02  0.85474156012E+02  0.13358299881E+03  0.00000000000E+00 0.  1.
</event>
<event>
 7    1  0.5854318E-006  0.1408685E+03  0.7818608E-02  0.1310210E+00
          2   -1    0    0  502    0  0.00000000000E+00  0.00000000000E+00  0.21423146904E+04  0.21423146904E+04  0.00000000000E+00 0. -1.
          1   -1    0    0  501    0 -0.00000000000E+00 -0.00000000000E+00 -0.11880191365E+04  0.11880191365E+04  0.00000000000E+00 0. -1.
         25    2    1    2    0    0  0.64252025307E+02  0.10496582809E+03  0.39611342419E+03  0.43321707787E+03  0.12500017565E+03 0.  0.
          2    1    1    2  501    0 -0.11363973817E+03 -0.83711517465E+02 -0.11647877277E+04  0.11733081687E+04  0.00000000000E+00 0. -1.
          1    1    1    2  502    0  0.49387712858E+02 -0.21254310629E+02  0.17229698574E+04  0.17238085803E+04  0.00000000000E+00 0. -1.
         22    1    3    3    0    0  0.31568095045E+02 -0.12822883480E+02  0.19433804783E+03  0.19730242725E+03  0.00000000000E+00 0. -1.
         22    1    3    3    0    0  0.32683930263E+02  0.11778871157E+03  0.20177537636E+03  0.23591465062E+03  0.00000000000E+00 0. -1.
</event>
<event>
 7    1  0.5854318E-006  0.9829969E+02  0.7818608E-02  0.1284246E+00
          2   -1    0    0  502    0  0.00000000000E+00  0.00000000000E+00  0.24908858463E+04  0.24908858463E+04  0.00000000000E+00 0. -1.
          1   -1    0    0  501    0 -0.00000000000E+00 -0.00000000000E+00 -0.17491898185E+03  0.17491898185E+03  0.00000000000E+00 0. -1.
         25    2    1    2    0    0  0.19477072859E+02  0.58438012367E+02  0.53448937665E+03  0.55235692143E+03  0.12499966897E+03 0.  0.
          2    1    1    2  501    0  0.78763687498E+02 -0.61841270215E+02 -0.14951652767E+03  0.17995347515E+03  0.00000000000E+00 0. -1.
          1    1    1    2  502    0 -0.98240760357E+02  0.34032578482E+01  0.19309940154E+04  0.19334944316E+04  0.00000000000E+00 0. -1.
         22    1    3    3    0    0 -0.51943377962E+02  0.12943671601E+02  0.24238927699E+03  0.24823016486E+03  0.00000000000E+00 0. -1.
         22    1    3    3    0    0  0.71420450820E+02  0.45494340766E+02  0.29210009967E+03  0.30412675657E+03  0.00000000000E+00 0. -1.
</event>
<event>
 7    1  0.5854318E-006  0.5768697E+02  0.7818608E-02  0.1449156E+00
          2   -1    0    0  502    0  0.00000000000E+00  0.00000000000E+00  0.72007520921E+02  0.72007520921E+02  0.00000000000E+00 0. -1.
          1   -1    0    0  501    0 -0.00000000000E+00 -0.00000000000E+00 -0.14991282963E+04  0.14991282963E+04  0.00000000000E+00 0. -1.
         25    2    1    2    0    0  0.21384182146E+02 -0.16540597214E+02 -0.31553124992E+03  0.34046412425E+03  0.12499990250E+03 0.  0.
          2    1    1    2  501    0 -0.14613286977E+02  0.58124785984E+02 -0.11628077540E+04  0.11643512836E+04  0.00000000000E+00 0. -1.
          1    1    1    2  502    0 -0.67708951697E+01 -0.41584188770E+02  0.51218228475E+02  0.66320409416E+02  0.00000000000E+00 0. -1.
         22    1    3    3    0    0 -0.20723232019E+02 -0.58444131606E+02 -0.21428740144E+03  0.22307904267E+03  0.00000000000E+00 0.  1.
         22    1    3    3    0    0  0.42107414165E+02  0.41903534392E+02 -0.10124384848E+03  0.11738508158E+03  0.00000000000E+00 0.  1.
</event>
<event>
 7    1  0.5854318E-006  0.1155006E+03  0.7818608E-02  0.1446237E+00
          2   -1    0    0  502    0  0.00000000000E+00  0.00000000000E+00  0.30989800142E+03  0.30989800142E+03  0.00000000000E+00 0. -1.
          1   -1    0    0  501    0 -0.00000000000E+00 -0.00000000000E+00 -0.10141807003E+04  0.10141807003E+04  0.00000000000E+00 0. -1.
         25    2    1    2    0    0  0.59840753504E+02  0.11426237835E+03 -0.16597017994E+03  0.24455977938E+03  0.12500631254E+03 0.  0.
          2    1    1    2  501    0 -0.39549878085E+02 -0.10714872342E+03 -0.80444832759E+03  0.81251594049E+03  0.00000000000E+00 0. -1.
          1    1    1    2  502    0 -0.20290875419E+02 -0.71136549354E+01  0.26613580861E+03  0.26700298188E+03  0.00000000000E+00 0. -1.
         22    1    3    3    0    0  0.64713264531E+02  0.11033168336E+03 -0.65150776373E+02  0.14354619682E+03  0.00000000000E+00 0.  1.
         22    1    3    3    0    0 -0.48725110275E+01  0.39306949935E+01 -0.10081940357E+03  0.10101358257E+03  0.00000000000E+00 0.  1.
</event>
<event>
 7    1  0.5854318E-006  0.9780348E+02  0.7818608E-02  0.1298404E+00
          2   -1    0    0  502    0  0.00000000000E+00  0.00000000000E+00  0.45946704119E+03  0.45946704119E+03  0.00000000000E+00 0. -1.
          1   -1    0    0  501    0 -0.00000000000E+00 -0.00000000000E+00 -0.51779109785E+03  0.51779109785E+03  0.00000000000E+00 0. -1.
         25    2    1    2    0    0  0.11362693065E+03  0.12065933462E+03 -0.60165280306E+02  0.21613322240E+03  0.12499581781E+03 0.  0.
          2    1    1    2  501    0 -0.80419439879E+02 -0.31261745189E+02 -0.36862130004E+03  0.37858452936E+03  0.00000000000E+00 0. -1.
          1    1    1    2  502    0 -0.33207490773E+02 -0.89397589435E+02  0.37046252369E+03  0.38254038728E+03  0.00000000000E+00 0. -1.
         22    1    3    3    0    0  0.74046433535E+02  0.50379942365E+02 -0.92940808039E+02  0.12906977458E+03  0.00000000000E+00 0. -1.
         22    1    3    3    0    0  0.39580497117E+02  0.70279392259E+02  0.32775527733E+02  0.87063447821E+02  0.00000000000E+00 0. -1.
</event>
<event>
 7    1  0.5854318E-006  0.8938889E+02  0.7818608E-02  0.1342891E+00
          2   -1    0    0  502    0  0.00000000000E+00  0.00000000000E+00  0.25656081625E+03  0.25656081625E+03  0.00000000000E+00 0. -1.
          1   -1    0    0  501    0 -0.00000000000E+00 -0.00000000000E+00 -0.44027076051E+03  0.44027076051E+03  0.00000000000E+00 0. -1.
         25    2    1    2    0    0 -0.57646349241E+02 -0.20346841008E+02 -0.12034408566E+03  0.18396708528E+03  0.12499637592E+03 0.  0.
          2    1    1    2  501    0  0.15368599005E+02 -0.61572129727E+02 -0.27489265677E+03  0.28212283449E+03  0.00000000000E+00 0. -1.
          1    1    1    2  502    0  0.42277750235E+02  0.81918970735E+02  0.21152679817E+03  0.23074165700E+03  0.00000000000E+00 0. -1.
         22    1    3    3    0    0 -0.11676100961E+02  0.49452605352E+02 -0.69656493655E+02  0.86220175238E+02  0.00000000000E+00 0.  1.
         22    1    3    3    0    0 -0.45970248280E+02 -0.69799446360E+02 -0.50687592008E+02  0.97746910041E+02  0.00000000000E+00 0.  1.
</event>
<event>
 7    1  0.5854318E-006  0.1704297E+03  0.7818608E-02  0.1350587E+00
          2   -1    0    0  502    0  0.00000000000E+00  0.00000000000E+00  0.80993235514E+03  0.80993235514E+03  0.00000000000E+00 0. -1.
          1   -1    0    0  501    0 -0.00000000000E+00 -0.00000000000E+00 -0.17587626308E+04  0.17587626308E+04  0.00000000000E+00 0. -1.
         25    2    1    2    0    0 -0.53496419501E+01  0.14205787053E+03 -0.65091562499E+02  0.20017689820E+03  0.12499928727E+03 0.  0.
          2    1    1    2  501    0  0.62952152521E+01  0.30516846274E+02 -0.16159467660E+04  0.16162471526E+04  0.00000000000E+00 0. -1.
          1    1    1    2  502    0 -0.94557330195E+00 -0.17257471680E+03  0.73220805294E+03  0.75227093508E+03  0.00000000000E+00 0. -1.
         22    1    3    3    0    0 -0.87992535332E+01 -0.21282594828E+02  0.29099888883E+01  0.23213008006E+02  0.00000000000E+00 0. -1.
         22    1    3    3    0    0  0.34496115831E+01  0.16334046535E+03 -0.68001551387E+02  0.17696389020E+03  0.00000000000E+00 0. -1.
</event>
<event>
 7    1  0.5854318E-006  0.9692592E+02  0.7818608E-02  0.1303870E+00
          2   -1    0    0  502    0  0.00000000000E+00  0.00000000000E+00  0.11540066038E+04  0.11540066038E+04  0.00000000000E+00 0. -1.
          1   -1    0    0  501    0 -0.00000000000E+00 -0.00000000000E+00 -0.11288325734E+03  0.11288325734E+03  0.00000000000E+00 0. -1.
         25    2    1    2    0    0 -0.14560010424E+02 -0.13749220713E+02  0.41463431084E+03  0.43352953774E+03  0.12500085358E+03 0.  0.
          2    1    1    2  501    0 -0.26288565954E+02 -0.93292788849E+02 -0.75013767095E+02  0.12256303849E+03  0.00000000000E+00 0. -1.
          1    1    1    2  502    0  0.40848576378E+02  0.10704200956E+03  0.70150280267E+03  0.71079728486E+03  0.00000000000E+00 0. -1.
         22    1    3    3    0    0 -0.85788570497E+01  0.55226216210E+02  0.15293995801E+03  0.16283169992E+03  0.00000000000E+00 0.  1.
         22    1    3    3    0    0 -0.59811533739E+01 -0.68975436922E+02  0.26169435283E+03  0.27069783781E+03  0.00000000000E+00 0.  1.
</event>
<event>
 7    1  0.5854318E-006  0.8345549E+02  0.7818608E-02  0.1347404E+00
          2   -1    0    0  502    0  0.00000000000E+00  0.00000000000E+00  0.19050649013E+04  0.19050649013E+04  0.00000000000E+00 0. -1.
          1   -1    0    0  501    0 -0.00000000000E+00 -0.00000000000E+00 -0.12143290138E+04  0.12143290138E+04  0.00000000000E+00 0. -1.
         25    2    1    2    0    0 -0.94086692187E+02  0.91265401842E+02  0.73346998838E+03  0.75550310320E+03  0.12500014352E+03 0.  0.
          2    1    1    2  501    0  0.30109537393E+02 -0.77760404909E+02 -0.12009446143E+04  0.12038360484E+04  0.00000000000E+00 0. -1.
          1    1    1    2  502    0  0.63977154794E+02 -0.13504996932E+02  0.11582105134E+04  0.11600547636E+04  0.00000000000E+00 0. -1.
         22    1    3    3    0    0 -0.21786743157E+02 -0.15295469182E+02  0.29019431606E+02  0.39379448518E+02  0.00000000000E+00 0. -1.
         22    1    3    3    0    0 -0.72299949030E+02  0.10656087102E+03  0.70445055677E+03  0.71612365469E+03  0.00000000000E+00 0. -1.
</event>
<event>
 7    1  0.5854318E-006  0.2135348E+03  0.7818608E-02  0.1338095E+00
          2   -1    0    0  502    0  0.00000000000E+00  0.00000000000E+00  0.20321700877E+04  0.20321700877E+04  0.00000000000E+00 0. -1.
          1   -1    0    0  501    0 -0.00000000000E+00 -0.00000000000E+00 -0.47280593075E+03  0.47280593075E+03  0.00000000000E+00 0. -1.
         25    2    1    2    0    0 -0.12287361409E+03  0.14450919495E+03  0.63694652186E+02  0.23592999078E+03  0.12500047747E+03 0.  0.
          2    1    1    2  501    0 -0.77486137762E+01  0.26585678129E+02 -0.38002888663E+03  0.38103647328E+03  0.00000000000E+00 0. -1.
          1    1    1    2  502    0  0.13062222787E+03 -0.17109487308E+03  0.18756983914E+04  0.18880095544E+04  0.00000000000E+00 0. -1.
         22    1    3    3    0    0 -0.84099860409E+02  0.80116803775E+02  0.99248763399E+02  0.15278025332E+03  0.00000000000E+00 0. -1.
         22    1    3    3    0    0 -0.38773753682E+02  0.64392391179E+02 -0.35554111213E+02  0.83149737465E+02  0.00000000000E+00 0. -1.
</event>
<event>
 7    1  0.5854318E-006  0.6381970E+02  0.7818608E-02  0.1435832E+00
          2   -1    0    0  502    0  0.00000000000E+00  0.00000000000E+00  0.85753091371E+03  0.85753091371E+03  0.00000000000E+00 0. -1.
          1   -1    0    0  501    0 -0.00000000000E+00 -0.00000000000E+00 -0.72026005227E+02  0.72026005227E+02  0.00000000000E+00 0. -1.
         25    2    1    2    0    0 -0.28676085756E+02 -0.57956347229E+02  0.30025770017E+03  0.33160362885E+03  0.12500009630E+03 0.  0.
          2    1    1    2  501    0  0.58165313116E+02  0.27972534745E+02 -0.36745568875E+02  0.74269126707E+02  0.00000000000E+00 0. -1.
          1    1    1    2  502    0 -0.29489227359E+02  0.29983812484E+02  0.52199277719E+03  0.52368416338E+03  0.00000000000E+00 0. -1.
         22    1    3    3    0    0 -0.21659477023E+02 -0.33251845588E+02  0.30317108211E+03  0.30575729461E+03  0.00000000000E+00 0. -1.
         22    1    3    3    0    0 -0.70166087334E+01 -0.24704501641E+02 -0.29133819352E+01  0.25846334242E+02  0.00000000000E+00 0. -1.
</event>
<event>
 7    1  0.5854318E-006  0.1974742E+03  0.7818608E-02  0.1235981E+00
          2   -1    0    0  502    0  0.00000000000E+00  0.00000000000E+00  0.26485269006E+03  0.26485269006E+03  0.00000000000E+00 0. -1.
          1   -1    0    0  501    0 -0.00000000000E+00 -0.00000000000E+00 -0.10012603092E+04  0.10012603092E+04  0.00000000000E+00 0. -1.
         25    2    1    2    0    0  0.12642785897E+03  0.10620792649E+03 -0.25281682643E+03  0.32681765317E+03  0.12501721291E+03 0.  0.
          2    1    1    2  501    0 -0.11178660921E+03 -0.18321804890E+03 -0.68782532417E+03  0.72053367445E+03  0.00000000000E+00 0. -1.
          1    1    1    2  502    0 -0.14641249758E+02  0.77010122411E+02  0.20423453145E+03  0.21876167165E+03  0.00000000000E+00 0. -1.
         22    1    3    3    0    0  0.14916051362E+02 -0.25616663583E+02 -0.15838384529E+02  0.33608874808E+02  0.00000000000E+00 0.  1.
         22    1    3    3    0    0  0.11151180760E+03  0.13182459007E+03 -0.23697844190E+03  0.29320877836E+03  0.00000000000E+00 0.  1.
</event>
<event>
 7    1  0.5854318E-006  0.5934697E+02  0.7818608E-02  0.1488789E+00
          2   -1    0    0  502    0  0.00000000000E+00  0.00000000000E+00  0.18294668157E+03  0.18294668157E+03  0.00000000000E+00 0. -1.
          1   -1    0    0  501    0 -0.00000000000E+00 -0.00000000000E+00 -0.10276697698E+04  0.10276697698E+04  0.00000000000E+00 0. -1.
         25    2    1    2    0    0 -0.13927190768E+02 -0.31442716647E+02 -0.10512210273E+03  0.16690495841E+03  0.12499599029E+03 0.  0.
          2    1    1    2  501    0  0.10413400094E+02 -0.29005225504E+02 -0.88534958237E+03  0.88588578554E+03  0.00000000000E+00 0. -1.
          1    1    1    2  502    0  0.35137906746E+01  0.60447942151E+02  0.14574859686E+03  0.15782570742E+03  0.00000000000E+00 0. -1.
         22    1    3    3    0    0  0.38583586184E+02  0.14016333383E+02 -0.85321621927E+02  0.94683313696E+02  0.00000000000E+00 0.  1.
         22    1    3    3    0    0 -0.52510776953E+02 -0.45459050030E+02 -0.19800480799E+02  0.72221644717E+02  0.00000000000E+00 0.  1.
</event>
<event>
 7    1  0.5854318E-006  0.5437721E+02  0.7818608E-02  0.1471464E+00
          2   -1    0    0  502    0  0.00000000000E+00  0.00000000000E+00  0.32224141650E+03  0.32224141650E+03  0.00000000000E+00 0. -1.
          1   -1    0    0  501    0 -0.00000000000E+00 -0.00000000000E+00 -0.10660079269E+03  0.10660079269E+03  0.00000000000E+00 0. -1.
         25    2    1    2    0    0 -0.14581858033E+01 -0.76514607113E+02  0.44426066861E+02  0.15315342423E+03  0.12500273808E+03 0.  0.
          2    1    1    2  501    0 -0.22649846520E+02  0.47125291068E+02 -0.36986991243E+02  0.64045656580E+02  0.00000000000E+00 0. -1.
          1    1    1    2  502    0  0.24108032324E+02  0.29389316046E+02  0.20820154819E+03  0.21164312838E+03  0.00000000000E+00 0. -1.
         22    1    3    3    0    0  0.34952602242E+02 -0.68009857735E+02  0.73290485627E+02  0.10591751713E+03  0.00000000000E+00 0.  1.
         22    1    3    3    0    0 -0.36410788045E+02 -0.85047493786E+01 -0.28864418766E+02  0.47235907091E+02  0.00000000000E+00 0.  1.
</event>
<event>
 7    1  0.5854318E-006  0.5124985E+02  0.7818608E-02  0.1488608E+00
          2   -1    0    0  502    0  0.00000000000E+00  0.00000000000E+00  0.19365791384E+04  0.19365791384E+04  0.00000000000E+00 0. -1.
          1   -1    0    0  501    0 -0.00000000000E+00 -0.00000000000E+00 -0.48429566435E+03  0.48429566435E+03  0.00000000000E+00 0. -1.
         25    2    1    2    0    0  0.15206713884E+02  0.60872445349E+02  0.29084673417E+03  0.32273286663E+03  0.12501192613E+03 0.  0.
          2    1    1    2  501    0 -0.38524221089E+02 -0.33797227662E+02 -0.46675407473E+03  0.46955908519E+03  0.00000000000E+00 0. -1.
          1    1    1    2  502    0  0.23317507206E+02 -0.27075217687E+02  0.16281908147E+04  0.16285828510E+04  0.00000000000E+00 0. -1.
         22    1    3    3    0    0 -0.22448048425E+02  0.77027195896E+02  0.25809477982E+03  0.27027767047E+03  0.00000000000E+00 0.  1.
         22    1    3    3    0    0  0.37654762309E+02 -0.16154750547E+02  0.32751954348E+02  0.52455196152E+02  0.00000000000E+00 0.  1.
</event>
<event>
 7    1  0.5854318E-006  0.4640612E+02  0.7818608E-02  0.1548484E+00
          2   -1    0    0  502    0  0.00000000000E+00  0.00000000000E+00  0.31162174916E+03  0.31162174916E+03  0.00000000000E+00 0. -1.
          1   -1    0    0  501    0 -0.00000000000E+00 -0.00000000000E+00 -0.12324780467E+03  0.12324780467E+03  0.00000000000E+00 0. -1.
         25    2    1    2    0    0  0.32111981021E+02 -0.23640468174E+02  0.11552639851E+03  0.17481755701E+03  0.12499911370E+03 0.  0.
          2    1    1    2  501    0 -0.15616823551E+02  0.44274888158E+02 -0.86558969241E+02  0.98471346367E+02  0.00000000000E+00 0. -1.
          1    1    1    2  502    0 -0.16495157470E+02 -0.20634419984E+02  0.15940651522E+03  0.16158065046E+03  0.00000000000E+00 0. -1.
         22    1    3    3    0    0 -0.13903276137E+02 -0.54794172672E+02  0.12704915162E+02  0.57940636133E+02  0.00000000000E+00 0. -1.
         22    1    3    3    0    0  0.46015257158E+02  0.31153704499E+02  0.10282148335E+03  0.11687692088E+03  0.00000000000E+00 0. -1.
</event>
<event>
 7    1  0.5854318E-006  0.4658623E+02  0.7818608E-02  0.1522965E+00
          2   -1    0    0  502    0  0.00000000000E+00  0.00000000000E+00  0.58388382198E+03  0.58388382198E+03  0.00000000000E+00 0. -1.
          1   -1    0    0  501    0 -0.00000000000E+00 -0.00000000000E+00 -0.69762734775E+02  0.69762734775E+02  0.00000000000E+00 0. -1.
         25    2    1    2    0    0  0.29217632037E+02  0.49064086383E+02  0.15415511987E+03  0.20651879823E+03  0.12500103378E+03 0.  0.
          2    1    1    2  501    0  0.17692155095E+01 -0.46413037311E+02 -0.30409061384E+02  0.55515864131E+02  0.00000000000E+00 0. -1.
          1    1    1    2  502    0 -0.30986847546E+02 -0.26510490720E+01  0.39037502872E+03  0.39161189439E+03  0.00000000000E+00 0. -1.
         22    1    3    3    0    0 -0.29963475443E+02  0.68717263177E+02  0.88108970226E+02  0.11568518813E+03  0.00000000000E+00 0. -1.
         22    1    3    3    0    0  0.59181107480E+02 -0.19653176794E+02  0.66046149644E+02  0.90833610098E+02  0.00000000000E+00 0. -1.
</event>
<event>
 7    1  0.5854318E-006  0.4171827E+02  0.7818608E-02  0.1584177E+00
          2   -1    0    0  502    0  0.00000000000E+00  0.00000000000E+00  0.77355987366E+03  0.77355987366E+03  0.00000000000E+00 0. -1.
          1   -1    0    0  501    0 -0.00000000000E+00 -0.00000000000E+00 -0.47664483762E+03  0.47664483762E+03  0.00000000000E+00 0. -1.
         25    2    1    2    0    0 -0.32395472837E+02  0.46462597471E+02  0.16684947195E+02  0.13823784896E+03  0.12499230296E+03 0.  0.
          2    1    1    2  501    0  0.97070863714E+01 -0.40420188323E+02 -0.41463080654E+03  0.41670940100E+03  0.00000000000E+00 0. -1.
          1    1    1    2  502    0  0.22688386466E+02 -0.60424091479E+01  0.69486089538E+03  0.69525746132E+03  0.00000000000E+00 0. -1.
         22    1    3    3    0    0 -0.26359171884E+02  0.89729457210E+02  0.12479775955E+02  0.94350019827E+02  0.00000000000E+00 0. -1.
         22    1    3    3    0    0 -0.60363009537E+01 -0.43266859739E+02  0.42051712401E+01  0.43887829133E+02  0.00000000000E+00 0. -1.
</event>
<event>
 7    1  0.5854318E-006  0.3859828E+02  0.7818608E-02  0.1542838E+00
          2   -1    0    0  502    0  0.00000000000E+00  0.00000000000E+00  0.72658240172E+03  0.72658240172E+03  0.00000000000E+00 0. -1.
          1   -1    0    0  501    0 -0.00000000000E+00 -0.00000000000E+00 -0.50623616079E+02  0.50623616079E+02  0.00000000000E+00 0. -1.
         25    2    1    2    0    0  0.27923818503E+00  0.49749038008E+02  0.27832683601E+03  0.30913648956E+03  0.12499798709E+03 0.  0.
          2    1    1    2  501    0  0.25392719936E+02 -0.29108303592E+02 -0.23787643211E+02  0.45364474353E+02  0.00000000000E+00 0. -1.
          1    1    1    2  502    0 -0.25671958121E+02 -0.20640734416E+02  0.42141959284E+03  0.42270505389E+03  0.00000000000E+00 0. -1.
         22    1    3    3    0    0 -0.54091103949E+02  0.48967909023E+02  0.10797017240E+03  0.13031217045E+03  0.00000000000E+00 0. -1.
         22    1    3    3    0    0  0.54370342135E+02  0.78112898466E+00  0.17035666362E+03  0.17882431911E+03  0.00000000000E+00 0. -1.
</event>
<event>
 7    1  0.5854318E-006  0.5504651E+02  0.7818608E-02  0.1450486E+00
          2   -1    0    0  502    0  0.00000000000E+00  0.00000000000E+00  0.31406324315E+03  0.31406324315E+03  0.00000000000E+00 0. -1.
          1   -1    0    0  501    0 -0.00000000000E+00 -0.00000000000E+00 -0.52924519671E+03  0.52924519671E+03  0.00000000000E+00 0. -1.
         25    2    1    2    0    0  0.84259077623E+02  0.46619209343E+02 -0.26152381030E+03  0.30543975569E+03  0.12500319261E+03 0.  0.
          2    1    1    2  501    0 -0.42104818401E+02 -0.11782311729E+02 -0.24122136506E+03  0.24515176027E+03  0.00000000000E+00 0. -1.
          1    1    1    2  502    0 -0.42154259222E+02 -0.34836897614E+02  0.28756322180E+03  0.29271692390E+03  0.00000000000E+00 0. -1.
         22    1    3    3    0    0  0.47178274721E+02 -0.20768370367E+02 -0.20117630697E+03  0.20767527850E+03  0.00000000000E+00 0.  1.
         22    1    3    3    0    0  0.37080802902E+02  0.67387579709E+02 -0.60347503333E+02  0.97764477196E+02  0.00000000000E+00 0.  1.
</event>
<event>
 7    1  0.5854318E-006  0.1181461E+03  0.7818608E-02  0.1451605E+00
          2   -1    0    0  502    0  0.00000000000E+00  0.00000000000E+00  0.74593620219E+03  0.74593620219E+03  0.00000000000E+00 0. -1.
          1   -1    0    0  501    0 -0.00000000000E+00 -0.00000000000E+00 -0.79160911810E+03  0.79160911810E+03  0.00000000000E+00 0. -1.
         25    2    1    2    0    0  0.13106671411E+03  0.39120788937E+02 -0.45850301893E+03  0.49452861948E+03  0.12499846976E+03 0.  0.
          2    1    1    2  501    0 -0.16270550361E+02 -0.11977783432E+02 -0.30998330610E+03  0.31064102783E+03  0.00000000000E+00 0. -1.
          1    1    1    2  502    0 -0.11479616374E+03 -0.27143005505E+02  0.72281340913E+03  0.73237567298E+03  0.00000000000E+00 0. -1.
         22    1    3    3    0    0 -0.22163993786E+02 -0.41098380816E+01 -0.30910848531E+02  0.38257207772E+02  0.00000000000E+00 0. -1.
         22    1    3    3    0    0  0.15323070789E+03  0.43230627019E+02 -0.42759217040E+03  0.45627141171E+03  0.00000000000E+00 0. -1.
</event>
<event>
 7    1  0.5854318E-006  0.8124370E+02  0.7818608E-02  0.1331172E+00
          2   -1    0    0  502    0  0.00000000000E+00  0.00000000000E+00  0.19607647779E+03  0.19607647779E+03  0.00000000000E+00 0. -1.
          1   -1    0    0  501    0 -0.00000000000E+00 -0.00000000000E+00 -0.38315782901E+03  0.38315782901E+03  0.00000000000E+00 0. -1.
         25    2    1    2    0    0  0.35092057938E+01  0.34268886569E+02 -0.75125762633E+02  0.14985304144E+03  0.12500153081E+03 0.  0.
          2    1    1    2  501    0  0.79171116399E+02 -0.18233852921E+02 -0.25265778496E+03  0.26539874786E+03  0.00000000000E+00 0. -1.
          1    1    1    2  502    0 -0.82680322193E+02 -0.16035033648E+02  0.14070219638E+03  0.16398251751E+03  0.00000000000E+00 0. -1.
         22    1    3    3    0    0 -0.51069391031E+02  0.31909785356E+01  0.97964288093E+00  0.51178362073E+02  0.00000000000E+00 0. -1.
         22    1    3    3    0    0  0.54578596825E+02  0.31077908034E+02 -0.76105405514E+02  0.98674679364E+02  0.00000000000E+00 0. -1.
</event>
<event>
 7    1  0.5854318E-006  0.1456723E+03  0.7818608E-02  0.1278837E+00
          2   -1    0    0  502    0  0.00000000000E+00  0.00000000000E+00  0.17458368345E+04  0.17458368345E+04  0.00000000000E+00 0. -1.
          1   -1    0    0  501    0 -0.00000000000E+00 -0.00000000000E+00 -0.62739072214E+02  0.62739072214E+02  0.00000000000E+00 0. -1.
         25    2    1    2    0    0 -0.13739242109E+03  0.11241250737E+03  0.13544425054E+04  0.13717335845E+04  0.12500110836E+03 0.  0.
          2    1    1    2  501    0  0.37224411671E+02 -0.58818055235E+02 -0.18124337787E+02  0.71928520533E+02  0.00000000000E+00 0. -1.
          1    1    1    2  502    0  0.10016800942E+03 -0.53594452137E+02  0.34677959462E+03  0.36491380168E+03  0.00000000000E+00 0. -1.
         22    1    3    3    0    0  0.12602014803E+02 -0.98824503021E+01  0.39460043298E+02  0.42586014350E+02  0.00000000000E+00 0.  1.
         22    1    3    3    0    0 -0.14999443589E+03  0.12229495767E+03  0.13149824621E+04  0.13291475701E+04  0.00000000000E+00 0.  1.
</event>
<event>
 7    1  0.5854318E-006  0.1043483E+03  0.7818608E-02  0.1367781E+00
          2   -1    0    0  502    0  0.00000000000E+00  0.00000000000E+00  0.57408253042E+03  0.57408253042E+03  0.00000000000E+00 0. -1.
          1   -1    0    0  501    0 -0.00000000000E+00 -0.00000000000E+00 -0.76387263430E+02  0.76387263430E+02  0.00000000000E+00 0. -1.
         25    2    1    2    0    0  0.12818458038E+03 -0.93940007119E+01  0.32787211386E+03  0.37368895633E+03  0.12499511646E+03 0.  0.
          2    1    1    2  501    0 -0.35298316459E+02  0.26330868618E+02 -0.31683575664E+02  0.54250665930E+02  0.00000000000E+00 0. -1.
          1    1    1    2  502    0 -0.92886263918E+02 -0.16936867906E+02  0.20150672879E+03  0.22253017159E+03  0.00000000000E+00 0. -1.
         22    1    3    3    0    0  0.63585139248E+02 -0.67079170949E+02  0.17915870180E+03  0.20159495415E+03  0.00000000000E+00 0. -1.
         22    1    3    3    0    0  0.64599441129E+02  0.57685170237E+02  0.14871341206E+03  0.17209400218E+03  0.00000000000E+00 0. -1.
</event>
<event>
 7    1  0.5854318E-006  0.4121717E+02  0.7818608E-02  0.1545328E+00
          2   -1    0    0  502    0  0.00000000000E+00  0.00000000000E+00  0.13372402450E+04  0.13372402450E+04  0.00000000000E+00 0. -1.
          1   -1    0    0  501    0 -0.00000000000E+00 -0.00000000000E+00 -0.19209002398E+03  0.19209002398E+03  0.00000000000E+00 0. -1.
         25    2    1    2    0    0 -0.36735304221E+01 -0.18544297374E+02 -0.25590241624E+02  0.12898810971E+03  0.12500274472E+03 0.  0.
          2    1    1    2  501    0 -0.18762101880E+02  0.38990387317E+02 -0.11053749204E+03  0.11870469206E+03  0.00000000000E+00 0. -1.
          1    1    1    2  502    0  0.22435632303E+02 -0.20446089943E+02  0.12812779547E+04  0.12816374672E+04  0.00000000000E+00 0. -1.
         22    1    3    3    0    0 -0.59849221653E+02 -0.31645793800E+02 -0.55702641408E+01  0.67929474017E+02  0.00000000000E+00 0. -1.
         22    1    3    3    0    0  0.56175691230E+02  0.13101496426E+02 -0.20019977483E+02  0.61058635689E+02  0.00000000000E+00 0. -1.
</event>
<event>
 7    1  0.5854318E-006  0.1111553E+03  0.7818608E-02  0.1323724E+00
          2   -1    0    0  502    0  0.00000000000E+00  0.00000000000E+00  0.23267866344E+04  0.23267866344E+04  0.00000000000E+00 0. -1.
          1   -1    0    0  501    0 -0.00000000000E+00 -0.00000000000E+00 -0.62606504802E+03  0.62606504802E+03  0.00000000000E+00 0. -1.
         25    2    1    2    0    0 -0.98194269973E+02 -0.12408781205E+03  0.35686815740E+03  0.40990252097E+03  0.12500118069E+03 0.  0.
          2    1    1    2  501    0  0.55309594925E+02  0.24158073975E+02 -0.59650266428E+03  0.59954832359E+03  0.00000000000E+00 0. -1.
          1    1    1    2  502    0  0.42884675047E+02  0.99929738077E+02  0.19403560933E+04  0.19434008379E+04  0.00000000000E+00 0. -1.
         22    1    3    3    0    0 -0.10491459558E+03 -0.14467204049E+03  0.30197755325E+03  0.35089530395E+03  0.00000000000E+00 0.  1.
         22    1    3    3    0    0  0.67203256094E+01  0.20584228437E+02  0.54890604147E+02  0.59007217019E+02  0.00000000000E+00 0.  1.
</event>
<event>
 7    1  0.5854318E-006  0.1267719E+03  0.7818608E-02  0.1343342E+00
          2   -1    0    0  502    0  0.00000000000E+00  0.00000000000E+00  0.17972897371E+04  0.17972897371E+04  0.00000000000E+00 0. -1.
          1   -1    0    0  501    0 -0.00000000000E+00 -0.00000000000E+00 -0.10050053234E+04  0.10050053234E+04  0.00000000000E+00 0. -1.
         25    2    1    2    0    0 -0.43242318829E+02 -0.15836455406E+03  0.69655865313E+03  0.72647703065E+03  0.12500275476E+03 0.  0.
          2    1    1    2  501    0  0.53100626821E+02  0.11489474493E+03 -0.98553969394E+03  0.99363422209E+03  0.00000000000E+00 0. -1.
          1    1    1    2  502    0 -0.98583079920E+01  0.43469809132E+02  0.10812654545E+04  0.10821838077E+04  0.00000000000E+00 0. -1.
         22    1    3    3    0    0 -0.71359445391E+01  0.16255974313E+01 -0.30288202662E+01  0.79207337841E+01  0.00000000000E+00 0.  1.
         22    1    3    3    0    0 -0.36106374290E+02 -0.15999015149E+03  0.69958747340E+03  0.71855629687E+03  0.00000000000E+00 0.  1.
</event>
<event>
 7    1  0.5854318E-006  0.9286461E+02  0.7818608E-02  0.1318989E+00
          2   -1    0    0  502    0  0.00000000000E+00  0.00000000000E+00  0.17882648360E+04  0.17882648360E+04  0.00000000000E+00 0. -1.
          1   -1    0    0  501    0 -0.00000000000E+00 -0.00000000000E+00 -0.18924742433E+04  0.18924742433E+04  0.00000000000E+00 0. -1.
         25    2    1    2    0    0 -0.26150934518E+02 -0.60384446654E+02 -0.17030517612E+02  0.14228314536E+03  0.12499720857E+03 0.  0.
          2    1    1    2  501    0  0.91195777255E+02  0.22332470408E+02 -0.18107778659E+04  0.18132103817E+04  0.00000000000E+00 0. -1.
          1    1    1    2  502    0 -0.65044842737E+02  0.38051976246E+02  0.17235989762E+04  0.17252455522E+04  0.00000000000E+00 0. -1.
         22    1    3    3    0    0  0.48734677376E+02 -0.36513276481E+02  0.36649574975E+01  0.61005901778E+02  0.00000000000E+00 0.  1.
         22    1    3    3    0    0 -0.74885611894E+02 -0.23871170173E+02 -0.20695475110E+02  0.81277243581E+02  0.00000000000E+00 0.  1.
</event>
<event>
 7    1  0.5854318E-006  0.7331729E+02  0.7818608E-02  0.1359391E+00
          2   -1    0    0  502    0  0.00000000000E+00  0.00000000000E+00  0.19725654309E+04  0.19725654309E+04  0.00000000000E+00 0. -1.
          1   -1    0    0  501    0 -0.00000000000E+00 -0.00000000000E+00 -0.98730046624E+03  0.98730046624E+03  0.00000000000E+00 0. -1.
         25    2    1    2    0    0  0.12649694384E+03 -0.60649916366E+01  0.88992383878E+03  0.90753930754E+03  0.12499957992E+03 0.  0.
          2    1    1    2  501    0 -0.68040505107E+02 -0.27138943605E+02 -0.97606668866E+03  0.97881163321E+03  0.00000000000E+00 0. -1.
          1    1    1    2  502    0 -0.58456438734E+02  0.33203935241E+02  0.10714078145E+04  0.10735149564E+04  0.00000000000E+00 0. -1.
         22    1    3    3    0    0  0.54656328472E+02  0.27247648877E+02  0.68703827042E+03  0.68974729694E+03  0.00000000000E+00 0. -1.
         22    1    3    3    0    0  0.71840615370E+02 -0.33312640513E+02  0.20288556836E+03  0.21779201061E+03  0.00000000000E+00 0. -1.
</event>
<event>
 7    1  0.5854318E-006  0.3817048E+02  0.7818608E-02  0.1608571E+00
          2   -1    0    0  502    0  0.00000000000E+00  0.00000000000E+00  0.12832524200E+03  0.12832524200E+03  0.00000000000E+00 0. -1.
          1   -1    0    0  501    0 -0.00000000000E+00 -0.00000000000E+00 -0.64564408592E+03  0.64564408592E+03  0.00000000000E+00 0. -1.
         25    2    1    2    0    0 -0.55265887915E+02 -0.62183791484E+01 -0.38355693051E+03  0.40722680957E+03  0.12499907552E+03 0.  0.
          2    1    1    2  501    0  0.34088297404E+02  0.12686327066E+02 -0.24786053473E+03  0.25051506859E+03  0.00000000000E+00 0. -1.
          1    1    1    2  502    0  0.21177590512E+02 -0.64679479176E+01  0.11409862132E+03  0.11622744976E+03  0.00000000000E+00 0. -1.
         22    1    3    3    0    0 -0.63154476059E+02  0.22386235482E+02 -0.90153018888E+02  0.11232630235E+03  0.00000000000E+00 0. -1.
         22    1    3    3    0    0  0.78885881437E+01 -0.28604614631E+02 -0.29340391162E+03  0.29490050722E+03  0.00000000000E+00 0. -1.
</event>
<event>
 7    1  0.5854318E-006  0.8393812E+02  0.7818608E-02  0.1499188E+00
          2   -1    0    0  502    0  0.00000000000E+00  0.00000000000E+00  0.35503174539E+03  0.35503174539E+03  0.00000000000E+00 0. -1.
          1   -1    0    0  501    0 -0.00000000000E+00 -0.00000000000E+00 -0.98899754948E+03  0.98899754948E+03  0.00000000000E+00 0. -1.
         25    2    1    2    0    0 -0.92347957139E+02 -0.70702979056E+01 -0.24450777612E+03  0.28980555929E+03  0.12500030124E+03 0.  0.
          2    1    1    2  501    0  0.79932033602E+02  0.23098517862E+02 -0.71913084843E+03  0.72392806873E+03  0.00000000000E+00 0. -1.
          1    1    1    2  502    0  0.12415923538E+02 -0.16028219956E+02  0.32967282047E+03  0.33029566686E+03  0.00000000000E+00 0. -1.
         22    1    3    3    0    0 -0.11645157999E+03 -0.25866943359E+02 -0.15744002045E+03  0.19752829995E+03  0.00000000000E+00 0.  1.
         22    1    3    3    0    0  0.24103622846E+02  0.18796645453E+02 -0.87067755665E+02  0.92277259339E+02  0.00000000000E+00 0.  1.
</event>
<event>
 7    1  0.5854318E-006  0.4718579E+02  0.7818608E-02  0.1473661E+00
          2   -1    0    0  502    0  0.00000000000E+00  0.00000000000E+00  0.18530302480E+04  0.18530302480E+04  0.00000000000E+00 0. -1.
          1   -1    0    0  501    0 -0.00000000000E+00 -0.00000000000E+00 -0.68417168450E+03  0.68417168450E+03  0.00000000000E+00 0. -1.
         25    2    1    2    0    0 -0.32649974935E+02  0.43223264362E+01  0.53212254198E+03  0.54759826550E+03  0.12499902930E+03 0.  0.
          2    1    1    2  501    0  0.16436262402E+02 -0.44282398147E+02 -0.67525454683E+03  0.67690456087E+03  0.00000000000E+00 0. -1.
          1    1    1    2  502    0  0.16213712533E+02  0.39960071711E+02  0.13119905684E+04  0.13126991062E+04  0.00000000000E+00 0. -1.
         22    1    3    3    0    0  0.10175008412E+02 -0.50382985965E+02  0.13518986375E+03  0.14463151570E+03  0.00000000000E+00 0. -1.
         22    1    3    3    0    0 -0.42824983347E+02  0.54705312401E+02  0.39693267823E+03  0.40296674981E+03  0.00000000000E+00 0. -1.
</event>
<event>
 7    1  0.5854318E-006  0.1154619E+03  0.7818608E-02  0.1394754E+00
          2   -1    0    0  502    0  0.00000000000E+00  0.00000000000E+00  0.11525635750E+04  0.11525635750E+04  0.00000000000E+00 0. -1.
          1   -1    0    0  501    0 -0.00000000000E+00 -0.00000000000E+00 -0.12185947854E+03  0.12185947854E+03  0.00000000000E+00 0. -1.
         25    2    1    2    0    0  0.66020905990E+02 -0.58259673872E+02  0.20774827115E+03  0.25794681597E+03  0.12499706426E+03 0.  0.
          2    1    1    2  501    0 -0.87406565048E+02  0.82000237837E+02 -0.59247488553E+02  0.13369447079E+03  0.00000000000E+00 0. -1.
          1    1    1    2  502    0  0.21385659058E+02 -0.23740563965E+02  0.88220331390E+03  0.88278176683E+03  0.00000000000E+00 0. -1.
         22    1    3    3    0    0  0.58985359598E+02 -0.96997587563E+02  0.15427069456E+03  0.19153916529E+03  0.00000000000E+00 0. -1.
         22    1    3    3    0    0  0.70355463920E+01  0.38737913691E+02  0.53477576587E+02  0.66407650672E+02  0.00000000000E+00 0. -1.
</event>
<event>
 7    1  0.5854318E-006  0.1575991E+03  0.7818608E-02  0.1359546E+00
          2   -1    0    0  502    0  0.00000000000E+00  0.00000000000E+00  0.14282758542E+04  0.14282758542E+04  0.00000000000E+00 0. -1.
          1   -1    0    0  501    0 -0.00000000000E+00 -0.00000000000E+00 -0.12563282397E+04  0.12563282397E+04  0.00000000000E+00 0. -1.
         25    2    1    2    0    0  0.17853975891E+03 -0.53888343888E+02 -0.49314336779E+03  0.54184416632E+03  0.12499728100E+03 0.  0.
          2    1    1    2  501    0 -0.25236400687E+02  0.18404968219E+02 -0.73409208388E+03  0.73475629047E+03  0.00000000000E+00 0. -1.
          1    1    1    2  502    0 -0.15330335822E+03  0.35483375669E+02  0.13991830661E+04  0.14080036371E+04  0.00000000000E+00 0. -1.
         22    1    3    3    0    0  0.69205335506E+02 -0.19551083503E+02 -0.35567897761E+03  0.36287623019E+03  0.00000000000E+00 0. -1.
         22    1    3    3    0    0  0.10933442340E+03 -0.34337260385E+02 -0.13746439019E+03  0.17896793613E+03  0.00000000000E+00 0. -1.
</event>
<event>
 7    1  0.5854318E-006  0.6021010E+02  0.7818608E-02  0.1441367E+00
          2   -1    0    0  502    0  0.00000000000E+00  0.00000000000E+00  0.12776183814E+04  0.12776183814E+04  0.00000000000E+00 0. -1.
          1   -1    0    0  501    0 -0.00000000000E+00 -0.00000000000E+00 -0.43616548410E+03  0.43616548410E+03  0.00000000000E+00 0. -1.
         25    2    1    2    0    0  0.89548077548E+02 -0.49057584683E+02  0.18393759232E+03  0.24471009993E+03  0.12499796131E+03 0.  0.
          2    1    1    2  501    0 -0.54525865621E+02  0.24512590441E+02 -0.40314406441E+03  0.40755254113E+03  0.00000000000E+00 0. -1.
          1    1    1    2  502    0 -0.35022211927E+02  0.24544994242E+02  0.10606593694E+04  0.10615212245E+04  0.00000000000E+00 0. -1.
         22    1    3    3    0    0  0.56248021599E+02 -0.84837653521E+02  0.16156007679E+03  0.19095267948E+03  0.00000000000E+00 0.  1.
         22    1    3    3    0    0  0.33300055949E+02  0.35780068839E+02  0.22377515537E+02  0.53757420455E+02  0.00000000000E+00 0.  1.
</event>
<event>
 7    1  0.5854318E-006  0.6315180E+02  0.7818608E-02  0.1470847E+00
          2   -1    0    0  502    0  0.00000000000E+00  0.00000000000E+00  0.15807383833E+04  0.15807383833E+04  0.00000000000E+00 0. -1.
          1   -1    0    0  501    0 -0.00000000000E+00 -0.00000000000E+00 -0.29765558330E+03  0.29765558330E+03  0.00000000000E+00 0. -1.
         25    2    1    2    0    0  0.26755469928E+02 -0.57411406842E+02  0.51009799989E+03  0.52899642839E+03  0.12500130779E+03 0.  0.
          2    1    1    2  501    0 -0.32271933634E+02 -0.62697560457E+01 -0.28630232690E+03  0.28818363925E+03  0.00000000000E+00 0. -1.
          1    1    1    2  502    0  0.55164637060E+01  0.63681162887E+02  0.10592871270E+04  0.10612138990E+04  0.00000000000E+00 0. -1.
         22    1    3    3    0    0  0.61730609237E+02 -0.76064206048E+02  0.31375686521E+03  0.32869408578E+03  0.00000000000E+00 0.  1.
         22    1    3    3    0    0 -0.34975139309E+02  0.18652799206E+02  0.19634113468E+03  0.20030234261E+03  0.00000000000E+00 0.  1.
</event>
<event>
 7    1  0.5854318E-006  0.1152190E+03  0.7818608E-02  0.1255724E+00
          2   -1    0    0  502    0  0.00000000000E+00  0.00000000000E+00  0.65729056425E+03  0.65729056425E+03  0.00000000000E+00 0. -1.
          1   -1    0    0  501    0 -0.00000000000E+00 -0.00000000000E+00 -0.11741785485E+04  0.11741785485E+04  0.00000000000E+00 0. -1.
         25    2    1    2    0    0 -0.13766181730E+03  0.16934956860E+03 -0.12496130790E+03  0.28084208507E+03  0.12500758356E+03 0.  0.
          2    1    1    2  501    0  0.85252517253E+02 -0.69759130161E+02 -0.96264082611E+03  0.96892295258E+03  0.00000000000E+00 0. -1.
          1    1    1    2  502    0  0.52409300045E+02 -0.99590438443E+02  0.57071414980E+03  0.58170407506E+03  0.00000000000E+00 0. -1.
         22    1    3    3    0    0 -0.49118814282E+02  0.11689027419E+03 -0.12482558787E+03  0.17792532563E+03  0.00000000000E+00 0.  1.
         22    1    3    3    0    0 -0.88543003015E+02  0.52459294418E+02 -0.13572003569E+00  0.10291675944E+03  0.00000000000E+00 0.  1.
</event>
<event>
 7    1  0.5854318E-006  0.1044271E+03  0.7818608E-02  0.1325857E+00
          2   -1    0    0  502    0  0.00000000000E+00  0.00000000000E+00  0.55435133336E+03  0.55435133336E+03  0.00000000000E+00 0. -1.
          1   -1    0    0  501    0 -0.00000000000E+00 -0.00000000000E+00 -0.33746663848E+04  0.33746663848E+04  0.00000000000E+00 0. -1.
         25    2    1    2    0    0  0.40465845699E+01 -0.10287369170E+03 -0.88471632290E+03  0.89941522537E+03  0.12500161729E+03 0.  0.
          2    1    1    2  501    0  0.59762191305E+02  0.20064836319E+02 -0.24772010476E+04  0.24780030563E+04  0.00000000000E+00 0. -1.
          1    1    1    2  502    0 -0.63808775875E+02  0.82808855378E+02  0.54160231899E+03  0.55159943650E+03  0.00000000000E+00 0. -1.
         22    1    3    3    0    0 -0.18946349657E+02  0.20874624268E+00 -0.50301097315E+03  0.50336770541E+03  0.00000000000E+00 0.  1.
         22    1    3    3    0    0  0.22992934227E+02 -0.10308243794E+03 -0.38170534976E+03  0.39604751996E+03  0.00000000000E+00 0.  1.
</event>
<event>
 7    1  0.5854318E-006  0.5051157E+02  0.7818608E-02  0.1477651E+00
          2   -1    0    0  502    0  0.00000000000E+00  0.00000000000E+00  0.66163136150E+03  0.66163136150E+03  0.00000000000E+00 0. -1.
          1   -1    0    0  501    0 -0.00000000000E+00 -0.00000000000E+00 -0.81407298617E+03  0.81407298617E+03  0.00000000000E+00 0. -1.
         25    2    1    2    0    0 -0.16922934711E+02 -0.25335394157E+01 -0.31632913367E+03  0.34056115340E+03  0.12499989544E+03 0.  0.
          2    1    1    2  501    0  0.53963859188E+02 -0.10168562954E+02 -0.48348196364E+03  0.48659049203E+03  0.00000000000E+00 0. -1.
          1    1    1    2  502    0 -0.37040924477E+02  0.12702102370E+02  0.64736947263E+03  0.64855270224E+03  0.00000000000E+00 0. -1.
         22    1    3    3    0    0  0.40073919365E+02 -0.18745784184E+02 -0.23940796977E+03  0.24346149476E+03  0.00000000000E+00 0. -1.
         22    1    3    3    0    0 -0.56996854076E+02  0.16212244768E+02 -0.76921163892E+02  0.97099658647E+02  0.00000000000E+00 0. -1.
</event>
<event>
 7    1  0.5854318E-006  0.2122522E+03  0.7818608E-02  0.1290424E+00
          2   -1    0    0  502    0  0.00000000000E+00  0.00000000000E+00  0.16805419469E+04  0.16805419469E+04  0.00000000000E+00 0. -1.
          1   -1    0    0  501    0 -0.00000000000E+00 -0.00000000000E+00 -0.38622137807E+03  0.38622137807E+03  0.00000000000E+00 0. -1.
         25    2    1    2    0    0 -0.11093732103E+03  0.14434102442E+03  0.77803807321E+01  0.22096965258E+03  0.12500253002E+03 0.  0.
          2    1    1    2  501    0  0.14328578453E+03 -0.17239752520E+03 -0.23434943149E+03  0.32430137031E+03  0.00000000000E+00 0. -1.
          1    1    1    2  502    0 -0.32348463500E+02  0.28056500785E+02  0.15208896196E+04  0.15214923021E+04  0.00000000000E+00 0. -1.
         22    1    3    3    0    0 -0.79573045722E+01 -0.22019717744E+02 -0.78430716812E+01  0.24692112890E+02  0.00000000000E+00 0. -1.
         22    1    3    3    0    0 -0.10298001646E+03  0.16636074216E+03  0.15623452413E+02  0.19627753969E+03  0.00000000000E+00 0. -1.
</event>
<event>
 7    1  0.5854318E-006  0.4707110E+02  0.7818608E-02  0.1484399E+00
          2   -1    0    0  502    0  0.00000000000E+00  0.00000000000E+00  0.40039996451E+03  0.40039996451E+03  0.00000000000E+00 0. -1.
          1   -1    0    0  501    0 -0.00000000000E+00 -0.00000000000E+00 -0.12929139411E+04  0.12929139411E+04  0.00000000000E+00 0. -1.
         25    2    1    2    0    0 -0.74030562319E+02  0.38236428042E+01 -0.42176118401E+03  0.44609773669E+03  0.12500219973E+03 0.  0.
          2    1    1    2  501    0  0.39395494144E+02 -0.23968204833E+02 -0.85732940338E+03  0.85856868432E+03  0.00000000000E+00 0. -1.
          1    1    1    2  502    0  0.34635068174E+02  0.20144562029E+02  0.38657661076E+03  0.38864748463E+03  0.00000000000E+00 0. -1.
         22    1    3    3    0    0  0.81329148896E+01 -0.45080718875E+01 -0.29287708564E+03  0.29302466502E+03  0.00000000000E+00 0. -1.
         22    1    3    3    0    0 -0.82163477208E+02  0.83317146916E+01 -0.12888409837E+03  0.15307307167E+03  0.00000000000E+00 0. -1.
</event>
<event>
 7    1  0.5854318E-006  0.2163147E+03  0.7818608E-02  0.1177996E+00
          2   -1    0    0  502    0  0.00000000000E+00  0.00000000000E+00  0.98612346193E+03  0.98612346193E+03  0.00000000000E+00 0. -1.
          1   -1    0    0  501    0 -0.00000000000E+00 -0.00000000000E+00 -0.16792644933E+03  0.16792644933E+03  0.00000000000E+00 0. -1.
         25    2    1    2    0    0 -0.34337085382E+02  0.11298057418E+03  0.49880870040E+03  0.52761602229E+03  0.12499960723E+03 0.  0.
          2    1    1    2  501    0  0.14561698876E+03 -0.18650987242E+03 -0.42804618388E+02  0.24046304348E+03  0.00000000000E+00 0. -1.
          1    1    1    2  502    0 -0.11127990338E+03  0.73529298244E+02  0.36219293059E+03  0.38597084549E+03  0.00000000000E+00 0. -1.
         22    1    3    3    0    0 -0.51472412890E+02 -0.53233467085E+01  0.17283825681E+03  0.18041843123E+03  0.00000000000E+00 0.  1.
         22    1    3    3    0    0  0.17135327508E+02  0.11830392089E+03  0.32597044359E+03  0.34719759106E+03  0.00000000000E+00 0.  1.
</event>
<event>
 7    1  0.5854318E-006  0.3902022E+02  0.7818608E-02  0.1522142E+00
          2   -1    0    0  502    0  0.00000000000E+00  0.00000000000E+00  0.24384754498E+04  0.24384754498E+04  0.00000000000E+00 0. -1.
          1   -1    0    0  501    0 -0.00000000000E+00 -0.00000000000E+00 -0.80926366435E+01  0.80926366435E+01  0.00000000000E+00 0. -1.
         25    2    1    2    0    0  0.31054134539E+02  0.47226810226E+01  0.10233708960E+04  0.10314550553E+04  0.12499950909E+03 0.  0.
          2    1    1    2  501    0 -0.10948612101E+02 -0.38164354852E+02  0.10107774504E+03  0.10859604335E+03  0.00000000000E+00 0. -1.
          1    1    1    2  502    0 -0.20105522438E+02  0.33441673829E+02  0.13059341720E+04  0.13065169877E+04  0.00000000000E+00 0. -1.
         22    1    3    3    0    0 -0.29515442310E+02  0.33856596448E+02  0.68514283758E+03  0.68661352910E+03  0.00000000000E+00 0.  1.
         22    1    3    3    0    0  0.60569576850E+02 -0.29133915426E+02  0.33822805846E+03  0.34484152621E+03  0.00000000000E+00 0.  1.
</event>
<event>
 7    1  0.5854318E-006  0.1159914E+03  0.7818608E-02  0.1310853E+00
          2   -1    0    0  502    0  0.00000000000E+00  0.00000000000E+00  0.27944385120E+03  0.27944385120E+03  0.00000000000E+00 0. -1.
          1   -1    0    0  501    0 -0.00000000000E+00 -0.00000000000E+00 -0.45475897481E+03  0.45475897481E+03  0.00000000000E+00 0. -1.
         25    2    1    2    0    0  0.36024743305E+02  0.52727517498E+02 -0.63560256217E+02  0.15408727523E+03  0.12500003595E+03 0.  0.
          2    1    1    2  501    0  0.58624961945E+02  0.27885281845E+02 -0.32600491504E+03  0.33240589606E+03  0.00000000000E+00 0. -1.
          1    1    1    2  502    0 -0.94649705250E+02 -0.80612799343E+02  0.21425004765E+03  0.24770965471E+03  0.00000000000E+00 0. -1.
         22    1    3    3    0    0  0.16825457581E+02  0.84619551795E+02 -0.75858804041E+02  0.11488308282E+03  0.00000000000E+00 0. -1.
         22    1    3    3    0    0  0.19199285724E+02 -0.31892034298E+02  0.12298547823E+02  0.39204192410E+02  0.00000000000E+00 0. -1.
</event>
<event>
 7    1  0.5854318E-006  0.1454520E+03  0.7818608E-02  0.1310519E+00
          2   -1    0    0  502    0  0.00000000000E+00  0.00000000000E+00  0.37432697021E+03  0.37432697021E+03  0.00000000000E+00 0. -1.
          1   -1    0    0  501    0 -0.00000000000E+00 -0.00000000000E+00 -0.26288835801E+03  0.26288835801E+03  0.00000000000E+00 0. -1.
         25    2    1    2    0    0 -0.12565555729E+03  0.11567496158E+03  0.80752740725E+02  0.22653021743E+03  0.12499967385E+03 0.  0.
          2    1    1    2  501    0  0.20997290594E+01 -0.51884246394E+02 -0.16366964469E+03  0.17170945367E+03  0.00000000000E+00 0. -1.
          1    1    1    2  502    0  0.12355582823E+03 -0.63790715183E+02  0.19435551616E+03  0.23897565712E+03  0.00000000000E+00 0. -1.
         22    1    3    3    0    0 -0.13631720718E+03  0.51811590777E+02  0.66271036392E+02  0.16018324562E+03  0.00000000000E+00 0.  1.
         22    1    3    3    0    0  0.10661649892E+02  0.63863370800E+02  0.14481704332E+02  0.66346971813E+02  0.00000000000E+00 0.  1.
</event>
<event>
 7    1  0.5854318E-006  0.4389597E+02  0.7818608E-02  0.1528986E+00
          2   -1    0    0  502    0  0.00000000000E+00  0.00000000000E+00  0.10906490622E+04  0.10906490622E+04  0.00000000000E+00 0. -1.
          1   -1    0    0  501    0 -0.00000000000E+00 -0.00000000000E+00 -0.61867661450E+03  0.61867661450E+03  0.00000000000E+00 0. -1.
         25    2    1    2    0    0  0.61136014506E+02  0.21355260314E+02  0.18685780020E+03  0.23395418196E+03  0.12500024940E+03 0.  0.
          2    1    1    2  501    0 -0.30288682687E+02  0.94003864687E+01 -0.59416637511E+03  0.59501214515E+03  0.00000000000E+00 0. -1.
          1    1    1    2  502    0 -0.30847331819E+02 -0.30755646783E+02  0.87928102257E+03  0.88035934955E+03  0.00000000000E+00 0. -1.
         22    1    3    3    0    0  0.73954423347E+02  0.41461029603E+02  0.57560779806E+02  0.10247690999E+03  0.00000000000E+00 0. -1.
         22    1    3    3    0    0 -0.12818408841E+02 -0.20105769289E+02  0.12929702039E+03  0.13147727198E+03  0.00000000000E+00 0. -1.
</event>
<event>
 7    1  0.5854318E-006  0.5361945E+02  0.7818608E-02  0.1492857E+00
          2   -1    0    0  502    0  0.00000000000E+00  0.00000000000E+00  0.10314060623E+04  0.10314060623E+04  0.00000000000E+00 0. -1.
          1   -1    0    0  501    0 -0.00000000000E+00 -0.00000000000E+00 -0.10542889348E+04  0.10542889348E+04  0.00000000000E+00 0. -1.
         25    2    1    2    0    0 -0.20022445389E+02 -0.10636602512E+02  0.19668366069E+03  0.23414314713E+03  0.12499806132E+03 0.  0.
          2    1    1    2  501    0 -0.23116467927E+02 -0.23771101090E+02 -0.10343603588E+04  0.10348916794E+04  0.00000000000E+00 0. -1.
          1    1    1    2  502    0  0.43138913315E+02  0.34407703602E+02  0.81479382560E+03  0.81666017054E+03  0.00000000000E+00 0. -1.
         22    1    3    3    0    0  0.21376374011E+02 -0.35293337027E+02  0.11559535703E+02  0.42850809445E+02  0.00000000000E+00 0. -1.
         22    1    3    3    0    0 -0.41398819400E+02  0.24656734515E+02  0.18512412499E+03  0.19129233768E+03  0.00000000000E+00 0. -1.
</event>
<event>
 7    1  0.5854318E-006  0.5398016E+02  0.7818608E-02  0.1507694E+00
          2   -1    0    0  502    0  0.00000000000E+00  0.00000000000E+00  0.63704633023E+02  0.63704633023E+02  0.00000000000E+00 0. -1.
          1   -1    0    0  501    0 -0.00000000000E+00 -0.00000000000E+00 -0.97982932492E+03  0.97982932492E+03  0.00000000000E+00 0. -1.
         25    2    1    2    0    0 -0.33757824202E+02  0.44732509796E+01 -0.38045244204E+03  0.40190791789E+03  0.12500525244E+03 0.  0.
          2    1    1    2  501    0  0.54341144063E+02  0.16999866489E+02 -0.58297467794E+03  0.58574860693E+03  0.00000000000E+00 0. -1.
          1    1    1    2  502    0 -0.20583319861E+02 -0.21473117469E+02  0.47302428083E+02  0.55877433128E+02  0.00000000000E+00 0. -1.
         22    1    3    3    0    0  0.43358896545E+02 -0.10194587919E+02 -0.82131899032E+02  0.93432180597E+02  0.00000000000E+00 0.  1.
         22    1    3    3    0    0 -0.77116720746E+02  0.14667838898E+02 -0.29832054301E+03  0.30847573729E+03  0.00000000000E+00 0.  1.
</event>
<event>
 7    1  0.5854318E-006  0.1660124E+03  0.7818608E-02  0.1371825E+00
          2   -1    0    0  502    0  0.00000000000E+00  0.00000000000E+00  0.42237161908E+03  0.42237161908E+03  0.00000000000E+00 0. -1.
          1   -1    0    0  501    0 -0.00000000000E+00 -0.00000000000E+00 -0.31183522486E+03  0.31183522486E+03  0.00000000000E+00 0. -1.
         25    2    1    2    0    0  0.18123566082E+02 -0.16380237485E+03  0.16316769333E+02  0.20748906817E+03  0.12500317915E+03 0.  0.
          2    1    1    2  501    0  0.26576094144E+02  0.32023749023E+01 -0.19288014638E+03  0.19472877253E+03  0.00000000000E+00 0. -1.
          1    1    1    2  502    0 -0.44699660226E+02  0.16059999995E+03  0.28709977126E+03  0.33198900323E+03  0.00000000000E+00 0. -1.
         22    1    3    3    0    0  0.70229030983E+02 -0.86566822670E+02  0.23926729920E+02  0.11401061347E+03  0.00000000000E+00 0.  1.
         22    1    3    3    0    0 -0.52105464901E+02 -0.77235552178E+02 -0.76099605870E+01  0.93478454699E+02  0.00000000000E+00 0.  1.
</event>
<event>
 7    1  0.5854318E-006  0.1109230E+03  0.7818608E-02  0.1421980E+00
          2   -1    0    0  502    0  0.00000000000E+00  0.00000000000E+00  0.15336312080E+04  0.15336312080E+04  0.00000000000E+00 0. -1.
          1   -1    0    0  501    0 -0.00000000000E+00 -0.00000000000E+00 -0.13811847397E+03  0.13811847397E+03  0.00000000000E+00 0. -1.
         25    2    1    2    0    0 -0.24773476319E+02 -0.91535067776E+02  0.12295187647E+04  0.12394898835E+04  0.12500553951E+03 0.  0.
          2    1    1    2  501    0  0.63258301240E+01  0.11108551439E+03 -0.10911548062E+03  0.15584028923E+03  0.00000000000E+00 0. -1.
          1    1    1    2  502    0  0.18447646195E+02 -0.19550446618E+02  0.27510944994E+03  0.27641950919E+03  0.00000000000E+00 0. -1.
         22    1    3    3    0    0 -0.14121576856E+01 -0.17758521290E+02  0.92888099992E+03  0.92905181302E+03  0.00000000000E+00 0. -1.
         22    1    3    3    0    0 -0.23361318633E+02 -0.73776546486E+02  0.30063776477E+03  0.31043807051E+03  0.00000000000E+00 0. -1.
</event>
<event>
 7    1  0.5854318E-006  0.1077228E+03  0.7818608E-02  0.1291337E+00
          2   -1    0    0  502    0  0.00000000000E+00  0.00000000000E+00  0.17411078278E+04  0.17411078278E+04  0.00000000000E+00 0. -1.
          1   -1    0    0  501    0 -0.00000000000E+00 -0.00000000000E+00 -0.94373282698E+02  0.94373282698E+02  0.00000000000E+00 0. -1.
         25    2    1    2    0    0 -0.56282736088E+01  0.18771230955E+02  0.51780675788E+03  0.53304159808E+03  0.12500188079E+03 0.  0.
          2    1    1    2  501    0  0.10180081345E+03  0.35224806445E+02 -0.49719329407E+02  0.11864318069E+03  0.00000000000E+00 0. -1.
          1    1    1    2  502    0 -0.96172539839E+02 -0.53996037401E+02  0.11786471166E+04  0.11837963317E+04  0.00000000000E+00 0. -1.
         22    1    3    3    0    0  0.15325012571E+02  0.43295684062E+02  0.67866276918E+02  0.81946347151E+02  0.00000000000E+00 0. -1.
         22    1    3    3    0    0 -0.20953286179E+02 -0.24524453106E+02  0.44994048097E+03  0.45109525093E+03  0.00000000000E+00 0. -1.
</event>
<event>
 7    1  0.5854318E-006  0.1260755E+03  0.7818608E-02  0.1282613E+00
          2   -1    0    0  502    0  0.00000000000E+00  0.00000000000E+00  0.90701483844E+03  0.90701483844E+03  0.00000000000E+00 0. -1.
          1   -1    0    0  501    0 -0.00000000000E+00 -0.00000000000E+00 -0.53591131929E+03  0.53591131929E+03  0.00000000000E+00 0. -1.
         25    2    1    2    0    0  0.12015666878E+02 -0.13500218772E+03  0.69873362166E+02  0.19717706088E+03  0.12500615848E+03 0.  0.
          2    1    1    2  501    0 -0.80331905286E+02  0.98213184914E+02 -0.46173378914E+03  0.47884980603E+03  0.00000000000E+00 0. -1.
          1    1    1    2  502    0  0.68316238408E+02  0.36789002809E+02  0.76296394612E+03  0.76689929081E+03  0.00000000000E+00 0. -1.
         22    1    3    3    0    0 -0.40379094240E+02 -0.63141682891E+02  0.77629776834E+02  0.10790609631E+03  0.00000000000E+00 0. -1.
         22    1    3    3    0    0  0.52394761117E+02 -0.71860504832E+02 -0.77564146684E+01  0.89270964573E+02  0.00000000000E+00 0. -1.
</event>
<event>
 7    1  0.5854318E-006  0.4372484E+02  0.7818608E-02  0.1578910E+00
          2   -1    0    0  502    0  0.00000000000E+00  0.00000000000E+00  0.19674972648E+02  0.19674972648E+02  0.00000000000E+00 0. -1.
          1   -1    0    0  501    0 -0.00000000000E+00 -0.00000000000E+00 -0.24109411742E+04  0.24109411742E+04  0.00000000000E+00 0. -1.
         25    2    1    2    0    0 -0.26335902958E+02  0.43243219783E+02 -0.46436255902E+03  0.48355179468E+03  0.12500478422E+03 0.  0.
          2    1    1    2  501    0  0.37243704108E+02 -0.22834510524E+02 -0.19231201857E+04  0.19236163228E+04  0.00000000000E+00 0. -1.
          1    1    1    2  502    0 -0.10907801149E+02 -0.20408709259E+02 -0.37834568296E+01  0.23448029451E+02  0.00000000000E+00 0. -1.
         22    1    3    3    0    0  0.38115434115E+02 -0.21145933952E+02 -0.13889614429E+03  0.14557498322E+03  0.00000000000E+00 0.  1.
         22    1    3    3    0    0 -0.64451337073E+02  0.64389153735E+02 -0.32546641472E+03  0.33797681145E+03  0.00000000000E+00 0.  1.
</event>
<event>
 7    1  0.5854318E-006  0.5161461E+02  0.7818608E-02  0.1526068E+00
          2   -1    0    0  502    0  0.00000000000E+00  0.00000000000E+00  0.15000737941E+04  0.15000737941E+04  0.00000000000E+00 0. -1.
          1   -1    0    0  501    0 -0.00000000000E+00 -0.00000000000E+00 -0.54478643026E+03  0.54478643026E+03  0.00000000000E+00 0. -1.
         25    2    1    2    0    0 -0.70381751215E+02 -0.20366353808E+02  0.59842587507E+01  0.14501599910E+03  0.12500179747E+03 0.  0.
          2    1    1    2  501    0  0.51261782802E+02  0.60463516983E+00 -0.47375491411E+03  0.47652057102E+03  0.00000000000E+00 0. -1.
          1    1    1    2  502    0  0.19119968412E+02  0.19761718638E+02  0.14230580192E+04  0.14233236543E+04  0.00000000000E+00 0. -1.
         22    1    3    3    0    0 -0.24078219857E+02  0.23969326157E+02 -0.49631846108E+02  0.60146566120E+02  0.00000000000E+00 0. -1.
         22    1    3    3    0    0 -0.46303531357E+02 -0.44335679965E+02  0.55616104858E+02  0.84869432977E+02  0.00000000000E+00 0. -1.
</event>
<event>
 7    1  0.5854318E-006  0.8313815E+02  0.7818608E-02  0.1380831E+00
          2   -1    0    0  502    0  0.00000000000E+00  0.00000000000E+00  0.27889074783E+04  0.27889074783E+04  0.00000000000E+00 0. -1.
          1   -1    0    0  501    0 -0.00000000000E+00 -0.00000000000E+00 -0.42048387866E+03  0.42048387866E+03  0.00000000000E+00 0. -1.
         25    2    1    2    0    0  0.60097777520E+02 -0.10457792401E+03  0.10750010105E+03  0.20427675028E+03  0.12499773568E+03 0.  0.
          2    1    1    2  501    0  0.17190293153E+01  0.49616830432E+02 -0.36978659204E+03  0.37310442047E+03  0.00000000000E+00 0. -1.
          1    1    1    2  502    0 -0.61816806835E+02  0.54961093576E+02  0.26307100907E+04  0.26320101863E+04  0.00000000000E+00 0. -1.
         22    1    3    3    0    0  0.61023068776E+02 -0.97499499043E+02  0.13413722961E+03  0.17669964235E+03  0.00000000000E+00 0.  1.
         22    1    3    3    0    0 -0.92529125614E+00 -0.70784249652E+01 -0.26637128562E+02  0.27577107933E+02  0.00000000000E+00 0.  1.
</event>
<event>
 7    1  0.5854318E-006  0.4835610E+02  0.7818608E-02  0.1542006E+00
          2   -1    0    0  502    0  0.00000000000E+00  0.00000000000E+00  0.30996595442E+04  0.30996595442E+04  0.00000000000E+00 0. -1.
          1   -1    0    0  501    0 -0.00000000000E+00 -0.00000000000E+00 -0.16596779079E+04  0.16596779079E+04  0.00000000000E+00 0. -1.
         25    2    1    2    0    0  0.30525472845E+02  0.67854056732E+02  0.24090217815E+03  0.28141393435E+03  0.12499586193E+03 0.  0.
          2    1    1    2  501    0 -0.89179439514E+01 -0.24886342354E+02 -0.16391117116E+04  0.16393248802E+04  0.00000000000E+00 0. -1.
          1    1    1    2  502    0 -0.21607528893E+02 -0.42967714378E+02  0.28381911696E+04  0.28385986376E+04  0.00000000000E+00 0. -1.
         22    1    3    3    0    0  0.14219950030E+02 -0.31315407361E+02  0.11659496528E+03  0.12156170304E+03  0.00000000000E+00 0. -1.
         22    1    3    3    0    0  0.16305522814E+02  0.99169464093E+02  0.12430721287E+03  0.15985223131E+03  0.00000000000E+00 0. -1.
</event>
<event>
 7    1  0.5854318E-006  0.7479004E+02  0.7818608E-02  0.1370159E+00
          2   -1    0    0  502    0  0.00000000000E+00  0.00000000000E+00  0.11422442673E+04  0.11422442673E+04  0.00000000000E+00 0. -1.
          1   -1    0    0  501    0 -0.00000000000E+00 -0.00000000000E+00 -0.19129584436E+03  0.19129584436E+03  0.00000000000E+00 0. -1.
         25    2    1    2    0    0  0.20547663093E+02 -0.10753032147E+03  0.39068994182E+03  0.42455405272E+03  0.12499014582E+03 0.  0.
          2    1    1    2  501    0 -0.50094347891E+02  0.55032157022E+02 -0.16511764642E+03  0.18111272500E+03  0.00000000000E+00 0. -1.
          1    1    1    2  502    0  0.29546684798E+02  0.52498164446E+02  0.72537612753E+03  0.72787333393E+03  0.00000000000E+00 0. -1.
         22    1    3    3    0    0 -0.36586740398E+02 -0.63552843544E+02  0.29927256294E+03  0.30812598142E+03  0.00000000000E+00 0.  1.
         22    1    3    3    0    0  0.57134403491E+02 -0.43977477924E+02  0.91417378876E+02  0.11642807130E+03  0.00000000000E+00 0.  1.
</event>
<event>
 7    1  0.5854318E-006  0.1014978E+03  0.7818608E-02  0.1321643E+00
          2   -1    0    0  502    0  0.00000000000E+00  0.00000000000E+00  0.30711765346E+04  0.30711765346E+04  0.00000000000E+00 0. -1.
          1   -1    0    0  501    0 -0.00000000000E+00 -0.00000000000E+00 -0.40724287028E+03  0.40724287028E+03  0.00000000000E+00 0. -1.
         25    2    1    2    0    0 -0.23177979848E+00  0.57806217992E+02  0.24716926654E+03  0.28294677750E+03  0.12499848006E+03 0.  0.
          2    1    1    2  501    0  0.63419040602E+02 -0.81069041763E+02 -0.38213973441E+03  0.39575869019E+03  0.00000000000E+00 0. -1.
          1    1    1    2  502    0 -0.63187260804E+02  0.23262823771E+02  0.27989041322E+04  0.27997139372E+04  0.00000000000E+00 0. -1.
         22    1    3    3    0    0  0.38564864406E+02 -0.24510170520E+02  0.99478778827E+02  0.10947157011E+03  0.00000000000E+00 0.  1.
         22    1    3    3    0    0 -0.38796644204E+02  0.82316388512E+02  0.14769048771E+03  0.17347520739E+03  0.00000000000E+00 0.  1.
</event>
<event>
 7    1  0.5854318E-006  0.2822958E+03  0.7818608E-02  0.1207444E+00
          2   -1    0    0  502    0  0.00000000000E+00  0.00000000000E+00  0.26552438098E+03  0.26552438098E+03  0.00000000000E+00 0. -1.
          1   -1    0    0  501    0 -0.00000000000E+00 -0.00000000000E+00 -0.15201014670E+04  0.15201014670E+04  0.00000000000E+00 0. -1.
         25    2    1    2    0    0  0.25977629045E+03 -0.13549707938E+03 -0.15971150611E+03  0.35633699532E+03  0.12500043778E+03 0.  0.
          2    1    1    2  501    0  0.13434709613E+02  0.72699479630E+02 -0.11425394755E+04  0.11449288881E+04  0.00000000000E+00 0. -1.
          1    1    1    2  502    0 -0.27321100006E+03  0.62797599754E+02  0.47673895636E+02  0.28435996451E+03  0.00000000000E+00 0. -1.
         22    1    3    3    0    0  0.76265975996E+02  0.18768311975E+02 -0.45715397363E+02  0.90877093841E+02  0.00000000000E+00 0.  1.
         22    1    3    3    0    0  0.18351031445E+03 -0.15426539136E+03 -0.11399610875E+03  0.26545990147E+03  0.00000000000E+00 0.  1.
</event>
<event>
 7    1  0.5854318E-006  0.5161194E+02  0.7818608E-02  0.1544530E+00
          2   -1    0    0  502    0  0.00000000000E+00  0.00000000000E+00  0.24008700664E+04  0.24008700664E+04  0.00000000000E+00 0. -1.
          1   -1    0    0  501    0 -0.00000000000E+00 -0.00000000000E+00 -0.10232410419E+03  0.10232410419E+03  0.00000000000E+00 0. -1.
         25    2    1    2    0    0 -0.53983853711E+02  0.50024457979E+02  0.35962624627E+03  0.38777991235E+03  0.12500208223E+03 0.  0.
          2    1    1    2  501    0  0.22246758012E+02 -0.99400938852E+01 -0.86236470528E+02  0.89612792377E+02  0.00000000000E+00 0. -1.
          1    1    1    2  502    0  0.31737095699E+02 -0.40084364093E+02  0.20251561864E+04  0.20258014658E+04  0.00000000000E+00 0. -1.
         22    1    3    3    0    0  0.22356070617E+02  0.27671998435E+02  0.24137956413E+02  0.42990398121E+02  0.00000000000E+00 0. -1.
         22    1    3    3    0    0 -0.76339924328E+02  0.22352459544E+02  0.33548828986E+03  0.34478951423E+03  0.00000000000E+00 0. -1.
</event>
<event>
 7    1  0.5854318E-006  0.6420466E+02  0.7818608E-02  0.1435235E+00
          2   -1    0    0  502    0  0.00000000000E+00  0.00000000000E+00  0.86159744385E+03  0.86159744385E+03  0.00000000000E+00 0. -1.
          1   -1    0    0  501    0 -0.00000000000E+00 -0.00000000000E+00 -0.84552189252E+03  0.84552189252E+03  0.00000000000E+00 0. -1.
         25    2    1    2    0    0  0.71747853676E+01 -0.46159864967E+02 -0.15845025977E+03  0.20716058141E+03  0.12500724375E+03 0.  0.
          2    1    1    2  501    0 -0.49119810694E+02  0.44187248757E+02 -0.66054087524E+03  0.66383696539E+03  0.00000000000E+00 0. -1.
          1    1    1    2  502    0  0.41945025327E+02  0.19726162097E+01  0.83506668633E+03  0.83612178957E+03  0.00000000000E+00 0. -1.
         22    1    3    3    0    0 -0.40921623307E+01 -0.74142003337E+02 -0.38828474458E+02  0.83793990716E+02  0.00000000000E+00 0.  1.
         22    1    3    3    0    0  0.11266947698E+02  0.27982138370E+02 -0.11962178531E+03  0.12336659070E+03  0.00000000000E+00 0.  1.
</event>
<event>
 7    1  0.5854318E-006  0.6656993E+02  0.7818608E-02  0.1465198E+00
          2   -1    0    0  502    0  0.00000000000E+00  0.00000000000E+00  0.47689649112E+04  0.47689649112E+04  0.00000000000E+00 0. -1.
          1   -1    0    0  501    0 -0.00000000000E+00 -0.00000000000E+00 -0.17473185306E+03  0.17473185306E+03  0.00000000000E+00 0. -1.
         25    2    1    2    0    0  0.29870598549E+02  0.66799662278E+02  0.27625491572E+04  0.27663437783E+04  0.12500242532E+03 0.  0.
          2    1    1    2  501    0  0.26069294755E+01 -0.66521121777E+02 -0.16628711295E+03  0.17911800483E+03  0.00000000000E+00 0. -1.
          1    1    1    2  502    0 -0.32477528024E+02 -0.27854050121E+00  0.19979710139E+04  0.19982349811E+04  0.00000000000E+00 0. -1.
         22    1    3    3    0    0  0.55831845638E+02 -0.15734342678E+02  0.10202056770E+04  0.10218534082E+04  0.00000000000E+00 0.  1.
         22    1    3    3    0    0 -0.25961247089E+02  0.82534004956E+02  0.17423434802E+04  0.17444903701E+04  0.00000000000E+00 0.  1.
</event>
<event>
 7    1  0.5854318E-006  0.1357500E+03  0.7818608E-02  0.1310602E+00
          2   -1    0    0  502    0  0.00000000000E+00  0.00000000000E+00  0.34352461652E+04  0.34352461652E+04  0.00000000000E+00 0. -1.
          1   -1    0    0  501    0 -0.00000000000E+00 -0.00000000000E+00 -0.76994719837E+03  0.76994719837E+03  0.00000000000E+00 0. -1.
         25    2    1    2    0    0  0.94416252596E+02 -0.52089019834E+02  0.35844656863E+03  0.39463497256E+03  0.12500049706E+03 0.  0.
          2    1    1    2  501    0 -0.13555057653E+03  0.14687460709E+02 -0.74541648238E+03  0.75778322264E+03  0.00000000000E+00 0. -1.
          1    1    1    2  502    0  0.41134323938E+02  0.37401559124E+02  0.30522688806E+04  0.30527751684E+04  0.00000000000E+00 0. -1.
         22    1    3    3    0    0  0.27067737543E+02 -0.65182605936E+02  0.28711590824E+03  0.29566362525E+03  0.00000000000E+00 0.  1.
         22    1    3    3    0    0  0.67348515053E+02  0.13093586103E+02  0.71330660386E+02  0.98971347308E+02  0.00000000000E+00 0.  1.
</event>
<event>
 7    1  0.5854318E-006  0.3539191E+02  0.7818608E-02  0.1557201E+00
          2   -1    0    0  502    0  0.00000000000E+00  0.00000000000E+00  0.29321574035E+02  0.29321574035E+02  0.00000000000E+00 0. -1.
          1   -1    0    0  501    0 -0.00000000000E+00 -0.00000000000E+00 -0.18535587723E+04  0.18535587723E+04  0.00000000000E+00 0. -1.
         25    2    1    2    0    0 -0.44236055135E+01 -0.73550795290E+01 -0.32276491266E+03  0.34623416608E+03  0.12500897342E+03 0.  0.
          2    1    1    2  501    0 -0.18273623247E+02  0.30977133301E+02 -0.15034001623E+04  0.15038302950E+04  0.00000000000E+00 0. -1.
          1    1    1    2  502    0  0.22697228760E+02 -0.23622053772E+02  0.19278766966E+01  0.32815885275E+02  0.00000000000E+00 0. -1.
         22    1    3    3    0    0 -0.30325744142E+02 -0.43115015625E+02 -0.27945879897E+03  0.28438666574E+03  0.00000000000E+00 0. -1.
         22    1    3    3    0    0  0.25902138629E+02  0.35759936096E+02 -0.43306113692E+02  0.61847500339E+02  0.00000000000E+00 0. -1.
</event>
<event>
 7    1  0.5854318E-006  0.1203190E+03  0.7818608E-02  0.1335365E+00
          2   -1    0    0  502    0  0.00000000000E+00  0.00000000000E+00  0.10481261782E+04  0.10481261782E+04  0.00000000000E+00 0. -1.
          1   -1    0    0  501    0 -0.00000000000E+00 -0.00000000000E+00 -0.13700674354E+03  0.13700674354E+03  0.00000000000E+00 0. -1.
         25    2    1    2    0    0  0.18816398249E+02  0.10714172695E+03  0.23292451819E+03  0.28585089118E+03  0.12499397711E+03 0.  0.
          2    1    1    2  501    0  0.30030561096E+02 -0.11926086337E+03 -0.75236327313E+02  0.14417174855E+03  0.00000000000E+00 0. -1.
          1    1    1    2  502    0 -0.48846959345E+02  0.12119136416E+02  0.75343124373E+03  0.75511028197E+03  0.00000000000E+00 0. -1.
         22    1    3    3    0    0  0.13857457104E+02  0.62560113442E+02  0.23231546627E+03  0.24099019229E+03  0.00000000000E+00 0.  1.
         22    1    3    3    0    0  0.49589411445E+01  0.44581613513E+02  0.60905192271E+00  0.44860698890E+02  0.00000000000E+00 0.  1.
</event>
<event>
 7    1  0.5854318E-006  0.2549083E+02  0.7818608E-02  0.1662362E+00
          2   -1    0    0  502    0  0.00000000000E+00  0.00000000000E+00  0.12277693591E+02  0.12277693591E+02  0.00000000000E+00 0. -1.
          1   -1    0    0  501    0 -0.00000000000E+00 -0.00000000000E+00 -0.14085333483E+04  0.14085333483E+04  0.00000000000E+00 0. -1.
         25    2    1    2    0    0  0.92569390330E+01 -0.21357361296E+02 -0.45879807691E+03  0.47609307568E+03  0.12500845383E+03 0.  0.
          2    1    1    2  501    0  0.16320853319E+02  0.19580916139E+02 -0.89324727882E+03  0.89361092409E+03  0.00000000000E+00 0. -1.
          1    1    1    2  502    0 -0.25577792352E+02  0.17764451567E+01 -0.44210298956E+02  0.51107042105E+02  0.00000000000E+00 0. -1.
         22    1    3    3    0    0  0.59438849506E+02  0.18507785826E+02 -0.19921764057E+03  0.20871795151E+03  0.00000000000E+00 0.  1.
         22    1    3    3    0    0 -0.50181910473E+02 -0.39865147121E+02 -0.25958043634E+03  0.26737512417E+03  0.00000000000E+00 0.  1.
</event>
<event>
 7    1  0.5854318E-006  0.1444415E+03  0.7818608E-02  0.1275456E+00
          2   -1    0    0  502    0  0.00000000000E+00  0.00000000000E+00  0.34378526928E+04  0.34378526928E+04  0.00000000000E+00 0. -1.
          1   -1    0    0  501    0 -0.00000000000E+00 -0.00000000000E+00 -0.29407223480E+03  0.29407223480E+03  0.00000000000E+00 0. -1.
         25    2    1    2    0    0  0.10882490365E+03 -0.16432246852E+03  0.56612257720E+03  0.61234327038E+03  0.12499910019E+03 0.  0.
          2    1    1    2  501    0 -0.66004202556E+02  0.30009974849E+02 -0.26433283089E+03  0.27409669614E+03  0.00000000000E+00 0. -1.
          1    1    1    2  502    0 -0.42820701099E+02  0.13431249367E+03  0.28419907116E+04  0.28454849610E+04  0.00000000000E+00 0. -1.
         22    1    3    3    0    0  0.11998813475E+03 -0.94359009082E+02  0.46066476777E+03  0.48529661378E+03  0.00000000000E+00 0.  1.
         22    1    3    3    0    0 -0.11163231096E+02 -0.69963459440E+02  0.10545780942E+03  0.12704665660E+03  0.00000000000E+00 0.  1.
</event>
<event>
 7    1  0.5854318E-006  0.3099358E+02  0.7818608E-02  0.1626420E+00
          2   -1    0    0  502    0  0.00000000000E+00  0.00000000000E+00  0.37893167141E+03  0.37893167141E+03  0.00000000000E+00 0. -1.
          1   -1    0    0  501    0 -0.00000000000E+00 -0.00000000000E+00 -0.40991274223E+03  0.40991274223E+03  0.00000000000E+00 0. -1.
         25    2    1    2    0    0 -0.14344337484E+02 -0.19069569015E+02 -0.22174461244E+03  0.25566596618E+03  0.12500001855E+03 0.  0.
          2    1    1    2  501    0 -0.67545088169E+01  0.31625830398E+02 -0.16925848093E+03  0.17232019587E+03  0.00000000000E+00 0. -1.
          1    1    1    2  502    0  0.21098846301E+02 -0.12556261382E+02  0.36002202256E+03  0.36085825159E+03  0.00000000000E+00 0. -1.
         22    1    3    3    0    0 -0.32069870310E+02 -0.58860980135E+02 -0.19080210770E+03  0.20223386429E+03  0.00000000000E+00 0. -1.
         22    1    3    3    0    0  0.17725532826E+02  0.39791411119E+02 -0.30942504744E+02  0.53432101892E+02  0.00000000000E+00 0. -1.
</event>
<event>
 7    1  0.5854318E-006  0.1104891E+03  0.7818608E-02  0.1275739E+00
          2   -1    0    0  502    0  0.00000000000E+00  0.00000000000E+00  0.19129164454E+04  0.19129164454E+04  0.00000000000E+00 0. -1.
          1   -1    0    0  501    0 -0.00000000000E+00 -0.00000000000E+00 -0.38705201042E+02  0.38705201042E+02  0.00000000000E+00 0. -1.
         25    2    1    2    0    0 -0.77865683518E+02  0.28084128505E+02  0.26551011641E+03  0.30491343273E+03  0.12499918639E+03 0.  0.
          2    1    1    2  501    0  0.43269815131E+02  0.84045945703E+02  0.11707956818E+03  0.15047798236E+03  0.00000000000E+00 0. -1.
          1    1    1    2  502    0  0.34595868387E+02 -0.11213007421E+03  0.14916215598E+04  0.14962302314E+04  0.00000000000E+00 0. -1.
         22    1    3    3    0    0 -0.61403623158E+02  0.27368951327E+02  0.27686003325E+03  0.28490514639E+03  0.00000000000E+00 0. -1.
         22    1    3    3    0    0 -0.16462060360E+02  0.71517717866E+00 -0.11349916836E+02  0.20008286331E+02  0.00000000000E+00 0. -1.
</event>
<event>
 7    1  0.5854318E-006  0.4567257E+02  0.7818608E-02  0.1575771E+00
          2   -1    0    0  502    0  0.00000000000E+00  0.00000000000E+00  0.19329501236E+03  0.19329501236E+03  0.00000000000E+00 0. -1.
          1   -1    0    0  501    0 -0.00000000000E+00 -0.00000000000E+00 -0.42173619232E+03  0.42173619232E+03  0.00000000000E+00 0. -1.
         25    2    1    2    0    0 -0.40419221366E+02  0.40288992719E+02 -0.73983520765E+02  0.15606379248E+03  0.12500171834E+03 0.  0.
          2    1    1    2  501    0  0.17874156725E+02 -0.41696459902E+02 -0.30418315706E+03  0.30754751386E+03  0.00000000000E+00 0. -1.
          1    1    1    2  502    0  0.22545064641E+02  0.14074671830E+01  0.14972549786E+03  0.15141989834E+03  0.00000000000E+00 0. -1.
         22    1    3    3    0    0  0.17561531910E+02 -0.33170238881E+02 -0.12747693458E+01  0.37553923728E+02  0.00000000000E+00 0.  1.
         22    1    3    3    0    0 -0.57980753276E+02  0.73459231601E+02 -0.72708751419E+02  0.11850986875E+03  0.00000000000E+00 0.  1.
</event>
<event>
 7    1  0.5854318E-006  0.4355882E+02  0.7818608E-02  0.1571514E+00
          2   -1    0    0  502    0  0.00000000000E+00  0.00000000000E+00  0.91656598073E+03  0.91656598073E+03  0.00000000000E+00 0. -1.
          1   -1    0    0  501    0 -0.00000000000E+00 -0.00000000000E+00 -0.38689392208E+03  0.38689392208E+03  0.00000000000E+00 0. -1.
         25    2    1    2    0    0 -0.16191495045E+02  0.11064087648E+02  0.64873829803E+02  0.14218769372E+03  0.12499659157E+03 0.  0.
          2    1    1    2  501    0 -0.19637504646E+02  0.14349109778E+02 -0.34721797874E+03  0.34806874795E+03  0.00000000000E+00 0. -1.
          1    1    1    2  502    0  0.35828999691E+02 -0.25413197426E+02  0.81201620758E+03  0.81320346113E+03  0.00000000000E+00 0. -1.
         22    1    3    3    0    0  0.35374824257E+02  0.41136227842E+02  0.30877635882E+00  0.54255532208E+02  0.00000000000E+00 0.  1.
         22    1    3    3    0    0 -0.51566319302E+02 -0.30072140194E+02  0.64565053444E+02  0.87932161514E+02  0.00000000000E+00 0.  1.
</event>
<event>
 7    1  0.5854318E-006  0.1395639E+03  0.7818608E-02  0.1345811E+00
          2   -1    0    0  502    0  0.00000000000E+00  0.00000000000E+00  0.11422150165E+04  0.11422150165E+04  0.00000000000E+00 0. -1.
          1   -1    0    0  501    0 -0.00000000000E+00 -0.00000000000E+00 -0.31643236058E+03  0.31643236058E+03  0.00000000000E+00 0. -1.
         25    2    1    2    0    0  0.23108915796E+02 -0.13848993358E+03 -0.37727281425E+02  0.19173381508E+03  0.12500009755E+03 0.  0.
          2    1    1    2  501    0 -0.60968131518E+02  0.12675117521E+03 -0.17675833020E+03  0.22589041762E+03  0.00000000000E+00 0. -1.
          1    1    1    2  502    0  0.37859215722E+02  0.11738758374E+02  0.10402682676E+04  0.10410231444E+04  0.00000000000E+00 0. -1.
         22    1    3    3    0    0  0.19984286280E+02 -0.14361682005E+03  0.83749950025E+01  0.14524222265E+03  0.00000000000E+00 0. -1.
         22    1    3    3    0    0  0.31246295165E+01  0.51268864707E+01 -0.46102276428E+02  0.46491592426E+02  0.00000000000E+00 0. -1.
</event>
<event>
 7    1  0.5854318E-006  0.7341096E+02  0.7818608E-02  0.1415406E+00
          2   -1    0    0  502    0  0.00000000000E+00  0.00000000000E+00  0.11682081487E+04  0.11682081487E+04  0.00000000000E+00 0. -1.
          1   -1    0    0  501    0 -0.00000000000E+00 -0.00000000000E+00 -0.37554450038E+04  0.37554450038E+04  0.00000000000E+00 0. -1.
         25    2    1    2    0    0 -0.75854873650E+02 -0.85042114970E+02 -0.44837573653E+02  0.17499124182E+03  0.12500161410E+03 0.  0.
          2    1    1    2  501    0  0.55866988454E+02  0.47280106753E+02 -0.36447493760E+04  0.36454841301E+04  0.00000000000E+00 0. -1.
          1    1    1    2  502    0  0.19987885197E+02  0.37762008217E+02  0.11023500945E+04  0.11031777806E+04  0.00000000000E+00 0. -1.
         22    1    3    3    0    0 -0.11310855911E+02  0.24173122342E+02 -0.39938469087E+02  0.48034952048E+02  0.00000000000E+00 0.  1.
         22    1    3    3    0    0 -0.64544017739E+02 -0.10921523731E+03 -0.48991045660E+01  0.12695628977E+03  0.00000000000E+00 0.  1.
</event>
<event>
 7    1  0.5854318E-006  0.1374480E+03  0.7818608E-02  0.1376234E+00
          2   -1    0    0  502    0  0.00000000000E+00  0.00000000000E+00  0.11304767984E+04  0.11304767984E+04  0.00000000000E+00 0. -1.
          1   -1    0    0  501    0 -0.00000000000E+00 -0.00000000000E+00 -0.64910028708E+03  0.64910028708E+03  0.00000000000E+00 0. -1.
         25    2    1    2    0    0  0.10230814332E+03 -0.10652027110E+03  0.66337585598E+03  0.69101747361E+03  0.12499639272E+03 0.  0.
          2    1    1    2  501    0 -0.72772418449E+02  0.11651015140E+03 -0.62730194484E+03  0.64216677761E+03  0.00000000000E+00 0. -1.
          1    1    1    2  502    0 -0.29535724868E+02 -0.99898802963E+01  0.44530260019E+03  0.44639283427E+03  0.00000000000E+00 0. -1.
         22    1    3    3    0    0  0.92722698446E+02 -0.13459707294E+03  0.54500711564E+03  0.56898736977E+03  0.00000000000E+00 0.  1.
         22    1    3    3    0    0  0.95854448702E+01  0.28076801841E+02  0.11836874034E+03  0.12203010384E+03  0.00000000000E+00 0.  1.
</event>
<event>
 7    1  0.5854318E-006  0.5458881E+02  0.7818608E-02  0.1463833E+00
          2   -1    0    0  502    0  0.00000000000E+00  0.00000000000E+00  0.10255025688E+03  0.10255025688E+03  0.00000000000E+00 0. -1.
          1   -1    0    0  501    0 -0.00000000000E+00 -0.00000000000E+00 -0.90082503227E+03  0.90082503227E+03  0.00000000000E+00 0. -1.
         25    2    1    2    0    0  0.61233687301E+02 -0.11830042100E+02 -0.11227245535E+03  0.17921888634E+03  0.12499916253E+03 0.  0.
          2    1    1    2  501    0 -0.12813958632E+02  0.37891366908E+02 -0.74351286675E+03  0.74458803123E+03  0.00000000000E+00 0. -1.
          1    1    1    2  502    0 -0.48419728668E+02 -0.26061324807E+02  0.57510546701E+02  0.79568371586E+02  0.00000000000E+00 0. -1.
         22    1    3    3    0    0  0.72471991088E+02 -0.13402616192E+02 -0.13500458364E+03  0.15381175903E+03  0.00000000000E+00 0.  1.
         22    1    3    3    0    0 -0.11238303787E+02  0.15725740915E+01  0.22732128291E+02  0.25407127305E+02  0.00000000000E+00 0.  1.
</event>
<event>
 7    1  0.5854318E-006  0.1194996E+03  0.7818608E-02  0.1289440E+00
          2   -1    0    0  502    0  0.00000000000E+00  0.00000000000E+00  0.88041387632E+02  0.88041387632E+02  0.00000000000E+00 0. -1.
          1   -1    0    0  501    0 -0.00000000000E+00 -0.00000000000E+00 -0.16203076865E+04  0.16203076865E+04  0.00000000000E+00 0. -1.
         25    2    1    2    0    0  0.38823662572E+02 -0.58958401981E+02 -0.12539210323E+03  0.19061272889E+03  0.12500665151E+03 0.  0.
          2    1    1    2  501    0  0.11352796222E+01  0.12449864577E+03 -0.14316672664E+04  0.14370707580E+04  0.00000000000E+00 0. -1.
          1    1    1    2  502    0 -0.39958942194E+02 -0.65540243791E+02  0.24793070758E+02  0.80665587304E+02  0.00000000000E+00 0. -1.
         22    1    3    3    0    0 -0.81001770633E+00  0.34575810810E+02 -0.82441912152E+01  0.35554317750E+02  0.00000000000E+00 0. -1.
         22    1    3    3    0    0  0.39633680278E+02 -0.93534212792E+02 -0.11714791201E+03  0.15505841114E+03  0.00000000000E+00 0. -1.
</event>
<event>
 7    1  0.5854318E-006  0.1046872E+03  0.7818608E-02  0.1454230E+00
          2   -1    0    0  502    0  0.00000000000E+00  0.00000000000E+00  0.19147517833E+03  0.19147517833E+03  0.00000000000E+00 0. -1.
          1   -1    0    0  501    0 -0.00000000000E+00 -0.00000000000E+00 -0.26626500962E+03  0.26626500962E+03  0.00000000000E+00 0. -1.
         25    2    1    2    0    0  0.84455773154E+02  0.78413576639E+01  0.97044571753E+02  0.17954571535E+03  0.12499900193E+03 0.  0.
          2    1    1    2  501    0 -0.10646563408E+03 -0.38627253595E+01 -0.20913221419E+03  0.23470435637E+03  0.00000000000E+00 0. -1.
          1    1    1    2  502    0  0.22009860929E+02 -0.39786323044E+01  0.37297811149E+02  0.43490116229E+02  0.00000000000E+00 0. -1.
         22    1    3    3    0    0 -0.25097496717E+02  0.25753631105E+02  0.43079002134E+02  0.56115365822E+02  0.00000000000E+00 0. -1.
         22    1    3    3    0    0  0.10955326987E+03 -0.17912273441E+02  0.53965569619E+02  0.12343034952E+03  0.00000000000E+00 0. -1.
</event>
<event>
 7    1  0.5854318E-006  0.9430799E+02  0.7818608E-02  0.1467081E+00
          2   -1    0    0  502    0  0.00000000000E+00  0.00000000000E+00  0.82070381723E+03  0.82070381723E+03  0.00000000000E+00 0. -1.
          1   -1    0    0  501    0 -0.00000000000E+00 -0.00000000000E+00 -0.56662762459E+03  0.56662762459E+03  0.00000000000E+00 0. -1.
         25    2    1    2    0    0  0.96348748648E+02 -0.56412906856E+02  0.24109114450E+03  0.29362387202E+03  0.12499816334E+03 0.  0.
          2    1    1    2  501    0 -0.22553939150E+02  0.16910827387E+01 -0.53630803695E+03  0.53678473379E+03  0.00000000000E+00 0. -1.
          1    1    1    2  502    0 -0.73794809497E+02  0.54721824117E+02  0.54929308509E+03  0.55692283601E+03  0.00000000000E+00 0. -1.
         22    1    3    3    0    0  0.19309232643E+02  0.29366581008E+02  0.12563068509E+03  0.13045425091E+03  0.00000000000E+00 0. -1.
         22    1    3    3    0    0  0.77039516005E+02 -0.85779487864E+02  0.11546045941E+03  0.16316962111E+03  0.00000000000E+00 0. -1.
</event>
<event>
 7    1  0.5854318E-006  0.1429667E+03  0.7818608E-02  0.1338119E+00
          2   -1    0    0  502    0  0.00000000000E+00  0.00000000000E+00  0.19434239639E+04  0.19434239639E+04  0.00000000000E+00 0. -1.
          1   -1    0    0  501    0 -0.00000000000E+00 -0.00000000000E+00 -0.10375305183E+04  0.10375305183E+04  0.00000000000E+00 0. -1.
         25    2    1    2    0    0  0.11002659317E+03  0.78256001984E+02  0.71291936082E+03  0.73628082863E+03  0.12500236207E+03 0.  0.
          2    1    1    2  501    0 -0.13555625679E+03 -0.45726106051E+02 -0.10205082266E+04  0.10304869801E+04  0.00000000000E+00 0. -1.
          1    1    1    2  502    0  0.25529663624E+02 -0.32529895933E+02  0.12134823115E+04  0.12141866735E+04  0.00000000000E+00 0. -1.
         22    1    3    3    0    0  0.82337947337E+02 -0.76332398847E+01  0.21707600655E+03  0.23229248060E+03  0.00000000000E+00 0.  1.
         22    1    3    3    0    0  0.27688645834E+02  0.85889241869E+02  0.49584335427E+03  0.50398834803E+03  0.00000000000E+00 0.  1.
</event>
<event>
 7    1  0.5854318E-006  0.2758505E+03  0.7818608E-02  0.1159033E+00
          2   -1    0    0  502    0  0.00000000000E+00  0.00000000000E+00  0.97615087162E+03  0.97615087162E+03  0.00000000000E+00 0. -1.
          1   -1    0    0  501    0 -0.00000000000E+00 -0.00000000000E+00 -0.29441565656E+04  0.29441565656E+04  0.00000000000E+00 0. -1.
         25    2    1    2    0    0  0.10176812634E+03  0.24509697644E+03 -0.21838472159E+03  0.36571244914E+03  0.12499771769E+03 0.  0.
          2    1    1    2  501    0 -0.21417813574E+03 -0.17980224760E+03 -0.26400032703E+04  0.26547727566E+04  0.00000000000E+00 0. -1.
          1    1    1    2  502    0  0.11241000940E+03 -0.65294728840E+02  0.89038229791E+03  0.89982223148E+03  0.00000000000E+00 0. -1.
         22    1    3    3    0    0  0.25679837380E+02 -0.76610757519E+01 -0.35957957853E+02  0.44845522212E+02  0.00000000000E+00 0. -1.
         22    1    3    3    0    0  0.76088288965E+02  0.25275805219E+03 -0.18242676374E+03  0.32086692692E+03  0.00000000000E+00 0. -1.
</event>
<event>
 7    1  0.5854318E-006  0.1357468E+03  0.7818608E-02  0.1313853E+00
          2   -1    0    0  502    0  0.00000000000E+00  0.00000000000E+00  0.49537677511E+03  0.49537677511E+03  0.00000000000E+00 0. -1.
          1   -1    0    0  501    0 -0.00000000000E+00 -0.00000000000E+00 -0.25623330758E+04  0.25623330758E+04  0.00000000000E+00 0. -1.
         25    2    1    2    0    0 -0.34790255669E+02  0.86861931233E+02 -0.30778280669E+03  0.34512117331E+03  0.12499204451E+03 0.  0.
          2    1    1    2  501    0  0.21989555213E+02 -0.13930931631E+03 -0.22321198644E+04  0.22365709726E+04  0.00000000000E+00 0. -1.
          1    1    1    2  502    0  0.12800700456E+02  0.52447385080E+02  0.47294637047E+03  0.47601770500E+03  0.00000000000E+00 0. -1.
         22    1    3    3    0    0  0.38795313078E+01 -0.27317735252E+00 -0.20461667328E+03  0.20465363025E+03  0.00000000000E+00 0. -1.
         22    1    3    3    0    0 -0.38669786977E+02  0.87135108586E+02 -0.10316613340E+03  0.14046754306E+03  0.00000000000E+00 0. -1.
</event>
<event>
 7    1  0.5854318E-006  0.6814562E+02  0.7818608E-02  0.1407167E+00
          2   -1    0    0  502    0  0.00000000000E+00  0.00000000000E+00  0.33594344265E+04  0.33594344265E+04  0.00000000000E+00 0. -1.
          1   -1    0    0  501    0 -0.00000000000E+00 -0.00000000000E+00 -0.88429398017E+02  0.88429398017E+02  0.00000000000E+00 0. -1.
         25    2    1    2    0    0  0.32269641142E+01  0.28515136190E+02  0.15416637423E+04  0.15469892696E+04  0.12500071873E+03 0.  0.
          2    1    1    2  501    0  0.35528821107E+02 -0.58624249756E+02 -0.71681426877E+02  0.99183298734E+02  0.00000000000E+00 0. -1.
          1    1    1    2  502    0 -0.38755785221E+02  0.30109113567E+02  0.18010227131E+04  0.18016912562E+04  0.00000000000E+00 0. -1.
         22    1    3    3    0    0  0.62108286053E+02  0.26722315745E+02  0.69608475469E+03  0.69936078462E+03  0.00000000000E+00 0.  1.
         22    1    3    3    0    0 -0.58881321938E+02  0.17928204444E+01  0.84557898763E+03  0.84762848501E+03  0.00000000000E+00 0.  1.
</event>
<event>
 7    1  0.5854318E-006  0.2064951E+03  0.7818608E-02  0.1280704E+00
          2   -1    0    0  502    0  0.00000000000E+00  0.00000000000E+00  0.36272412197E+03  0.36272412197E+03  0.00000000000E+00 0. -1.
          1   -1    0    0  501    0 -0.00000000000E+00 -0.00000000000E+00 -0.57744811781E+03  0.57744811781E+03  0.00000000000E+00 0. -1.
         25    2    1    2    0    0  0.10592936756E+03  0.12605705160E+03  0.10880485210E+03  0.23361370507E+03  0.12500182472E+03 0.  0.
          2    1    1    2  501    0 -0.14465867220E+03 -0.15481653219E+03 -0.48967538071E+03  0.53355062417E+03  0.00000000000E+00 0. -1.
          1    1    1    2  502    0  0.38729304638E+02  0.28759480587E+02  0.16614653277E+03  0.17300791055E+03  0.00000000000E+00 0. -1.
         22    1    3    3    0    0 -0.12136515608E+02 -0.13991723689E+02  0.27615430028E+02  0.33251696476E+02  0.00000000000E+00 0. -1.
         22    1    3    3    0    0  0.11806588317E+03  0.14004877529E+03  0.81189422076E+02  0.20036200859E+03  0.00000000000E+00 0. -1.
</event>
<event>
 7    1  0.5854318E-006  0.1872756E+03  0.7818608E-02  0.1247153E+00
          2   -1    0    0  502    0  0.00000000000E+00  0.00000000000E+00  0.20767246491E+04  0.20767246491E+04  0.00000000000E+00 0. -1.
          1   -1    0    0  501    0 -0.00000000000E+00 -0.00000000000E+00 -0.73164298150E+03  0.73164298150E+03  0.00000000000E+00 0. -1.
         25    2    1    2    0    0 -0.15352741318E+03 -0.16903971491E+03 -0.25274536729E+02  0.26155062656E+03  0.12499934494E+03 0.  0.
          2    1    1    2  501    0  0.15657174070E+03  0.95287541259E+02 -0.57323502897E+03  0.60182457905E+03  0.00000000000E+00 0. -1.
          1    1    1    2  502    0 -0.30443275213E+01  0.73752173655E+02  0.19435912334E+04  0.19449924250E+04  0.00000000000E+00 0. -1.
         22    1    3    3    0    0 -0.13733401347E+03 -0.70223248824E+02  0.11979020519E+02  0.15471080397E+03  0.00000000000E+00 0. -1.
         22    1    3    3    0    0 -0.16193399702E+02 -0.98816466090E+02 -0.37253557248E+02  0.10683982259E+03  0.00000000000E+00 0. -1.
</event>
<event>
 7    1  0.5854318E-006  0.1070182E+03  0.7818608E-02  0.1376282E+00
          2   -1    0    0  502    0  0.00000000000E+00  0.00000000000E+00  0.98275814178E+03  0.98275814178E+03  0.00000000000E+00 0. -1.
          1   -1    0    0  501    0 -0.00000000000E+00 -0.00000000000E+00 -0.14191823320E+03  0.14191823320E+03  0.00000000000E+00 0. -1.
         25    2    1    2    0    0 -0.13837755687E+03 -0.28934547181E+02  0.33156506018E+03  0.38150435651E+03  0.12499851455E+03 0.  0.
          2    1    1    2  501    0  0.39078779263E+02  0.86710950905E+01 -0.10927438981E+03  0.11637538892E+03  0.00000000000E+00 0. -1.
          1    1    1    2  502    0  0.99298777610E+02  0.20263452090E+02  0.61854923821E+03  0.62679662955E+03  0.00000000000E+00 0. -1.
         22    1    3    3    0    0 -0.81016771348E+02 -0.76720799846E+02  0.16762532208E+03  0.20136545625E+03  0.00000000000E+00 0. -1.
         22    1    3    3    0    0 -0.57360785525E+02  0.47786252666E+02  0.16393973809E+03  0.18013890026E+03  0.00000000000E+00 0. -1.
</event>
<event>
 7    1  0.5854318E-006  0.4978174E+02  0.7818608E-02  0.1494758E+00
          2   -1    0    0  502    0  0.00000000000E+00  0.00000000000E+00  0.47012209518E+03  0.47012209518E+03  0.00000000000E+00 0. -1.
          1   -1    0    0  501    0 -0.00000000000E+00 -0.00000000000E+00 -0.24890202728E+04  0.24890202728E+04  0.00000000000E+00 0. -1.
         25    2    1    2    0    0 -0.22698335914E+02  0.19154408054E+02  0.18355551996E+03  0.22405360014E+03  0.12500112410E+03 0.  0.
          2    1    1    2  501    0  0.12287820313E+02  0.33035078424E+02 -0.24659854426E+04  0.24662373183E+04  0.00000000000E+00 0. -1.
          1    1    1    2  502    0  0.10410515601E+02 -0.52189486478E+02  0.26353174499E+03  0.26885144960E+03  0.00000000000E+00 0. -1.
         22    1    3    3    0    0 -0.37406135927E+02 -0.33811411385E+02  0.15314553780E+03  0.16123270851E+03  0.00000000000E+00 0.  1.
         22    1    3    3    0    0  0.14707800013E+02  0.52965819439E+02  0.30409982158E+02  0.62820891628E+02  0.00000000000E+00 0.  1.
</event>
<event>
 7    1  0.5854318E-006  0.6575256E+02  0.7818608E-02  0.1473560E+00
          2   -1    0    0  502    0  0.00000000000E+00  0.00000000000E+00  0.23059180625E+04  0.23059180625E+04  0.00000000000E+00 0. -1.
          1   -1    0    0  501    0 -0.00000000000E+00 -0.00000000000E+00 -0.38829390927E+03  0.38829390927E+03  0.00000000000E+00 0. -1.
         25    2    1    2    0    0 -0.19654546775E+02 -0.93908105930E+02 -0.28774026386E+03  0.32806844023E+03  0.12501763261E+03 0.  0.
          2    1    1    2  501    0  0.11663342813E+02  0.28689133126E+02 -0.76916421901E+02  0.82917042175E+02  0.00000000000E+00 0. -1.
          1    1    1    2  502    0  0.79912039613E+01  0.65218972804E+02  0.22822808390E+04  0.22832264894E+04  0.00000000000E+00 0. -1.
         22    1    3    3    0    0  0.43142341256E+02 -0.83139032643E+02 -0.17948321811E+03  0.20245391066E+03  0.00000000000E+00 0. -1.
         22    1    3    3    0    0 -0.62796888031E+02 -0.10769073287E+02 -0.10825704574E+03  0.12561452957E+03  0.00000000000E+00 0. -1.
</event>
<event>
 7    1  0.5854318E-006  0.7320486E+02  0.7818608E-02  0.1437186E+00
          2   -1    0    0  502    0  0.00000000000E+00  0.00000000000E+00  0.13780780020E+03  0.13780780020E+03  0.00000000000E+00 0. -1.
          1   -1    0    0  501    0 -0.00000000000E+00 -0.00000000000E+00 -0.47914089688E+03  0.47914089688E+03  0.00000000000E+00 0. -1.
         25    2    1    2    0    0  0.10677172727E+03  0.17231363467E+02 -0.35944096625E+03  0.39562599706E+03  0.12499999882E+03 0.  0.
          2    1    1    2  501    0 -0.36241456202E+02 -0.19309252178E+01 -0.86745852703E+02  0.94031987009E+02  0.00000000000E+00 0. -1.
          1    1    1    2  502    0 -0.70530271066E+02 -0.15300438250E+02  0.10485372226E+03  0.12729071301E+03  0.00000000000E+00 0. -1.
         22    1    3    3    0    0  0.10534933938E+03  0.99066226807E+01 -0.36878678054E+03  0.38366693105E+03  0.00000000000E+00 0. -1.
         22    1    3    3    0    0  0.14223878920E+01  0.73247407867E+01  0.93458142974E+01  0.11959066008E+02  0.00000000000E+00 0. -1.
</event>
<event>
 7    1  0.5854318E-006  0.5655117E+02  0.7818608E-02  0.1507458E+00
          2   -1    0    0  502    0  0.00000000000E+00  0.00000000000E+00  0.18799076057E+03  0.18799076057E+03  0.00000000000E+00 0. -1.
          1   -1    0    0  501    0 -0.00000000000E+00 -0.00000000000E+00 -0.34447230219E+03  0.34447230219E+03  0.00000000000E+00 0. -1.
         25    2    1    2    0    0  0.79249295284E+02  0.64158968841E+01  0.15901776172E+02  0.14899460207E+03  0.12499964170E+03 0.  0.
          2    1    1    2  501    0 -0.53039909346E+02 -0.17452287490E+02 -0.27313301304E+03  0.27878209615E+03  0.00000000000E+00 0. -1.
          1    1    1    2  502    0 -0.26209385938E+02  0.11036390605E+02  0.10074969525E+03  0.10468636454E+03  0.00000000000E+00 0. -1.
         22    1    3    3    0    0  0.38451783510E+02 -0.53919339345E+02  0.33278144605E+02  0.74116595435E+02  0.00000000000E+00 0. -1.
         22    1    3    3    0    0  0.40797511774E+02  0.60335236229E+02 -0.17376368433E+02  0.74878006635E+02  0.00000000000E+00 0. -1.
</event>
<event>
 7    1  0.5854318E-006  0.9816016E+02  0.7818608E-02  0.1404974E+00
          2   -1    0    0  502    0  0.00000000000E+00  0.00000000000E+00  0.15271706646E+04  0.15271706646E+04  0.00000000000E+00 0. -1.
          1   -1    0    0  501    0 -0.00000000000E+00 -0.00000000000E+00 -0.14397048769E+04  0.14397048769E+04  0.00000000000E+00 0. -1.
         25    2    1    2    0    0 -0.30301166495E+02 -0.73855299965E+02  0.35298792935E+03  0.38288145740E+03  0.12499986450E+03 0.  0.
          2    1    1    2  501    0  0.55372972668E+01  0.98108568223E+02 -0.14228040023E+04  0.14261932484E+04  0.00000000000E+00 0. -1.
          1    1    1    2  502    0  0.24763869228E+02 -0.24253268258E+02  0.11572818606E+04  0.11578008357E+04  0.00000000000E+00 0. -1.
         22    1    3    3    0    0 -0.65744738091E+02 -0.19543009323E+02  0.26402531671E+03  0.27278868683E+03  0.00000000000E+00 0. -1.
         22    1    3    3    0    0  0.35443571597E+02 -0.54312290642E+02  0.88962612642E+02  0.11009277056E+03  0.00000000000E+00 0. -1.
</event>
<event>
 7    1  0.5854318E-006  0.7578266E+02  0.7818608E-02  0.1371681E+00
          2   -1    0    0  502    0  0.00000000000E+00  0.00000000000E+00  0.70152243357E+03  0.70152243357E+03  0.00000000000E+00 0. -1.
          1   -1    0    0  501    0 -0.00000000000E+00 -0.00000000000E+00 -0.13505558156E+03  0.13505558156E+03  0.00000000000E+00 0. -1.
         25    2    1    2    0    0  0.20884392167E+02 -0.14959752441E+02  0.15845590058E+03  0.20345327244E+03  0.12500003843E+03 0.  0.
          2    1    1    2  501    0 -0.35057722938E+02  0.71933054300E+02 -0.96413296706E+02  0.12529537909E+03  0.00000000000E+00 0. -1.
          1    1    1    2  502    0  0.14173330770E+02 -0.56973301859E+02  0.50442424814E+03  0.50782936361E+03  0.00000000000E+00 0. -1.
         22    1    3    3    0    0 -0.25486493608E+02  0.41911498968E+02  0.36573627937E+02  0.61186316793E+02  0.00000000000E+00 0. -1.
         22    1    3    3    0    0  0.46370885775E+02 -0.56871251409E+02  0.12188227264E+03  0.14226695564E+03  0.00000000000E+00 0. -1.
</event>
<event>
 7    1  0.5854318E-006  0.1908186E+03  0.7818608E-02  0.1256578E+00
          2   -1    0    0  502    0  0.00000000000E+00  0.00000000000E+00  0.20189075532E+03  0.20189075532E+03  0.00000000000E+00 0. -1.
          1   -1    0    0  501    0 -0.00000000000E+00 -0.00000000000E+00 -0.23653914983E+04  0.23653914983E+04  0.00000000000E+00 0. -1.
         25    2    1    2    0    0  0.18127240321E+03  0.64099436864E+02 -0.25427943786E+03  0.34241937810E+03  0.12499830402E+03 0.  0.
          2    1    1    2  501    0 -0.14845591530E+03 -0.12130969283E+03 -0.20554903536E+04  0.20644117308E+04  0.00000000000E+00 0. -1.
          1    1    1    2  502    0 -0.32816487906E+02  0.57210255964E+02  0.14626904855E+03  0.16045114468E+03  0.00000000000E+00 0. -1.
         22    1    3    3    0    0  0.81588014387E+02  0.83943702896E+02 -0.18669864428E+03  0.22036227700E+03  0.00000000000E+00 0. -1.
         22    1    3    3    0    0  0.99684388822E+02 -0.19844266033E+02 -0.67580793587E+02  0.12205710111E+03  0.00000000000E+00 0. -1.
</event>
<event>
 7    1  0.5854318E-006  0.2844531E+03  0.7818608E-02  0.1124871E+00
          2   -1    0    0  502    0  0.00000000000E+00  0.00000000000E+00  0.19723028158E+04  0.19723028158E+04  0.00000000000E+00 0. -1.
          1   -1    0    0  501    0 -0.00000000000E+00 -0.00000000000E+00 -0.18669266087E+04  0.18669266087E+04  0.00000000000E+00 0. -1.
         25    2    1    2    0    0 -0.58909272478E+02 -0.29592925621E+03 -0.27066380876E+03  0.42418218643E+03  0.12500881105E+03 0.  0.
          2    1    1    2  501    0  0.18585947757E+03  0.39858597087E+02 -0.15027083456E+04  0.15146830775E+04  0.00000000000E+00 0. -1.
          1    1    1    2  502    0 -0.12695020509E+03  0.25607065912E+03  0.18787483615E+04  0.19003641606E+04  0.00000000000E+00 0. -1.
         22    1    3    3    0    0 -0.61138935039E+02 -0.45793837343E+02 -0.59542753822E+02  0.96852384839E+02  0.00000000000E+00 0.  1.
         22    1    3    3    0    0  0.22296625605E+01 -0.25013541887E+03 -0.21112105494E+03  0.32732980159E+03  0.00000000000E+00 0.  1.
</event>
<event>
 7    1  0.5854318E-006  0.3911808E+02  0.7818608E-02  0.1579775E+00
          2   -1    0    0  502    0  0.00000000000E+00  0.00000000000E+00  0.22280690857E+04  0.22280690857E+04  0.00000000000E+00 0. -1.
          1   -1    0    0  501    0 -0.00000000000E+00 -0.00000000000E+00 -0.70207164575E+02  0.70207164575E+02  0.00000000000E+00 0. -1.
         25    2    1    2    0    0  0.17607416825E+02 -0.58137686703E+02  0.90349153913E+03  0.91411809670E+03  0.12499968677E+03 0.  0.
          2    1    1    2  501    0 -0.21282873056E+02  0.32673581815E+02 -0.58898763858E+02  0.70637015921E+02  0.00000000000E+00 0. -1.
          1    1    1    2  502    0  0.36754562314E+01  0.25464104888E+02  0.13132691459E+04  0.13135211377E+04  0.00000000000E+00 0. -1.
         22    1    3    3    0    0  0.31037277083E+02  0.29550335106E+02  0.44967327110E+03  0.45171073223E+03  0.00000000000E+00 0.  1.
         22    1    3    3    0    0 -0.13429860258E+02 -0.87688021809E+02  0.45381826803E+03  0.46240736447E+03  0.00000000000E+00 0.  1.
</event>
<event>
 7    1  0.5854318E-006  0.3688862E+02  0.7818608E-02  0.1630950E+00
          2   -1    0    0  502    0  0.00000000000E+00  0.00000000000E+00  0.65120389680E+03  0.65120389680E+03  0.00000000000E+00 0. -1.
          1   -1    0    0  501    0 -0.00000000000E+00 -0.00000000000E+00 -0.14775961362E+03  0.14775961362E+03  0.00000000000E+00 0. -1.
         25    2    1    2    0    0  0.30745265855E+02 -0.28060623887E+02 -0.84887875722E+02  0.15672580696E+03  0.12499742852E+03 0.  0.
          2    1    1    2  501    0  0.51214738518E+01  0.19430112664E+02 -0.22572354255E+02  0.30220356536E+02  0.00000000000E+00 0. -1.
          1    1    1    2  502    0 -0.35866739707E+02  0.86305112232E+01  0.61090451316E+03  0.61201734693E+03  0.00000000000E+00 0. -1.
         22    1    3    3    0    0  0.20332485309E+02  0.49347146612E+02 -0.29573541066E+02  0.61017580817E+02  0.00000000000E+00 0. -1.
         22    1    3    3    0    0  0.10412780546E+02 -0.77407770500E+02 -0.55314334656E+02  0.95708226140E+02  0.00000000000E+00 0. -1.
</event>
<event>
 7    1  0.5854318E-006  0.8816719E+02  0.7818608E-02  0.1413963E+00
          2   -1    0    0  502    0  0.00000000000E+00  0.00000000000E+00  0.28973671368E+03  0.28973671368E+03  0.00000000000E+00 0. -1.
          1   -1    0    0  501    0 -0.00000000000E+00 -0.00000000000E+00 -0.78922329088E+03  0.78922329088E+03  0.00000000000E+00 0. -1.
         25    2    1    2    0    0 -0.45148395195E+02  0.11319651496E+03 -0.60827945519E+02  0.18486964491E+03  0.12499967227E+03 0.  0.
          2    1    1    2  501    0  0.11894397235E+02 -0.33951832731E+02 -0.65775712952E+03  0.65874019542E+03  0.00000000000E+00 0. -1.
          1    1    1    2  502    0  0.33253997960E+02 -0.79244682224E+02  0.21909849784E+03  0.23535016422E+03  0.00000000000E+00 0. -1.
         22    1    3    3    0    0 -0.68339167041E+02  0.40220646093E+02 -0.72462592938E+02  0.10741866458E+03  0.00000000000E+00 0. -1.
         22    1    3    3    0    0  0.23190771845E+02  0.72975868862E+02  0.11634647418E+02  0.77450980339E+02  0.00000000000E+00 0. -1.
</event>
<event>
 7    1  0.5854318E-006  0.9117362E+02  0.7818608E-02  0.1452144E+00
          2   -1    0    0  502    0  0.00000000000E+00  0.00000000000E+00  0.15987537143E+03  0.15987537143E+03  0.00000000000E+00 0. -1.
          1   -1    0    0  501    0 -0.00000000000E+00 -0.00000000000E+00 -0.32422390014E+03  0.32422390014E+03  0.00000000000E+00 0. -1.
         25    2    1    2    0    0 -0.90142571102E+02 -0.10984204915E+01 -0.22123337817E+03  0.26962177567E+03  0.12499921859E+03 0.  0.
          2    1    1    2  501    0  0.27645961113E+01 -0.25930657367E+02 -0.60374446984E+02  0.65765612837E+02  0.00000000000E+00 0. -1.
          1    1    1    2  502    0  0.87377974991E+02  0.27029077858E+02  0.11725929644E+03  0.14871188307E+03  0.00000000000E+00 0. -1.
         22    1    3    3    0    0 -0.82658195938E+02  0.48832854979E+02 -0.18167220539E+03  0.20547947658E+03  0.00000000000E+00 0. -1.
         22    1    3    3    0    0 -0.74843751639E+01 -0.49931275471E+02 -0.39561172774E+02  0.64142299093E+02  0.00000000000E+00 0. -1.
</event>
<event>
 7    1  0.5854318E-006  0.4164059E+02  0.7818608E-02  0.1569328E+00
          2   -1    0    0  502    0  0.00000000000E+00  0.00000000000E+00  0.99206121700E+03  0.99206121700E+03  0.00000000000E+00 0. -1.
          1   -1    0    0  501    0 -0.00000000000E+00 -0.00000000000E+00 -0.77326144372E+02  0.77326144372E+02  0.00000000000E+00 0. -1.
         25    2    1    2    0    0  0.15996871239E+02  0.47350340327E+02  0.76384813468E+03  0.77562032310E+03  0.12499983252E+03 0.  0.
          2    1    1    2  501    0  0.14949927054E+02 -0.21016947203E+02 -0.67172521405E+02  0.71953874257E+02  0.00000000000E+00 0. -1.
          1    1    1    2  502    0 -0.30946798293E+02 -0.26333393124E+02  0.21805945935E+03  0.22181316402E+03  0.00000000000E+00 0. -1.
         22    1    3    3    0    0  0.49092381483E+02 -0.14488452599E+02  0.16708041690E+03  0.17474507973E+03  0.00000000000E+00 0. -1.
         22    1    3    3    0    0 -0.33095510244E+02  0.61838792926E+02  0.59676771778E+03  0.60087524337E+03  0.00000000000E+00 0. -1.
</event>
<event>
 7    1  0.5854318E-006  0.6792632E+02  0.7818608E-02  0.1407596E+00
          2   -1    0    0  502    0  0.00000000000E+00  0.00000000000E+00  0.63931640223E+03  0.63931640223E+03  0.00000000000E+00 0. -1.
          1   -1    0    0  501    0 -0.00000000000E+00 -0.00000000000E+00 -0.87311456644E+02  0.87311456644E+02  0.00000000000E+00 0. -1.
         25    2    1    2    0    0 -0.29807044260E+02  0.40743688686E+02  0.38471462980E+03  0.40764885558E+03  0.12499493998E+03 0.  0.
          2    1    1    2  501    0 -0.10720094818E+02 -0.68410876937E+02 -0.56811007324E+02  0.89568181122E+02  0.00000000000E+00 0. -1.
          1    1    1    2  502    0  0.40527139078E+02  0.27667188251E+02  0.22410132311E+03  0.22941082217E+03  0.00000000000E+00 0. -1.
         22    1    3    3    0    0  0.67629769318E+01  0.90439470807E+01  0.34460972308E+03  0.34479471005E+03  0.00000000000E+00 0. -1.
         22    1    3    3    0    0 -0.36570021192E+02  0.31699741606E+02  0.40104906715E+02  0.62854145532E+02  0.00000000000E+00 0. -1.
</event>
<event>
 7    1  0.5854318E-006  0.2694052E+03  0.7818608E-02  0.1176712E+00
          2   -1    0    0  502    0  0.00000000000E+00  0.00000000000E+00  0.30423682068E+03  0.30423682068E+03  0.00000000000E+00 0. -1.
          1   -1    0    0  501    0 -0.00000000000E+00 -0.00000000000E+00 -0.10165313165E+04  0.10165313165E+04  0.00000000000E+00 0. -1.
         25    2    1    2    0    0  0.32646111510E+03  0.66155776993E+02 -0.13198319201E+03  0.37946838666E+03  0.12499298781E+03 0.  0.
          2    1    1    2  501    0 -0.10077767258E+03  0.40625605303E+02 -0.66792307594E+03  0.67670363858E+03  0.00000000000E+00 0. -1.
          1    1    1    2  502    0 -0.22568344252E+03 -0.10678138230E+03  0.87611772128E+02  0.26459611193E+03  0.00000000000E+00 0. -1.
         22    1    3    3    0    0  0.25315528034E+03  0.65194203080E+02 -0.15339020687E+03  0.30309476347E+03  0.00000000000E+00 0.  1.
         22    1    3    3    0    0  0.73305834762E+02  0.96157391296E+00  0.21407014861E+02  0.76373623195E+02  0.00000000000E+00 0.  1.
</event>
<event>
 7    1  0.5854318E-006  0.1853344E+03  0.7818608E-02  0.1337511E+00
          2   -1    0    0  502    0  0.00000000000E+00  0.00000000000E+00  0.52735961057E+03  0.52735961057E+03  0.00000000000E+00 0. -1.
          1   -1    0    0  501    0 -0.00000000000E+00 -0.00000000000E+00 -0.22324142724E+04  0.22324142724E+04  0.00000000000E+00 0. -1.
         25    2    1    2    0    0  0.95668921623E+02 -0.15849499888E+03 -0.40571194490E+03  0.46314058121E+03  0.12499523391E+03 0.  0.
          2    1    1    2  501    0 -0.12195520146E+03  0.14012733675E+03 -0.17926677981E+04  0.18022670657E+04  0.00000000000E+00 0. -1.
          1    1    1    2  502    0  0.26286279836E+02  0.18367662134E+02  0.49332508125E+03  0.49436623601E+03  0.00000000000E+00 0. -1.
         22    1    3    3    0    0  0.21856361563E+02 -0.99194860325E+02 -0.31889349787E+03  0.33467952408E+03  0.00000000000E+00 0. -1.
         22    1    3    3    0    0  0.73812560060E+02 -0.59300138557E+02 -0.86818447025E+02  0.12846105713E+03  0.00000000000E+00 0. -1.
</event>
<event>
 7    1  0.1064513E-005  0.6258798E+02  0.7818608E-02  0.1393429E+00
          2   -1    0    0  502    0  0.00000000000E+00  0.00000000000E+00  0.12866379688E+04  0.12866379688E+04  0.00000000000E+00 0. -1.
          1   -1    0    0  501    0 -0.00000000000E+00 -0.00000000000E+00 -0.10261626066E+04  0.10261626066E+04  0.00000000000E+00 0. -1.
         25    2    1    2    0    0  0.69768738851E+02 -0.36367227871E+02 -0.36241076222E+03  0.39134838531E+03  0.12498698306E+03 0.  0.
          2    1    1    2  501    0 -0.59333695779E+02 -0.22284429310E+02 -0.64703636703E+03  0.65013317367E+03  0.00000000000E+00 0. -1.
          1    1    1    2  502    0 -0.10435043072E+02  0.58651657182E+02  0.12699224915E+04  0.12713190164E+04  0.00000000000E+00 0. -1.
         22    1    3    3    0    0  0.56898034985E+02 -0.38054895127E+02 -0.37002230449E+03  0.37630050126E+03  0.00000000000E+00 0.  1.
         22    1    3    3    0    0  0.12870703867E+02  0.16876672560E+01  0.76115422733E+01  0.15047884056E+02  0.00000000000E+00 0.  1.
</event>
<event>
 7    1  0.5854318E-006  0.3009666E+02  0.7818608E-02  0.1641465E+00
          2   -1    0    0  502    0  0.00000000000E+00  0.00000000000E+00  0.22576377959E+04  0.22576377959E+04  0.00000000000E+00 0. -1.
          1   -1    0    0  501    0 -0.00000000000E+00 -0.00000000000E+00 -0.40312232129E+01  0.40312232129E+01  0.00000000000E+00 0. -1.
         25    2    1    2    0    0 -0.91734068512E+01 -0.77972309702E+01  0.18209028027E+04  0.18252277117E+04  0.12499693758E+03 0.  0.
          2    1    1    2  501    0  0.32053957064E+02  0.40548896941E+01  0.20096292329E+03  0.20354359443E+03  0.00000000000E+00 0. -1.
          1    1    1    2  502    0 -0.22880550213E+02  0.37423412761E+01  0.23174084673E+03  0.23289771304E+03  0.00000000000E+00 0. -1.
         22    1    3    3    0    0 -0.27054641958E+02  0.54429264884E+02  0.85643126699E+03  0.85858547251E+03  0.00000000000E+00 0.  1.
         22    1    3    3    0    0  0.17881235107E+02 -0.62226495854E+02  0.96447153571E+03  0.96664223917E+03  0.00000000000E+00 0.  1.
</event>
<event>
 7    1  0.5854318E-006  0.5083706E+02  0.7818608E-02  0.1538954E+00
          2   -1    0    0  502    0  0.00000000000E+00  0.00000000000E+00  0.95528246540E+03  0.95528246540E+03  0.00000000000E+00 0. -1.
          1   -1    0    0  501    0 -0.00000000000E+00 -0.00000000000E+00 -0.11081294714E+04  0.11081294714E+04  0.00000000000E+00 0. -1.
         25    2    1    2    0    0 -0.94256962888E+01 -0.26381957011E+02  0.84901961122E+03  0.85862933472E+03  0.12500073121E+03 0.  0.
          2    1    1    2  501    0  0.16553745246E+01  0.50826713364E+02 -0.11011071594E+04  0.11022808497E+04  0.00000000000E+00 0. -1.
          1    1    1    2  502    0  0.77703217642E+01 -0.24444756352E+02  0.99240542232E+02  0.10250175236E+03  0.00000000000E+00 0. -1.
         22    1    3    3    0    0 -0.62177753858E+02 -0.14543482593E+02  0.28713867256E+03  0.29415336687E+03  0.00000000000E+00 0.  1.
         22    1    3    3    0    0  0.52752057569E+02 -0.11838474419E+02  0.56188093867E+03  0.56447596786E+03  0.00000000000E+00 0.  1.
</event>
<event>
 7    1  0.5854318E-006  0.4586834E+02  0.7818608E-02  0.1556824E+00
          2   -1    0    0  502    0  0.00000000000E+00  0.00000000000E+00  0.17901550291E+03  0.17901550291E+03  0.00000000000E+00 0. -1.
          1   -1    0    0  501    0 -0.00000000000E+00 -0.00000000000E+00 -0.27336255504E+03  0.27336255504E+03  0.00000000000E+00 0. -1.
         25    2    1    2    0    0 -0.22214393291E+02  0.36544120538E+02  0.36010052452E+02  0.13693363170E+03  0.12500057439E+03 0.  0.
          2    1    1    2  501    0 -0.19871694368E+02 -0.15719883387E+02 -0.21615642661E+03  0.21763639341E+03  0.00000000000E+00 0. -1.
          1    1    1    2  502    0  0.42086087659E+02 -0.20824237150E+02  0.85799322030E+02  0.97808032840E+02  0.00000000000E+00 0. -1.
         22    1    3    3    0    0 -0.28476285334E+02  0.81633861453E+02  0.26503637502E+02  0.90429137799E+02  0.00000000000E+00 0.  1.
         22    1    3    3    0    0  0.62618920426E+01 -0.45089740915E+02  0.95064149492E+01  0.46504493901E+02  0.00000000000E+00 0.  1.
</event>
<event>
 7    1  0.5854318E-006  0.1011836E+03  0.7818608E-02  0.1391892E+00
          2   -1    0    0  502    0  0.00000000000E+00  0.00000000000E+00  0.18902146859E+04  0.18902146859E+04  0.00000000000E+00 0. -1.
          1   -1    0    0  501    0 -0.00000000000E+00 -0.00000000000E+00 -0.58948386791E+03  0.58948386791E+03  0.00000000000E+00 0. -1.
         25    2    1    2    0    0 -0.42433165362E+02 -0.68870361027E+02  0.96233591968E+03  0.97379150099E+03  0.12504305235E+03 0.  0.
          2    1    1    2  501    0 -0.33424921916E+02 -0.16566851152E+02 -0.57961513258E+03  0.58081441776E+03  0.00000000000E+00 0. -1.
          1    1    1    2  502    0  0.75858087278E+02  0.85437212179E+02  0.91801003093E+03  0.92509263511E+03  0.00000000000E+00 0. -1.
         22    1    3    3    0    0 -0.81667254968E+01 -0.93638977676E+02  0.44988188238E+03  0.45959619411E+03  0.00000000000E+00 0. -1.
         22    1    3    3    0    0 -0.34266439865E+02  0.24768616650E+02  0.51245403730E+03  0.51419530688E+03  0.00000000000E+00 0. -1.
</event>
<event>
 7    1  0.5854318E-006  0.1130727E+03  0.7818608E-02  0.1407541E+00
          2   -1    0    0  502    0  0.00000000000E+00  0.00000000000E+00  0.47972332676E+03  0.47972332676E+03  0.00000000000E+00 0. -1.
          1   -1    0    0  501    0 -0.00000000000E+00 -0.00000000000E+00 -0.21678263660E+04  0.21678263660E+04  0.00000000000E+00 0. -1.
         25    2    1    2    0    0 -0.84064857979E+02  0.24372293575E+02 -0.43685486624E+02  0.15872851905E+03  0.12500164790E+03 0.  0.
          2    1    1    2  501    0 -0.22521288107E+02  0.19039722510E+02 -0.20586688520E+04  0.20588800746E+04  0.00000000000E+00 0. -1.
          1    1    1    2  502    0  0.10658614609E+03 -0.43412016085E+02  0.41425129936E+03  0.42994109911E+03  0.00000000000E+00 0. -1.
         22    1    3    3    0    0 -0.43309614147E+02 -0.47891317302E+02 -0.39426160169E+02  0.75655290999E+02  0.00000000000E+00 0.  1.
         22    1    3    3    0    0 -0.40755243832E+02  0.72263610877E+02 -0.42593264547E+01  0.83073228050E+02  0.00000000000E+00 0.  1.
</event>
<event>
 7    1  0.5854318E-006  0.7410513E+02  0.7818608E-02  0.1403360E+00
          2   -1    0    0  502    0  0.00000000000E+00  0.00000000000E+00  0.20201162970E+03  0.20201162970E+03  0.00000000000E+00 0. -1.
          1   -1    0    0  501    0 -0.00000000000E+00 -0.00000000000E+00 -0.10263997952E+03  0.10263997952E+03  0.00000000000E+00 0. -1.
         25    2    1    2    0    0  0.10800161278E+03 -0.19097234015E+02  0.69560191501E+02  0.18025956765E+03  0.12500335506E+03 0.  0.
          2    1    1    2  501    0 -0.45328414614E+02  0.10376856321E+02 -0.12647257973E+02  0.48190221547E+02  0.00000000000E+00 0. -1.
          1    1    1    2  502    0 -0.62673198169E+02  0.87203776940E+01  0.42458716645E+02  0.76201820024E+02  0.00000000000E+00 0. -1.
         22    1    3    3    0    0  0.13422498054E+03 -0.28056050364E+02  0.66437653813E+02  0.15237273118E+03  0.00000000000E+00 0.  1.
         22    1    3    3    0    0 -0.26223367754E+02  0.89588163495E+01  0.31225376876E+01  0.27886836471E+02  0.00000000000E+00 0.  1.
</event>
<event>
 7    1  0.5854318E-006  0.9436488E+02  0.7818608E-02  0.1342270E+00
          2   -1    0    0  502    0  0.00000000000E+00  0.00000000000E+00  0.13101218601E+04  0.13101218601E+04  0.00000000000E+00 0. -1.
          1   -1    0    0  501    0 -0.00000000000E+00 -0.00000000000E+00 -0.63154412781E+02  0.63154412781E+02  0.00000000000E+00 0. -1.
         25    2    1    2    0    0  0.96788660402E+02 -0.83561438589E+02  0.84210002522E+03  0.86087591613E+03  0.12499732676E+03 0.  0.
          2    1    1    2  501    0 -0.17977589070E+02  0.57702027880E+02 -0.31545498393E+02  0.68175040881E+02  0.00000000000E+00 0. -1.
          1    1    1    2  502    0 -0.78811071333E+02  0.25859410708E+02  0.43641292046E+03  0.44422531583E+03  0.00000000000E+00 0. -1.
         22    1    3    3    0    0  0.12431086456E+03 -0.82684644483E+02  0.65779147269E+03  0.67452172910E+03  0.00000000000E+00 0. -1.
         22    1    3    3    0    0 -0.27522204153E+02 -0.87679410515E+00  0.18430855254E+03  0.18635418704E+03  0.00000000000E+00 0. -1.
</event>
<event>
 7    1  0.5854318E-006  0.3229251E+03  0.7818608E-02  0.1309692E+00
          2   -1    0    0  502    0  0.00000000000E+00  0.00000000000E+00  0.14418480697E+04  0.14418480697E+04  0.00000000000E+00 0. -1.
          1   -1    0    0  501    0 -0.00000000000E+00 -0.00000000000E+00 -0.21729376960E+04  0.21729376960E+04  0.00000000000E+00 0. -1.
         25    2    1    2    0    0 -0.24804193601E+03 -0.16918292699E+03 -0.53906003496E+03  0.62957148350E+03  0.12500746677E+03 0.  0.
          2    1    1    2  501    0 -0.17733916801E+02 -0.15518509379E+02 -0.15697810631E+04  0.15699579300E+04  0.00000000000E+00 0. -1.
          1    1    1    2  502    0  0.26577585281E+03  0.18470143637E+03  0.13777514718E+04  0.14152563522E+04  0.00000000000E+00 0. -1.
         22    1    3    3    0    0 -0.17638268594E+03 -0.13457166379E+03 -0.48509169089E+03  0.53341759735E+03  0.00000000000E+00 0. -1.
         22    1    3    3    0    0 -0.71659250069E+02 -0.34611263200E+02 -0.53968344067E+02  0.96153886151E+02  0.00000000000E+00 0. -1.
</event>
<event>
 7    1  0.5854318E-006  0.1168372E+03  0.7818608E-02  0.1249229E+00
          2   -1    0    0  502    0  0.00000000000E+00  0.00000000000E+00  0.18885057135E+04  0.18885057135E+04  0.00000000000E+00 0. -1.
          1   -1    0    0  501    0 -0.00000000000E+00 -0.00000000000E+00 -0.72795054067E+02  0.72795054067E+02  0.00000000000E+00 0. -1.
         25    2    1    2    0    0 -0.18060365594E+02 -0.72779200260E+02  0.78154206656E+03  0.79501748816E+03  0.12498726289E+03 0.  0.
          2    1    1    2  501    0 -0.98775736631E+02  0.72269323956E+02 -0.31246967097E+01  0.12243065409E+03  0.00000000000E+00 0. -1.
          1    1    1    2  502    0  0.11683610222E+03  0.50987630378E+00  0.10372932896E+04  0.10438526253E+04  0.00000000000E+00 0. -1.
         22    1    3    3    0    0  0.33793047705E+02  0.13588980041E+02  0.34918997489E+03  0.35108441864E+03  0.00000000000E+00 0.  1.
         22    1    3    3    0    0 -0.51853413299E+02 -0.86368180301E+02  0.43235209167E+03  0.44393306952E+03  0.00000000000E+00 0.  1.
</event>
<event>
 7    1  0.5854318E-006  0.7745348E+02  0.7818608E-02  0.1440995E+00
          2   -1    0    0  502    0  0.00000000000E+00  0.00000000000E+00  0.33662628897E+03  0.33662628897E+03  0.00000000000E+00 0. -1.
          1   -1    0    0  501    0 -0.00000000000E+00 -0.00000000000E+00 -0.10624847762E+04  0.10624847762E+04  0.00000000000E+00 0. -1.
         25    2    1    2    0    0 -0.10750660236E+01 -0.94643459098E+02 -0.20597292138E+03  0.25886139489E+03  0.12500334918E+03 0.  0.
          2    1    1    2  501    0 -0.24061548028E+02  0.72744171752E+02 -0.82739663794E+03  0.83093674193E+03  0.00000000000E+00 0. -1.
          1    1    1    2  502    0  0.25136614052E+02  0.21899287346E+02  0.30751107212E+03  0.30931292832E+03  0.00000000000E+00 0. -1.
         22    1    3    3    0    0  0.40512375170E+02 -0.10533516132E+03 -0.16166202042E+03  0.19715820449E+03  0.00000000000E+00 0. -1.
         22    1    3    3    0    0 -0.41587441193E+02  0.10691702223E+02 -0.44310900960E+02  0.61703190398E+02  0.00000000000E+00 0. -1.
</event>
<event>
 7    1  0.5854318E-006  0.7812401E+02  0.7818608E-02  0.1506956E+00
          2   -1    0    0  502    0  0.00000000000E+00  0.00000000000E+00  0.10173123628E+03  0.10173123628E+03  0.00000000000E+00 0. -1.
          1   -1    0    0  501    0 -0.00000000000E+00 -0.00000000000E+00 -0.20309227766E+03  0.20309227766E+03  0.00000000000E+00 0. -1.
         25    2    1    2    0    0 -0.53150815029E+02  0.65895503588E+02 -0.33757283109E+02  0.15473617102E+03  0.12504599925E+03 0.  0.
          2    1    1    2  501    0  0.32846264497E+02 -0.69689162709E+02 -0.90764873355E+02  0.11905342803E+03  0.00000000000E+00 0. -1.
          1    1    1    2  502    0  0.20304550532E+02  0.37936591208E+01  0.23161115079E+02  0.31033914892E+02  0.00000000000E+00 0. -1.
         22    1    3    3    0    0 -0.82448719850E+02  0.46541143870E+02  0.13739275456E+02  0.95669416052E+02  0.00000000000E+00 0.  1.
         22    1    3    3    0    0  0.29297904821E+02  0.19354359718E+02 -0.47496558565E+02  0.59066754969E+02  0.00000000000E+00 0.  1.
</event>
<event>
 7    1  0.5854318E-006  0.5816697E+02  0.7818608E-02  0.1464130E+00
          2   -1    0    0  502    0  0.00000000000E+00  0.00000000000E+00  0.10803971985E+04  0.10803971985E+04  0.00000000000E+00 0. -1.
          1   -1    0    0  501    0 -0.00000000000E+00 -0.00000000000E+00 -0.17464848235E+04  0.17464848235E+04  0.00000000000E+00 0. -1.
         25    2    1    2    0    0 -0.50386553622E+02  0.19244572328E+01  0.54416496960E+02  0.14536256207E+03  0.12500644379E+03 0.  0.
          2    1    1    2  501    0  0.46340575207E+02  0.35314629602E+02 -0.17001548456E+04  0.17011528653E+04  0.00000000000E+00 0. -1.
          1    1    1    2  502    0  0.40459784155E+01 -0.37239086835E+02  0.97965072365E+03  0.98036659464E+03  0.00000000000E+00 0. -1.
         22    1    3    3    0    0 -0.92118885337E+01 -0.16898333159E+02  0.87307109330E+02  0.89403265564E+02  0.00000000000E+00 0.  1.
         22    1    3    3    0    0 -0.41174665088E+02  0.18822790392E+02 -0.32890612370E+02  0.55959296505E+02  0.00000000000E+00 0.  1.
</event>
<event>
 7    1  0.5854318E-006  0.5750319E+02  0.7818608E-02  0.1498707E+00
          2   -1    0    0  502    0  0.00000000000E+00  0.00000000000E+00  0.49660311744E+03  0.49660311744E+03  0.00000000000E+00 0. -1.
          1   -1    0    0  501    0 -0.00000000000E+00 -0.00000000000E+00 -0.12646949409E+03  0.12646949409E+03  0.00000000000E+00 0. -1.
         25    2    1    2    0    0  0.17395022383E+02  0.39247819545E+02  0.30617060608E+02  0.13562835486E+03  0.12495866556E+03 0.  0.
          2    1    1    2  501    0 -0.23006756724E+02  0.18771630576E+02 -0.68828227888E+02  0.74960055521E+02  0.00000000000E+00 0. -1.
          1    1    1    2  502    0  0.56117343418E+01 -0.58019450121E+02  0.40834479064E+03  0.41248420115E+03  0.00000000000E+00 0. -1.
         22    1    3    3    0    0  0.55139565982E+02 -0.22532984979E+02  0.17175768997E+02  0.61992855954E+02  0.00000000000E+00 0. -1.
         22    1    3    3    0    0 -0.37744543599E+02  0.61780804524E+02  0.13441291611E+02  0.73635498907E+02  0.00000000000E+00 0. -1.
</event>
<event>
 7    1  0.5854318E-006  0.1916097E+03  0.7818608E-02  0.1277926E+00
          2   -1    0    0  502    0  0.00000000000E+00  0.00000000000E+00  0.22654215886E+04  0.22654215886E+04  0.00000000000E+00 0. -1.
          1   -1    0    0  501    0 -0.00000000000E+00 -0.00000000000E+00 -0.78184491802E+03  0.78184491802E+03  0.00000000000E+00 0. -1.
         25    2    1    2    0    0 -0.11556825818E+03  0.21099847031E+03  0.59472572426E+02  0.27755795955E+03  0.12500022908E+03 0.  0.
          2    1    1    2  501    0  0.96430722129E+02 -0.16116550952E+03 -0.65934686257E+03  0.68557384053E+03  0.00000000000E+00 0. -1.
          1    1    1    2  502    0  0.19137536047E+02 -0.49832960785E+02  0.20834509608E+04  0.20841347066E+04  0.00000000000E+00 0. -1.
         22    1    3    3    0    0 -0.44715242860E+02  0.85159224356E+02 -0.37899943421E+02  0.10338255244E+03  0.00000000000E+00 0.  1.
         22    1    3    3    0    0 -0.70853015316E+02  0.12583924595E+03  0.97372515847E+02  0.17417540711E+03  0.00000000000E+00 0.  1.
</event>
<event>
 7    1  0.5854318E-006  0.4150072E+02  0.7818608E-02  0.1603203E+00
          2   -1    0    0  502    0  0.00000000000E+00  0.00000000000E+00  0.40382863244E+03  0.40382863244E+03  0.00000000000E+00 0. -1.
          1   -1    0    0  501    0 -0.00000000000E+00 -0.00000000000E+00 -0.23598796365E+04  0.23598796365E+04  0.00000000000E+00 0. -1.
         25    2    1    2    0    0 -0.10524655201E+02 -0.28227159173E+02 -0.10712924337E+04  0.10789809720E+04  0.12499967390E+03 0.  0.
          2    1    1    2  501    0  0.31540371688E+02  0.28997311707E+02 -0.12841089907E+04  0.12848235439E+04  0.00000000000E+00 0. -1.
          1    1    1    2  502    0 -0.21015716486E+02 -0.77015253422E+00  0.39935042033E+03  0.39990375303E+03  0.00000000000E+00 0. -1.
         22    1    3    3    0    0 -0.10239001894E+02 -0.93415329697E+01 -0.10516121093E+04  0.10517034419E+04  0.00000000000E+00 0. -1.
         22    1    3    3    0    0 -0.28565330786E+00 -0.18885626203E+02 -0.19680324406E+02  0.27277530013E+02  0.00000000000E+00 0. -1.
</event>
<event>
 7    1  0.5854318E-006  0.6754558E+02  0.7818608E-02  0.1446389E+00
          2   -1    0    0  502    0  0.00000000000E+00  0.00000000000E+00  0.10432254031E+04  0.10432254031E+04  0.00000000000E+00 0. -1.
          1   -1    0    0  501    0 -0.00000000000E+00 -0.00000000000E+00 -0.50417506576E+03  0.50417506576E+03  0.00000000000E+00 0. -1.
         25    2    1    2    0    0  0.24040938980E+02 -0.98109543108E+02 -0.21990346479E+03  0.27237070667E+03  0.12499927532E+03 0.  0.
          2    1    1    2  501    0  0.34380991109E+01  0.36564593110E+02 -0.25560733072E+03  0.25823225498E+03  0.00000000000E+00 0. -1.
          1    1    1    2  502    0 -0.27479038090E+02  0.61544949998E+02  0.10145611329E+04  0.10167975073E+04  0.00000000000E+00 0. -1.
         22    1    3    3    0    0 -0.36381920965E+02 -0.47226259557E+02 -0.16693878421E+03  0.17726398799E+03  0.00000000000E+00 0. -1.
         22    1    3    3    0    0  0.60422859944E+02 -0.50883283551E+02 -0.52964680574E+02  0.95106718675E+02  0.00000000000E+00 0. -1.
</event>
<event>
 7    1  0.5854318E-006  0.1056416E+03  0.7818608E-02  0.1284665E+00
          2   -1    0    0  502    0  0.00000000000E+00  0.00000000000E+00  0.45723935970E+03  0.45723935970E+03  0.00000000000E+00 0. -1.
          1   -1    0    0  501    0 -0.00000000000E+00 -0.00000000000E+00 -0.16513042761E+04  0.16513042761E+04  0.00000000000E+00 0. -1.
         25    2    1    2    0    0 -0.13148487107E+03  0.14193898609E+03 -0.99993640494E+02  0.25111298716E+03  0.12499622830E+03 0.  0.
          2    1    1    2  501    0  0.63327305753E+02 -0.81916060078E+02 -0.14684996370E+04  0.14721452960E+04  0.00000000000E+00 0. -1.
          1    1    1    2  502    0  0.68157565322E+02 -0.60022926012E+02  0.37442836112E+03  0.38528535265E+03  0.00000000000E+00 0. -1.
         22    1    3    3    0    0  0.10705884356E+02  0.69361705118E+02 -0.38393427940E+02  0.79998233766E+02  0.00000000000E+00 0.  1.
         22    1    3    3    0    0 -0.14219075543E+03  0.72577280971E+02 -0.61600212554E+02  0.17111475340E+03  0.00000000000E+00 0.  1.
</event>
<event>
 7    1  0.5854318E-006  0.1799793E+03  0.7818608E-02  0.1205377E+00
          2   -1    0    0  502    0  0.00000000000E+00  0.00000000000E+00  0.73978192470E+03  0.73978192470E+03  0.00000000000E+00 0. -1.
          1   -1    0    0  501    0 -0.00000000000E+00 -0.00000000000E+00 -0.59650498319E+03  0.59650498319E+03  0.00000000000E+00 0. -1.
         25    2    1    2    0    0  0.18385884888E+02  0.16092624841E+03 -0.48459879207E+02  0.21024776461E+03  0.12498185645E+03 0.  0.
          2    1    1    2  501    0  0.11426952834E+03 -0.31613467751E+02 -0.44623366337E+03  0.46171573373E+03  0.00000000000E+00 0. -1.
          1    1    1    2  502    0 -0.13265541323E+03 -0.12931278065E+03  0.63797048409E+03  0.66432340954E+03  0.00000000000E+00 0. -1.
         22    1    3    3    0    0 -0.62383155254E+01 -0.66138884856E+01 -0.39649670029E+02  0.40678697557E+02  0.00000000000E+00 0.  1.
         22    1    3    3    0    0  0.24624200414E+02  0.16754013689E+03 -0.88102091782E+01  0.16956906705E+03  0.00000000000E+00 0.  1.
</event>
<event>
 7    1  0.5854318E-006  0.1499525E+03  0.7818608E-02  0.1257174E+00
          2   -1    0    0  502    0  0.00000000000E+00  0.00000000000E+00  0.28058189943E+04  0.28058189943E+04  0.00000000000E+00 0. -1.
          1   -1    0    0  501    0 -0.00000000000E+00 -0.00000000000E+00 -0.54170295678E+02  0.54170295678E+02  0.00000000000E+00 0. -1.
         25    2    1    2    0    0 -0.58363793180E+02 -0.79638696879E+02  0.88706482455E+03  0.90125403103E+03  0.12500468436E+03 0.  0.
          2    1    1    2  501    0 -0.42188962780E+02 -0.71983307179E+02 -0.18490231384E+01  0.83456120084E+02  0.00000000000E+00 0. -1.
          1    1    1    2  502    0  0.10055275596E+03  0.15162200406E+03  0.18664328973E+04  0.18752791389E+04  0.00000000000E+00 0. -1.
         22    1    3    3    0    0 -0.87066735819E+01 -0.61945827747E+02  0.77378365206E+03  0.77630807798E+03  0.00000000000E+00 0. -1.
         22    1    3    3    0    0 -0.49657119598E+02 -0.17692869132E+02  0.11328117248E+03  0.12494595305E+03  0.00000000000E+00 0. -1.
</event>
<event>
 7    1  0.5854318E-006  0.1605458E+03  0.7818608E-02  0.1293011E+00
          2   -1    0    0  502    0  0.00000000000E+00  0.00000000000E+00  0.19797792520E+04  0.19797792520E+04  0.00000000000E+00 0. -1.
          1   -1    0    0  501    0 -0.00000000000E+00 -0.00000000000E+00 -0.24032920691E+03  0.24032920691E+03  0.00000000000E+00 0. -1.
         25    2    1    2    0    0  0.20666627170E+03  0.47893266488E+02  0.16447402962E+04  0.16630695368E+04  0.12499971703E+03 0.  0.
          2    1    1    2  501    0 -0.15827683083E+03 -0.21208188575E+02 -0.20071441711E+03  0.25649097387E+03  0.00000000000E+00 0. -1.
          1    1    1    2  502    0 -0.48389440870E+02 -0.26685077913E+02  0.29542416596E+03  0.30054794826E+03  0.00000000000E+00 0. -1.
         22    1    3    3    0    0  0.15076549158E+03  0.90139211142E+02  0.11261869959E+04  0.11398036939E+04  0.00000000000E+00 0.  1.
         22    1    3    3    0    0  0.55900780127E+02 -0.42245944653E+02  0.51855330036E+03  0.52326584292E+03  0.00000000000E+00 0.  1.
</event>
<event>
 7    1  0.5854318E-006  0.9762967E+02  0.7818608E-02  0.1462415E+00
          2   -1    0    0  502    0  0.00000000000E+00  0.00000000000E+00  0.39150539768E+02  0.39150539768E+02  0.00000000000E+00 0. -1.
          1   -1    0    0  501    0 -0.00000000000E+00 -0.00000000000E+00 -0.93358197875E+03  0.93358197875E+03  0.00000000000E+00 0. -1.
         25    2    1    2    0    0  0.27632468229E+02  0.90286051113E+02 -0.39803661919E+03  0.42775457549E+03  0.12500280922E+03 0.  0.
          2    1    1    2  501    0 -0.20973091674E+02  0.84083673052E+01 -0.41839864046E+03  0.41900834545E+03  0.00000000000E+00 0. -1.
          1    1    1    2  502    0 -0.66593765556E+01 -0.98694418418E+02 -0.77996179327E+02  0.12596959757E+03  0.00000000000E+00 0. -1.
         22    1    3    3    0    0  0.58838429139E+02  0.76345483748E+02 -0.37335443431E+03  0.38559580814E+03  0.00000000000E+00 0. -1.
         22    1    3    3    0    0 -0.31205960909E+02  0.13940567365E+02 -0.24682184879E+02  0.42158767358E+02  0.00000000000E+00 0. -1.
</event>
<event>
 7    1  0.5854318E-006  0.1825856E+03  0.7818608E-02  0.1372847E+00
          2   -1    0    0  502    0  0.00000000000E+00  0.00000000000E+00  0.26229470872E+03  0.26229470872E+03  0.00000000000E+00 0. -1.
          1   -1    0    0  501    0 -0.00000000000E+00 -0.00000000000E+00 -0.72766226233E+03  0.72766226233E+03  0.00000000000E+00 0. -1.
         25    2    1    2    0    0  0.12663825039E+03  0.15663860919E+03 -0.12387793612E+03  0.26747549453E+03  0.12499798704E+03 0.  0.
          2    1    1    2  501    0 -0.87698168578E+01 -0.22484460089E+02 -0.48977134717E+03  0.49036561171E+03  0.00000000000E+00 0. -1.
          1    1    1    2  502    0 -0.11786843353E+03 -0.13415414910E+03  0.14828172967E+03  0.23211586482E+03  0.00000000000E+00 0. -1.
         22    1    3    3    0    0  0.10529252310E+03  0.17771916356E+03 -0.11371611422E+03  0.23580070218E+03  0.00000000000E+00 0.  1.
         22    1    3    3    0    0  0.21345727288E+02 -0.21080554365E+02 -0.10161821897E+02  0.31674792344E+02  0.00000000000E+00 0.  1.
</event>
<event>
 7    1  0.5854318E-006  0.1798135E+03  0.7818608E-02  0.1170209E+00
          2   -1    0    0  502    0  0.00000000000E+00  0.00000000000E+00  0.20475464536E+04  0.20475464536E+04  0.00000000000E+00 0. -1.
          1   -1    0    0  501    0 -0.00000000000E+00 -0.00000000000E+00 -0.57402314056E+03  0.57402314056E+03  0.00000000000E+00 0. -1.
         25    2    1    2    0    0 -0.12612424828E+03 -0.84765923274E+02  0.29056818157E+02  0.19890392456E+03  0.12500353903E+03 0.  0.
          2    1    1    2  501    0  0.16880638308E+03 -0.89908482235E+02 -0.46601796411E+03  0.50373790112E+03  0.00000000000E+00 0. -1.
          1    1    1    2  502    0 -0.42682134798E+02  0.17467440551E+03  0.19104844589E+04  0.19189277684E+04  0.00000000000E+00 0. -1.
         22    1    3    3    0    0 -0.10217386093E+03 -0.91155233444E+02  0.67890840546E+02  0.15283304837E+03  0.00000000000E+00 0. -1.
         22    1    3    3    0    0 -0.23950387348E+02  0.63893101698E+01 -0.38834022389E+02  0.46070876196E+02  0.00000000000E+00 0. -1.
</event>
<event>
 7    1  0.5854318E-006  0.9048243E+02  0.7818608E-02  0.1334465E+00
          2   -1    0    0  502    0  0.00000000000E+00  0.00000000000E+00  0.24407720056E+04  0.24407720056E+04  0.00000000000E+00 0. -1.
          1   -1    0    0  501    0 -0.00000000000E+00 -0.00000000000E+00 -0.63657424338E+02  0.63657424338E+02  0.00000000000E+00 0. -1.
         25    2    1    2    0    0  0.60627116240E+02  0.34930835335E+02  0.24857588739E+03  0.28689863070E+03  0.12500016811E+03 0.  0.
          2    1    1    2  501    0  0.28201147387E+02 -0.61272695371E+02 -0.17346872168E+02  0.69645975375E+02  0.00000000000E+00 0. -1.
          1    1    1    2  502    0 -0.88828263627E+02  0.26341860036E+02  0.21458855660E+04  0.21478848239E+04  0.00000000000E+00 0. -1.
         22    1    3    3    0    0 -0.19231101537E+02  0.44033810623E+02  0.16105763268E+03  0.16807252240E+03  0.00000000000E+00 0.  1.
         22    1    3    3    0    0  0.79858217778E+02 -0.91029752888E+01  0.87518254710E+02  0.11882610830E+03  0.00000000000E+00 0.  1.
</event>
<event>
 7    1  0.5854318E-006  0.3248013E+02  0.7818608E-02  0.1577972E+00
          2   -1    0    0  502    0  0.00000000000E+00  0.00000000000E+00  0.97467964571E+03  0.97467964571E+03  0.00000000000E+00 0. -1.
          1   -1    0    0  501    0 -0.00000000000E+00 -0.00000000000E+00 -0.20159303203E+03  0.20159303203E+03  0.00000000000E+00 0. -1.
         25    2    1    2    0    0  0.10858082245E+02  0.68508789565E+00  0.76280178308E+03  0.77305259583E+03  0.12500155343E+03 0.  0.
          2    1    1    2  501    0  0.17963503484E+02  0.27060511058E+02 -0.19316371101E+03  0.19587541440E+03  0.00000000000E+00 0. -1.
          1    1    1    2  502    0 -0.28821585729E+02 -0.27745598954E+02  0.20344854161E+03  0.20734466751E+03  0.00000000000E+00 0. -1.
         22    1    3    3    0    0  0.55193841760E+02 -0.30817857795E+02  0.54095839543E+03  0.54463940926E+03  0.00000000000E+00 0. -1.
         22    1    3    3    0    0 -0.44335759515E+02  0.31502945690E+02  0.22184338765E+03  0.22841318658E+03  0.00000000000E+00 0. -1.
</event>
<event>
 7    1  0.5854318E-006  0.1711419E+03  0.7818608E-02  0.1227231E+00
          2   -1    0    0  502    0  0.00000000000E+00  0.00000000000E+00  0.13798827906E+04  0.13798827906E+04  0.00000000000E+00 0. -1.
          1   -1    0    0  501    0 -0.00000000000E+00 -0.00000000000E+00 -0.44565919648E+03  0.44565919648E+03  0.00000000000E+00 0. -1.
         25    2    1    2    0    0 -0.13555493554E+03 -0.16975438178E+03 -0.10539833855E+03  0.27189143600E+03  0.12499781005E+03 0.  0.
          2    1    1    2  501    0  0.37382105909E+02  0.15714670188E+03 -0.22951528397E+03  0.28065953276E+03  0.00000000000E+00 0. -1.
          1    1    1    2  502    0  0.98172829628E+02  0.12607679900E+02  0.12691372167E+04  0.12729910184E+04  0.00000000000E+00 0. -1.
         22    1    3    3    0    0 -0.48211311050E+02 -0.44207820403E+02 -0.99200690971E+02  0.11882524558E+03  0.00000000000E+00 0.  1.
         22    1    3    3    0    0 -0.87343624488E+02 -0.12554656138E+03 -0.61976475741E+01  0.15306619042E+03  0.00000000000E+00 0.  1.
</event>
<event>
 7    1  0.5854318E-006  0.7104473E+02  0.7818608E-02  0.1361490E+00
          2   -1    0    0  502    0  0.00000000000E+00  0.00000000000E+00  0.13000557885E+03  0.13000557885E+03  0.00000000000E+00 0. -1.
          1   -1    0    0  501    0 -0.00000000000E+00 -0.00000000000E+00 -0.36862615373E+03  0.36862615373E+03  0.00000000000E+00 0. -1.
         25    2    1    2    0    0 -0.27454011305E+02 -0.41726549532E+02  0.14189214934E+02  0.13534544507E+03  0.12498891154E+03 0.  0.
          2    1    1    2  501    0  0.46034155528E+02 -0.50275120950E+02 -0.26034877516E+03  0.26912490779E+03  0.00000000000E+00 0. -1.
          1    1    1    2  502    0 -0.18580144223E+02  0.92001670482E+02  0.75389853595E+01  0.94161379722E+02  0.00000000000E+00 0. -1.
         22    1    3    3    0    0 -0.77597162312E+02 -0.27613562859E+02  0.11740286161E+02  0.83196531008E+02  0.00000000000E+00 0.  1.
         22    1    3    3    0    0  0.50143151007E+02 -0.14112986673E+02  0.24489287734E+01  0.52148914063E+02  0.00000000000E+00 0.  1.
</event>
<event>
 7    1  0.5854318E-006  0.1179919E+03  0.7818608E-02  0.1248141E+00
          2   -1    0    0  502    0  0.00000000000E+00  0.00000000000E+00  0.77919651138E+02  0.77919651138E+02  0.00000000000E+00 0. -1.
          1   -1    0    0  501    0 -0.00000000000E+00 -0.00000000000E+00 -0.13718071977E+04  0.13718071977E+04  0.00000000000E+00 0. -1.
         25    2    1    2    0    0 -0.11098653389E+02 -0.66372391479E+01 -0.11830832940E+03  0.17259745918E+03  0.12500315620E+03 0.  0.
          2    1    1    2  501    0  0.81605767296E+02  0.10124604400E+03 -0.11488003411E+04  0.11561368805E+04  0.00000000000E+00 0. -1.
          1    1    1    2  502    0 -0.70507113907E+02 -0.94608804855E+02 -0.26778876024E+02  0.12099250914E+03  0.00000000000E+00 0. -1.
         22    1    3    3    0    0 -0.36844168948E+02 -0.56873439053E+02 -0.77465245394E+02  0.10292203408E+03  0.00000000000E+00 0.  1.
         22    1    3    3    0    0  0.25745515559E+02  0.50236199905E+02 -0.40843084006E+02  0.69675425104E+02  0.00000000000E+00 0.  1.
</event>
<event>
 7    1  0.5854318E-006  0.9308794E+02  0.7818608E-02  0.1391570E+00
          2   -1    0    0  502    0  0.00000000000E+00  0.00000000000E+00  0.19025808133E+04  0.19025808133E+04  0.00000000000E+00 0. -1.
          1   -1    0    0  501    0 -0.00000000000E+00 -0.00000000000E+00 -0.79469529433E+02  0.79469529433E+02  0.00000000000E+00 0. -1.
         25    2    1    2    0    0 -0.54603796070E+02  0.46019764878E+02  0.38463058090E+03  0.41068858116E+03  0.12500013448E+03 0.  0.
          2    1    1    2  501    0  0.43252431048E+02 -0.85057370806E+02 -0.31752073284E+02  0.10056700889E+03  0.00000000000E+00 0. -1.
          1    1    1    2  502    0  0.11351365022E+02  0.39037605928E+02  0.14702327762E+04  0.14707947527E+04  0.00000000000E+00 0. -1.
         22    1    3    3    0    0 -0.35469243093E+02 -0.34615309337E+01  0.33854256970E+03  0.34041316206E+03  0.00000000000E+00 0.  1.
         22    1    3    3    0    0 -0.19134552977E+02  0.49481295812E+02  0.46088011201E+02  0.70275419098E+02  0.00000000000E+00 0.  1.
</event>
<event>
 7    1  0.5854318E-006  0.1228041E+03  0.7818608E-02  0.1287401E+00
          2   -1    0    0  502    0  0.00000000000E+00  0.00000000000E+00  0.62667094186E+03  0.62667094186E+03  0.00000000000E+00 0. -1.
          1   -1    0    0  501    0 -0.00000000000E+00 -0.00000000000E+00 -0.44172085154E+03  0.44172085154E+03  0.00000000000E+00 0. -1.
         25    2    1    2    0    0 -0.13662288092E+03  0.97442562798E+02 -0.23277805302E+02  0.21054227105E+03  0.12500130817E+03 0.  0.
          2    1    1    2  501    0  0.60642950158E+02 -0.10235784654E+03 -0.31104619962E+03  0.33302317404E+03  0.00000000000E+00 0. -1.
          1    1    1    2  502    0  0.75979930764E+02  0.49152837376E+01  0.51927409523E+03  0.52482634830E+03  0.00000000000E+00 0. -1.
         22    1    3    3    0    0  0.25564072268E+01 -0.60923503248E+01 -0.36008895078E+02  0.36610005123E+02  0.00000000000E+00 0. -1.
         22    1    3    3    0    0 -0.13917928815E+03  0.10353491312E+03  0.12731089776E+02  0.17393226593E+03  0.00000000000E+00 0. -1.
</event>
<event>
 7    1  0.5854318E-006  0.5783929E+02  0.7818608E-02  0.1498229E+00
          2   -1    0    0  502    0  0.00000000000E+00  0.00000000000E+00  0.76645127439E+03  0.76645127439E+03  0.00000000000E+00 0. -1.
          1   -1    0    0  501    0 -0.00000000000E+00 -0.00000000000E+00 -0.47575152113E+02  0.47575152113E+02  0.00000000000E+00 0. -1.
         25    2    1    2    0    0  0.21464257481E+02  0.25991624442E+02  0.27274823794E+03  0.30191638877E+03  0.12500250244E+03 0.  0.
          2    1    1    2  501    0 -0.50084381056E+02 -0.33614468853E+02 -0.45217087356E+01  0.60488210355E+02  0.00000000000E+00 0. -1.
          1    1    1    2  502    0  0.28620123575E+02  0.76228444102E+01  0.45064959307E+03  0.45162182738E+03  0.00000000000E+00 0. -1.
         22    1    3    3    0    0 -0.36519559073E+01 -0.33364217093E+02  0.20752338039E+03  0.21022003038E+03  0.00000000000E+00 0. -1.
         22    1    3    3    0    0  0.25116213388E+02  0.59355841536E+02  0.65224857552E+02  0.91696358390E+02  0.00000000000E+00 0. -1.
</event>
<event>
 7    1  0.5854318E-006  0.5375808E+02  0.7818608E-02  0.1464560E+00
          2   -1    0    0  502    0  0.00000000000E+00  0.00000000000E+00  0.24734830391E+03  0.24734830391E+03  0.00000000000E+00 0. -1.
          1   -1    0    0  501    0 -0.00000000000E+00 -0.00000000000E+00 -0.10670040480E+04  0.10670040480E+04  0.00000000000E+00 0. -1.
         25    2    1    2    0    0  0.41056636157E+02 -0.54679705549E+02 -0.20427119711E+03  0.24905270541E+03  0.12500004213E+03 0.  0.
          2    1    1    2  501    0 -0.66416675483E+00  0.53677768042E+02 -0.83766167325E+03  0.83938002283E+03  0.00000000000E+00 0. -1.
          1    1    1    2  502    0 -0.40392469403E+02  0.10019375076E+01  0.22227712631E+03  0.22591962363E+03  0.00000000000E+00 0. -1.
         22    1    3    3    0    0 -0.10656499204E+02 -0.80122624232E+02 -0.14726816958E+03  0.16799139758E+03  0.00000000000E+00 0. -1.
         22    1    3    3    0    0  0.51713135361E+02  0.25442918683E+02 -0.57003027530E+02  0.81061307833E+02  0.00000000000E+00 0. -1.
</event>
<event>
 7    1  0.5854318E-006  0.3865594E+02  0.7818608E-02  0.1536804E+00
          2   -1    0    0  502    0  0.00000000000E+00  0.00000000000E+00  0.15143952961E+02  0.15143952961E+02  0.00000000000E+00 0. -1.
          1   -1    0    0  501    0 -0.00000000000E+00 -0.00000000000E+00 -0.25551508089E+04  0.25551508089E+04  0.00000000000E+00 0. -1.
         25    2    1    2    0    0  0.10426063307E+02 -0.53520766471E+01 -0.52687145836E+03  0.54162189175E+03  0.12499356973E+03 0.  0.
          2    1    1    2  501    0  0.29927303313E+02  0.16572502377E+02 -0.19631974759E+04  0.19634955108E+04  0.00000000000E+00 0. -1.
          1    1    1    2  502    0 -0.40353366619E+02 -0.11220425730E+02 -0.49937921646E+02  0.65177359331E+02  0.00000000000E+00 0. -1.
         22    1    3    3    0    0 -0.31860831071E+02 -0.34544123673E+02 -0.88082958261E+02  0.99834946651E+02  0.00000000000E+00 0. -1.
         22    1    3    3    0    0  0.42286894378E+02  0.29192047026E+02 -0.43878850010E+03  0.44178694510E+03  0.00000000000E+00 0. -1.
</event>
<event>
 7    1  0.5854318E-006  0.9839395E+02  0.7818608E-02  0.1355015E+00
          2   -1    0    0  502    0  0.00000000000E+00  0.00000000000E+00  0.22511117623E+04  0.22511117623E+04  0.00000000000E+00 0. -1.
          1   -1    0    0  501    0 -0.00000000000E+00 -0.00000000000E+00 -0.50942476585E+03  0.50942476585E+03  0.00000000000E+00 0. -1.
         25    2    1    2    0    0  0.98147197204E+02 -0.68078246182E+02  0.29517302997E+03  0.34208114670E+03  0.12499949352E+03 0.  0.
          2    1    1    2  501    0 -0.49233687746E+02 -0.16668935466E+02 -0.48333771542E+03  0.48612463070E+03  0.00000000000E+00 0. -1.
          1    1    1    2  502    0 -0.48913509458E+02  0.84747181648E+02  0.19298516819E+04  0.19323307508E+04  0.00000000000E+00 0. -1.
         22    1    3    3    0    0  0.52104704233E+02 -0.10229843030E+03  0.21115824597E+03  0.24034906674E+03  0.00000000000E+00 0.  1.
         22    1    3    3    0    0  0.46042492971E+02  0.34220184118E+02  0.84014784005E+02  0.10173207995E+03  0.00000000000E+00 0.  1.
</event>
<event>
 7    1  0.5854318E-006  0.6740273E+02  0.7818608E-02  0.1480285E+00
          2   -1    0    0  502    0  0.00000000000E+00  0.00000000000E+00  0.86279199599E+03  0.86279199599E+03  0.00000000000E+00 0. -1.
          1   -1    0    0  501    0 -0.00000000000E+00 -0.00000000000E+00 -0.17699847597E+04  0.17699847597E+04  0.00000000000E+00 0. -1.
         25    2    1    2    0    0  0.38682904588E+02 -0.64987889423E+02  0.16313425158E+03  0.21899355984E+03  0.12500240931E+03 0.  0.
          2    1    1    2  501    0 -0.99278558676E+01  0.66658623742E+02 -0.17410941107E+04  0.17423979559E+04  0.00000000000E+00 0. -1.
          1    1    1    2  502    0 -0.28755048721E+02 -0.16707343189E+01  0.67076709540E+03  0.67138523997E+03  0.00000000000E+00 0. -1.
         22    1    3    3    0    0 -0.13732968656E+01 -0.32110734158E+01  0.14248273657E+03  0.14252553160E+03  0.00000000000E+00 0. -1.
         22    1    3    3    0    0  0.40056201454E+02 -0.61776816007E+02  0.20651515007E+02  0.76468028240E+02  0.00000000000E+00 0. -1.
</event>
<event>
 7    1  0.5854318E-006  0.3815437E+03  0.7818608E-02  0.1080645E+00
          2   -1    0    0  502    0  0.00000000000E+00  0.00000000000E+00  0.46760655669E+03  0.46760655669E+03  0.00000000000E+00 0. -1.
          1   -1    0    0  501    0 -0.00000000000E+00 -0.00000000000E+00 -0.19613571609E+04  0.19613571609E+04  0.00000000000E+00 0. -1.
         25    2    1    2    0    0 -0.18847047439E+03  0.51344857713E+02  0.30139777133E+03  0.38030064763E+03  0.12502220561E+03 0.  0.
          2    1    1    2  501    0  0.27050366767E+03 -0.28841406258E+03 -0.17495672689E+04  0.17936946602E+04  0.00000000000E+00 0. -1.
          1    1    1    2  502    0 -0.82033193288E+02  0.23706920487E+03 -0.45581106675E+02  0.25496840978E+03  0.00000000000E+00 0. -1.
         22    1    3    3    0    0 -0.10880432459E+03  0.55298398294E+02  0.26673111826E+03  0.29332879735E+03  0.00000000000E+00 0.  1.
         22    1    3    3    0    0 -0.79666149795E+02 -0.39535405818E+01  0.34666653065E+02  0.86971850279E+02  0.00000000000E+00 0.  1.
</event>
<event>
 7    1  0.5854318E-006  0.2245937E+03  0.7818608E-02  0.1170036E+00
          2   -1    0    0  502    0  0.00000000000E+00  0.00000000000E+00  0.11298911533E+04  0.11298911533E+04  0.00000000000E+00 0. -1.
          1   -1    0    0  501    0 -0.00000000000E+00 -0.00000000000E+00 -0.11846422738E+04  0.11846422738E+04  0.00000000000E+00 0. -1.
         25    2    1    2    0    0 -0.87116317722E+02 -0.39825536860E+02  0.10579190142E+03  0.18971311690E+03  0.12499525637E+03 0.  0.
          2    1    1    2  501    0  0.20072931997E+03  0.12268189370E+03 -0.11254229767E+04  0.11497477912E+04  0.00000000000E+00 0. -1.
          1    1    1    2  502    0 -0.11361300225E+03 -0.82856356845E+02  0.96487995477E+03  0.97507251898E+03  0.00000000000E+00 0. -1.
         22    1    3    3    0    0 -0.45267627610E+02 -0.26277805639E+02  0.12954700006E+03  0.13972153164E+03  0.00000000000E+00 0.  1.
         22    1    3    3    0    0 -0.41848690111E+02 -0.13547731221E+02 -0.23755098638E+02  0.49991585257E+02  0.00000000000E+00 0.  1.
</event>
<event>
 7    1  0.5854318E-006  0.1094840E+03  0.7818608E-02  0.1268816E+00
          2   -1    0    0  502    0  0.00000000000E+00  0.00000000000E+00  0.56778893337E+03  0.56778893337E+03  0.00000000000E+00 0. -1.
          1   -1    0    0  501    0 -0.00000000000E+00 -0.00000000000E+00 -0.33548533906E+03  0.33548533906E+03  0.00000000000E+00 0. -1.
         25    2    1    2    0    0  0.42144472607E+02 -0.20877709066E+02  0.16006810879E+03  0.20846741847E+03  0.12499931922E+03 0.  0.
          2    1    1    2  501    0 -0.92326290804E+02 -0.67898945479E+02 -0.29352016618E+03  0.31510077551E+03  0.00000000000E+00 0. -1.
          1    1    1    2  502    0  0.50181818197E+02  0.88776654545E+02  0.36575565170E+03  0.37970607846E+03  0.00000000000E+00 0. -1.
         22    1    3    3    0    0 -0.10242638324E+02 -0.71349937635E+00  0.15130588241E+03  0.15165385182E+03  0.00000000000E+00 0. -1.
         22    1    3    3    0    0  0.52387110931E+02 -0.20164209690E+02  0.87622263812E+01  0.56813566648E+02  0.00000000000E+00 0. -1.
</event>
<event>
 7    1  0.5854318E-006  0.1309071E+03  0.7818608E-02  0.1434811E+00
          2   -1    0    0  502    0  0.00000000000E+00  0.00000000000E+00  0.48028602896E+03  0.48028602896E+03  0.00000000000E+00 0. -1.
          1   -1    0    0  501    0 -0.00000000000E+00 -0.00000000000E+00 -0.28607505479E+03  0.28607505479E+03  0.00000000000E+00 0. -1.
         25    2    1    2    0    0 -0.36248888844E+02  0.12108506847E+03  0.32286338277E+03  0.36856648029E+03  0.12499964284E+03 0.  0.
          2    1    1    2  501    0  0.56720535704E+02 -0.11829572815E+03 -0.24591766733E+03  0.27872315579E+03  0.00000000000E+00 0. -1.
          1    1    1    2  502    0 -0.20471646860E+02 -0.27893403227E+01  0.11726525874E+03  0.11907144767E+03  0.00000000000E+00 0. -1.
         22    1    3    3    0    0 -0.65132470946E+02  0.40892143775E+02  0.22999519200E+03  0.24251225647E+03  0.00000000000E+00 0.  1.
         22    1    3    3    0    0  0.28883582101E+02  0.80192924698E+02  0.92868190766E+02  0.12605422382E+03  0.00000000000E+00 0.  1.
</event>
<event>
 7    1  0.5854318E-006  0.1366870E+03  0.7818608E-02  0.1426174E+00
          2   -1    0    0  502    0  0.00000000000E+00  0.00000000000E+00  0.13149599215E+03  0.13149599215E+03  0.00000000000E+00 0. -1.
          1   -1    0    0  501    0 -0.00000000000E+00 -0.00000000000E+00 -0.97185243472E+03  0.97185243472E+03  0.00000000000E+00 0. -1.
         25    2    1    2    0    0 -0.61259153099E+02  0.14349662743E+03 -0.56481409317E+03  0.59915291966E+03  0.12500118145E+03 0.  0.
          2    1    1    2  501    0  0.43993288138E+01 -0.20661968002E+02 -0.34937404491E+03  0.35001213446E+03  0.00000000000E+00 0. -1.
          1    1    1    2  502    0  0.56859824286E+02 -0.12283465942E+03  0.73831695511E+02  0.15418337276E+03  0.00000000000E+00 0. -1.
         22    1    3    3    0    0  0.13505417218E+02  0.49443753232E+02 -0.34373038078E+03  0.34753079821E+03  0.00000000000E+00 0.  1.
         22    1    3    3    0    0 -0.74764570317E+02  0.94052874195E+02 -0.22108371239E+03  0.25162212145E+03  0.00000000000E+00 0.  1.
</event>
<event>
 7    1  0.5854318E-006  0.5710876E+02  0.7818608E-02  0.1475280E+00
          2   -1    0    0  502    0  0.00000000000E+00  0.00000000000E+00  0.59408490611E+03  0.59408490611E+03  0.00000000000E+00 0. -1.
          1   -1    0    0  501    0 -0.00000000000E+00 -0.00000000000E+00 -0.71049282730E+03  0.71049282730E+03  0.00000000000E+00 0. -1.
         25    2    1    2    0    0  0.63927783371E+02 -0.33659183856E+02 -0.58870254311E+02  0.15592069351E+03  0.12500341467E+03 0.  0.
          2    1    1    2  501    0 -0.32388276250E+02 -0.13843124146E+02 -0.60109054335E+03  0.60212164371E+03  0.00000000000E+00 0. -1.
          1    1    1    2  502    0 -0.31539507121E+02  0.47502308002E+02  0.54355287646E+03  0.54653539619E+03  0.00000000000E+00 0. -1.
         22    1    3    3    0    0  0.90556176288E+02  0.26625891027E+01 -0.63518890391E+02  0.11064429439E+03  0.00000000000E+00 0. -1.
         22    1    3    3    0    0 -0.26628392917E+02 -0.36321772959E+02  0.46486360795E+01  0.45276399124E+02  0.00000000000E+00 0. -1.
</event>
<event>
 7    1  0.5854318E-006  0.1112945E+03  0.7818608E-02  0.1421180E+00
          2   -1    0    0  502    0  0.00000000000E+00  0.00000000000E+00  0.18466055407E+04  0.18466055407E+04  0.00000000000E+00 0. -1.
          1   -1    0    0  501    0 -0.00000000000E+00 -0.00000000000E+00 -0.34963860119E+03  0.34963860119E+03  0.00000000000E+00 0. -1.
         25    2    1    2    0    0 -0.83180721292E+02 -0.10755393881E+03  0.63358725976E+02  0.19525804944E+03  0.12499798225E+03 0.  0.
          2    1    1    2  501    0  0.64082982943E+02  0.88531191747E+02 -0.27305259542E+03  0.29411242830E+03  0.00000000000E+00 0. -1.
          1    1    1    2  502    0  0.19097738349E+02  0.19022747062E+02  0.17066608090E+04  0.17068736642E+04  0.00000000000E+00 0. -1.
         22    1    3    3    0    0 -0.37524598721E+02 -0.99201184364E+02  0.92266777306E+02  0.14057783852E+03  0.00000000000E+00 0. -1.
         22    1    3    3    0    0 -0.45656122571E+02 -0.83527544449E+01 -0.28908051330E+02  0.54680210924E+02  0.00000000000E+00 0. -1.
</event>
<event>
 7    1  0.5854318E-006  0.1163807E+03  0.7818608E-02  0.1412700E+00
          2   -1    0    0  502    0  0.00000000000E+00  0.00000000000E+00  0.54346944641E+03  0.54346944641E+03  0.00000000000E+00 0. -1.
          1   -1    0    0  501    0 -0.00000000000E+00 -0.00000000000E+00 -0.60524872816E+03  0.60524872816E+03  0.00000000000E+00 0. -1.
         25    2    1    2    0    0 -0.90665588436E+02  0.83204684914E+02 -0.70403095474E+02  0.18901059589E+03  0.12500056395E+03 0.  0.
          2    1    1    2  501    0  0.24593488311E+02  0.12354881303E+02 -0.46816262728E+03  0.46897092483E+03  0.00000000000E+00 0. -1.
          1    1    1    2  502    0  0.66072100125E+02 -0.95559566217E+02  0.47678644100E+03  0.49073665385E+03  0.00000000000E+00 0. -1.
         22    1    3    3    0    0 -0.71462343247E+02  0.56366137939E+02 -0.10650545360E+03  0.14009789312E+03  0.00000000000E+00 0. -1.
         22    1    3    3    0    0 -0.19203245189E+02  0.26838546975E+02  0.36102358131E+02  0.48912702769E+02  0.00000000000E+00 0. -1.
</event>
<event>
 7    1  0.5854318E-006  0.8640279E+02  0.7818608E-02  0.1476164E+00
          2   -1    0    0  502    0  0.00000000000E+00  0.00000000000E+00  0.22083492937E+03  0.22083492937E+03  0.00000000000E+00 0. -1.
          1   -1    0    0  501    0 -0.00000000000E+00 -0.00000000000E+00 -0.16331093662E+03  0.16331093662E+03  0.00000000000E+00 0. -1.
         25    2    1    2    0    0 -0.55908566883E+02 -0.52591968076E+02 -0.22597460597E+02  0.14841568495E+03  0.12499954942E+03 0.  0.
          2    1    1    2  501    0 -0.21025238514E+02  0.96525155702E+01 -0.63307169739E+02  0.67401998871E+02  0.00000000000E+00 0. -1.
          1    1    1    2  502    0  0.76933805397E+02  0.42939452505E+02  0.14342862308E+03  0.16832818217E+03  0.00000000000E+00 0. -1.
         22    1    3    3    0    0  0.25367385054E+02 -0.45074045939E+01 -0.44549277774E+02  0.51463181701E+02  0.00000000000E+00 0.  1.
         22    1    3    3    0    0 -0.81275951937E+02 -0.48084563482E+02  0.21951817176E+02  0.96952503247E+02  0.00000000000E+00 0.  1.
</event>
<event>
 7    1  0.5854318E-006  0.6144273E+02  0.7818608E-02  0.1503418E+00
          2   -1    0    0  502    0  0.00000000000E+00  0.00000000000E+00  0.49785340213E+03  0.49785340213E+03  0.00000000000E+00 0. -1.
          1   -1    0    0  501    0 -0.00000000000E+00 -0.00000000000E+00 -0.96239987865E+02  0.96239987865E+02  0.00000000000E+00 0. -1.
         25    2    1    2    0    0  0.82103328345E+01  0.36292996994E+02  0.44888290144E+02  0.13793100795E+03  0.12500165265E+03 0.  0.
          2    1    1    2  501    0 -0.52740679879E+01  0.26383566789E+02 -0.43445747234E+02  0.51102263574E+02  0.00000000000E+00 0. -1.
          1    1    1    2  502    0 -0.29362648466E+01 -0.62676563783E+02  0.40017087136E+03  0.40506011848E+03  0.00000000000E+00 0. -1.
         22    1    3    3    0    0 -0.46034263527E+02  0.34174707078E+02  0.58556540702E+02  0.81950793049E+02  0.00000000000E+00 0.  1.
         22    1    3    3    0    0  0.54244596362E+02  0.21182899156E+01 -0.13668250558E+02  0.55980214897E+02  0.00000000000E+00 0.  1.
</event>
<event>
 7    1  0.5854318E-006  0.2723388E+03  0.7818608E-02  0.1149623E+00
          2   -1    0    0  502    0  0.00000000000E+00  0.00000000000E+00  0.66236424551E+03  0.66236424551E+03  0.00000000000E+00 0. -1.
          1   -1    0    0  501    0 -0.00000000000E+00 -0.00000000000E+00 -0.14697018709E+04  0.14697018709E+04  0.00000000000E+00 0. -1.
         25    2    1    2    0    0 -0.20629720402E+03  0.15674208304E+03 -0.28286028781E+03  0.40343671193E+03  0.12499848451E+03 0.  0.
          2    1    1    2  501    0  0.28340118854E+03 -0.31493821725E+02 -0.10990980450E+04  0.11354843051E+04  0.00000000000E+00 0. -1.
          1    1    1    2  502    0 -0.77103984528E+02 -0.12524826131E+03  0.57462070750E+03  0.59314509935E+03  0.00000000000E+00 0. -1.
         22    1    3    3    0    0 -0.11702945677E+03  0.15669394639E+03 -0.21938237181E+03  0.29390051319E+03  0.00000000000E+00 0.  1.
         22    1    3    3    0    0 -0.89267747241E+02  0.48136644293E-01 -0.63477916003E+02  0.10953619874E+03  0.00000000000E+00 0.  1.
</event>
<event>
 7    1  0.5854318E-006  0.6602827E+02  0.7818608E-02  0.1507473E+00
          2   -1    0    0  502    0  0.00000000000E+00  0.00000000000E+00  0.45319285450E+02  0.45319285450E+02  0.00000000000E+00 0. -1.
          1   -1    0    0  501    0 -0.00000000000E+00 -0.00000000000E+00 -0.76895948912E+03  0.76895948912E+03  0.00000000000E+00 0. -1.
         25    2    1    2    0    0  0.28614057464E+02  0.35688848328E+02 -0.30531836024E+03  0.33307185084E+03  0.12500039418E+03 0.  0.
          2    1    1    2  501    0  0.54176950403E+01  0.23743688556E+02 -0.41167943049E+03  0.41239916058E+03  0.00000000000E+00 0. -1.
          1    1    1    2  502    0 -0.34031752504E+02 -0.59432536884E+02 -0.66424129446E+01  0.68807763143E+02  0.00000000000E+00 0. -1.
         22    1    3    3    0    0 -0.14571557020E+02 -0.37828822273E+02 -0.52929602876E+02  0.66670030217E+02  0.00000000000E+00 0.  1.
         22    1    3    3    0    0  0.43185614484E+02  0.73517670601E+02 -0.25238875736E+03  0.26640182062E+03  0.00000000000E+00 0.  1.
</event>
<event>
 7    1  0.5854318E-006  0.5962019E+02  0.7818608E-02  0.1489323E+00
          2   -1    0    0  502    0  0.00000000000E+00  0.00000000000E+00  0.10809354710E+04  0.10809354710E+04  0.00000000000E+00 0. -1.
          1   -1    0    0  501    0 -0.00000000000E+00 -0.00000000000E+00 -0.29653186202E+03  0.29653186202E+03  0.00000000000E+00 0. -1.
         25    2    1    2    0    0 -0.46506731626E+01  0.76323464032E+02  0.15483517876E+03  0.21318064269E+03  0.12500061565E+03 0.  0.
          2    1    1    2  501    0  0.23079405359E+02 -0.20035260071E+02 -0.26550376434E+03  0.26725702886E+03  0.00000000000E+00 0. -1.
          1    1    1    2  502    0 -0.18428732196E+02 -0.56288203961E+02  0.89507219458E+03  0.89702966148E+03  0.00000000000E+00 0. -1.
         22    1    3    3    0    0  0.49311164786E+02  0.46125650515E+02  0.13010385134E+03  0.14658164531E+03  0.00000000000E+00 0. -1.
         22    1    3    3    0    0 -0.53961837949E+02  0.30197813517E+02  0.24731327417E+02  0.66598997379E+02  0.00000000000E+00 0. -1.
</event>
<event>
 7    1  0.5854318E-006  0.1226858E+03  0.7818608E-02  0.1257750E+00
          2   -1    0    0  502    0  0.00000000000E+00  0.00000000000E+00  0.34773870763E+04  0.34773870763E+04  0.00000000000E+00 0. -1.
          1   -1    0    0  501    0 -0.00000000000E+00 -0.00000000000E+00 -0.42347521304E+03  0.42347521304E+03  0.00000000000E+00 0. -1.
         25    2    1    2    0    0 -0.95133888230E+02 -0.16757118870E+03  0.86697143391E+01  0.22984812660E+03  0.12499774952E+03 0.  0.
          2    1    1    2  501    0  0.97413180426E+02  0.66195449663E+02 -0.30100747817E+03  0.32322850615E+03  0.00000000000E+00 0. -1.
          1    1    1    2  502    0 -0.22792921960E+01  0.10137573904E+03  0.33462496270E+04  0.33477856565E+04  0.00000000000E+00 0. -1.
         22    1    3    3    0    0 -0.49775846540E+02 -0.17619129703E+03  0.12886455291E+01  0.18309196775E+03  0.00000000000E+00 0. -1.
         22    1    3    3    0    0 -0.45358041690E+02  0.86201083317E+01  0.73810688101E+01  0.46756158849E+02  0.00000000000E+00 0. -1.
</event>
<event>
 7    1  0.5854318E-006  0.8668667E+02  0.7818608E-02  0.1357784E+00
          2   -1    0    0  502    0  0.00000000000E+00  0.00000000000E+00  0.28365375898E+03  0.28365375898E+03  0.00000000000E+00 0. -1.
          1   -1    0    0  501    0 -0.00000000000E+00 -0.00000000000E+00 -0.29770782495E+04  0.29770782495E+04  0.00000000000E+00 0. -1.
         25    2    1    2    0    0  0.11005394039E+03  0.59084280941E+02 -0.11517976947E+04  0.11652750107E+04  0.12500039630E+03 0.  0.
          2    1    1    2  501    0 -0.23779598761E+02 -0.52500158898E+02 -0.18113133939E+04  0.18122301031E+04  0.00000000000E+00 0. -1.
          1    1    1    2  502    0 -0.86274341626E+02 -0.65841220438E+01  0.26968659801E+03  0.28322689462E+03  0.00000000000E+00 0. -1.
         22    1    3    3    0    0  0.70550477615E+01  0.40312566914E+02 -0.96807776639E+02  0.10510291322E+03  0.00000000000E+00 0. -1.
         22    1    3    3    0    0  0.10299889263E+03  0.18771714027E+02 -0.10549899181E+04  0.10601720975E+04  0.00000000000E+00 0. -1.
</event>
<event>
 7    1  0.6637709E-006  0.1275637E+03  0.7818608E-02  0.1295661E+00
          2   -1    0    0  502    0  0.00000000000E+00  0.00000000000E+00  0.10452463584E+04  0.10452463584E+04  0.00000000000E+00 0. -1.
          1   -1    0    0  501    0 -0.00000000000E+00 -0.00000000000E+00 -0.14341222743E+04  0.14341222743E+04  0.00000000000E+00 0. -1.
         25    2    1    2    0    0  0.29298200937E+02  0.67587433841E+02 -0.28731417970E+03  0.32187145880E+03  0.12500140937E+03 0.  0.
          2    1    1    2  501    0 -0.61417795282E+02 -0.12735842425E+03 -0.11239755353E+04  0.11328341970E+04  0.00000000000E+00 0. -1.
          1    1    1    2  502    0  0.32119594345E+02  0.59770990408E+02  0.10224137991E+04  0.10246629769E+04  0.00000000000E+00 0. -1.
         22    1    3    3    0    0  0.64170576505E+02  0.50635095587E+01 -0.80836526492E+02  0.10333463134E+03  0.00000000000E+00 0.  1.
         22    1    3    3    0    0 -0.34872375568E+02  0.62523924282E+02 -0.20647765321E+03  0.21853682747E+03  0.00000000000E+00 0.  1.
</event>
<event>
 7    1  0.5854318E-006  0.9680998E+02  0.7818608E-02  0.1408503E+00
          2   -1    0    0  502    0  0.00000000000E+00  0.00000000000E+00  0.48945811982E+03  0.48945811982E+03  0.00000000000E+00 0. -1.
          1   -1    0    0  501    0 -0.00000000000E+00 -0.00000000000E+00 -0.63625575241E+03  0.63625575241E+03  0.00000000000E+00 0. -1.
         25    2    1    2    0    0  0.95566854966E+02 -0.76990986534E+02 -0.19201822381E+03  0.25991717506E+03  0.12500121536E+03 0.  0.
          2    1    1    2  501    0 -0.80681340615E+02  0.46215125389E+02 -0.40436291367E+03  0.41491527146E+03  0.00000000000E+00 0. -1.
          1    1    1    2  502    0 -0.14885514351E+02  0.30775861145E+02  0.44958350490E+03  0.45088142570E+03  0.00000000000E+00 0. -1.
         22    1    3    3    0    0  0.12402811769E+03 -0.52058615779E+02 -0.12874977636E+03  0.18619768625E+03  0.00000000000E+00 0. -1.
         22    1    3    3    0    0 -0.28461262720E+02 -0.24932370755E+02 -0.63268447451E+02  0.73719488807E+02  0.00000000000E+00 0. -1.
</event>
<event>
 7    1  0.5854318E-006  0.1673906E+03  0.7818608E-02  0.1226845E+00
          2   -1    0    0  502    0  0.00000000000E+00  0.00000000000E+00  0.10734106865E+04  0.10734106865E+04  0.00000000000E+00 0. -1.
          1   -1    0    0  501    0 -0.00000000000E+00 -0.00000000000E+00 -0.87379480543E+03  0.87379480543E+03  0.00000000000E+00 0. -1.
         25    2    1    2    0    0 -0.18475067700E+03  0.73639218959E+02 -0.73405908690E+02  0.24610835066E+03  0.12500138246E+03 0.  0.
          2    1    1    2  501    0  0.10161782049E+03 -0.13205298831E+03 -0.70164000688E+03  0.72115384795E+03  0.00000000000E+00 0. -1.
          1    1    1    2  502    0  0.83132856507E+02  0.58413769351E+02  0.97466179669E+03  0.97994329336E+03  0.00000000000E+00 0. -1.
         22    1    3    3    0    0 -0.29144527380E+00  0.33687056613E+02 -0.43496602026E+02  0.55016880240E+02  0.00000000000E+00 0. -1.
         22    1    3    3    0    0 -0.18445923172E+03  0.39952162346E+02 -0.29909306664E+02  0.19109147042E+03  0.00000000000E+00 0. -1.
</event>
<event>
 7    1  0.5854318E-006  0.1360826E+03  0.7818608E-02  0.1266635E+00
          2   -1    0    0  502    0  0.00000000000E+00  0.00000000000E+00  0.10485993416E+04  0.10485993416E+04  0.00000000000E+00 0. -1.
          1   -1    0    0  501    0 -0.00000000000E+00 -0.00000000000E+00 -0.61479736232E+03  0.61479736232E+03  0.00000000000E+00 0. -1.
         25    2    1    2    0    0  0.11597899631E+03 -0.10915909460E+03  0.12914864056E+03  0.24014732170E+03  0.12499811697E+03 0.  0.
          2    1    1    2  501    0 -0.35192067602E+02  0.13143145176E+03 -0.54894074008E+03  0.56555162828E+03  0.00000000000E+00 0. -1.
          1    1    1    2  502    0 -0.80786928708E+02 -0.22272357160E+02  0.85359407876E+03  0.85769775390E+03  0.00000000000E+00 0. -1.
         22    1    3    3    0    0  0.83427250071E+02 -0.84345682936E+02  0.15859054815E+02  0.11969047541E+03  0.00000000000E+00 0. -1.
         22    1    3    3    0    0  0.32551746238E+02 -0.24813411663E+02  0.11328958574E+03  0.12045684629E+03  0.00000000000E+00 0. -1.
</event>
<event>
 7    1  0.5854318E-006  0.5562185E+02  0.7818608E-02  0.1490783E+00
          2   -1    0    0  502    0  0.00000000000E+00  0.00000000000E+00  0.17847354858E+03  0.17847354858E+03  0.00000000000E+00 0. -1.
          1   -1    0    0  501    0 -0.00000000000E+00 -0.00000000000E+00 -0.18731213981E+04  0.18731213981E+04  0.00000000000E+00 0. -1.
         25    2    1    2    0    0 -0.32970759461E+02 -0.22202855160E+02  0.92385560113E+02  0.16043697451E+03  0.12499957326E+03 0.  0.
          2    1    1    2  501    0 -0.62144636884E+01 -0.31827131490E+02 -0.18175001537E+04  0.18177894253E+04  0.00000000000E+00 0. -1.
          1    1    1    2  502    0  0.39185223149E+02  0.54029986650E+02  0.30466744127E+02  0.73368546860E+02  0.00000000000E+00 0. -1.
         22    1    3    3    0    0 -0.50103426258E+02  0.41374099946E+02  0.40079233191E+02  0.76344707755E+02  0.00000000000E+00 0. -1.
         22    1    3    3    0    0  0.17132666797E+02 -0.63576955105E+02  0.52306326923E+02  0.84092266756E+02  0.00000000000E+00 0. -1.
</event>
<event>
 7    1  0.5854318E-006  0.7934795E+02  0.7818608E-02  0.1438051E+00
          2   -1    0    0  502    0  0.00000000000E+00  0.00000000000E+00  0.86297227248E+03  0.86297227248E+03  0.00000000000E+00 0. -1.
          1   -1    0    0  501    0 -0.00000000000E+00 -0.00000000000E+00 -0.37347824480E+03  0.37347824480E+03  0.00000000000E+00 0. -1.
         25    2    1    2    0    0  0.39632596310E+02  0.31482573813E+02  0.22591471464E+02  0.13672989383E+03  0.12499117625E+03 0.  0.
          2    1    1    2  501    0 -0.52297130888E+02 -0.62244134039E+02 -0.31082545036E+03  0.32128146961E+03  0.00000000000E+00 0. -1.
          1    1    1    2  502    0  0.12664534578E+02  0.30761560227E+02  0.77772800658E+03  0.77843915385E+03  0.00000000000E+00 0. -1.
         22    1    3    3    0    0  0.20304693721E+02 -0.46753865779E+02 -0.57661288293E+01  0.51297687999E+02  0.00000000000E+00 0.  1.
         22    1    3    3    0    0  0.19327902589E+02  0.78236439592E+02  0.28357600293E+02  0.85432205829E+02  0.00000000000E+00 0.  1.
</event>
<event>
 7    1  0.5854318E-006  0.1633024E+03  0.7818608E-02  0.1234291E+00
          2   -1    0    0  502    0  0.00000000000E+00  0.00000000000E+00  0.51589001966E+03  0.51589001966E+03  0.00000000000E+00 0. -1.
          1   -1    0    0  501    0 -0.00000000000E+00 -0.00000000000E+00 -0.17574019565E+04  0.17574019565E+04  0.00000000000E+00 0. -1.
         25    2    1    2    0    0  0.52483979023E+02  0.47224875806E+02  0.11239533094E+03  0.18232525154E+03  0.12500011994E+03 0.  0.
          2    1    1    2  501    0 -0.10650219087E+03 -0.12712498212E+03 -0.17120506464E+04  0.17200642120E+04  0.00000000000E+00 0. -1.
          1    1    1    2  502    0  0.54018211843E+02  0.79900106314E+02  0.35814337861E+03  0.37090251259E+03  0.00000000000E+00 0. -1.
         22    1    3    3    0    0  0.46915294392E+02 -0.72126586455E+01 -0.97722513901E+01  0.48461987061E+02  0.00000000000E+00 0.  1.
         22    1    3    3    0    0  0.55686846307E+01  0.54437534452E+02  0.12216758233E+03  0.13386326448E+03  0.00000000000E+00 0.  1.
</event>
<event>
 7    1  0.5854318E-006  0.8898505E+02  0.7818608E-02  0.1323612E+00
          2   -1    0    0  502    0  0.00000000000E+00  0.00000000000E+00  0.59385249429E+03  0.59385249429E+03  0.00000000000E+00 0. -1.
          1   -1    0    0  501    0 -0.00000000000E+00 -0.00000000000E+00 -0.23112999299E+04  0.23112999299E+04  0.00000000000E+00 0. -1.
         25    2    1    2    0    0  0.97790809197E+02 -0.31069051136E+02  0.50473625620E+02  0.16941346855E+03  0.12500003256E+03 0.  0.
          2    1    1    2  501    0 -0.40022435333E+02  0.79630131199E+02 -0.22479992896E+04  0.22497652231E+04  0.00000000000E+00 0. -1.
          1    1    1    2  502    0 -0.57768373864E+02 -0.48561080063E+02  0.48007822828E+03  0.48597373261E+03  0.00000000000E+00 0. -1.
         22    1    3    3    0    0  0.95931206524E+02  0.30038991212E+02  0.29156726078E+02  0.10466733996E+03  0.00000000000E+00 0.  1.
         22    1    3    3    0    0  0.18596026732E+01 -0.61108042348E+02  0.21316899542E+02  0.64746128593E+02  0.00000000000E+00 0.  1.
</event>
<event>
 7    1  0.5854318E-006  0.1935820E+03  0.7818608E-02  0.1284146E+00
          2   -1    0    0  502    0  0.00000000000E+00  0.00000000000E+00  0.30888042159E+04  0.30888042159E+04  0.00000000000E+00 0. -1.
          1   -1    0    0  501    0 -0.00000000000E+00 -0.00000000000E+00 -0.15148066903E+04  0.15148066903E+04  0.00000000000E+00 0. -1.
         25    2    1    2    0    0  0.75529081103E+02  0.12597263292E+03  0.76129762696E+03  0.78534875962E+03  0.12499940434E+03 0.  0.
          2    1    1    2  501    0 -0.11526247973E+03 -0.15600374584E+03 -0.14962526201E+04  0.15087725180E+04  0.00000000000E+00 0. -1.
          1    1    1    2  502    0  0.39733398625E+02  0.30031112924E+02  0.23089525187E+04  0.23094896285E+04  0.00000000000E+00 0. -1.
         22    1    3    3    0    0  0.10042193360E+03  0.10744082469E+03  0.71249712252E+03  0.72751649133E+03  0.00000000000E+00 0.  1.
         22    1    3    3    0    0 -0.24892852501E+02  0.18531808228E+02  0.48800504440E+02  0.57832268289E+02  0.00000000000E+00 0.  1.
</event>
<event>
 7    1  0.5854318E-006  0.1335656E+03  0.7818608E-02  0.1257849E+00
          2   -1    0    0  502    0  0.00000000000E+00  0.00000000000E+00  0.14727156837E+04  0.14727156837E+04  0.00000000000E+00 0. -1.
          1   -1    0    0  501    0 -0.00000000000E+00 -0.00000000000E+00 -0.66989542332E+03  0.66989542332E+03  0.00000000000E+00 0. -1.
         25    2    1    2    0    0 -0.71385213390E+02  0.95026179712E+01 -0.88176891695E+02  0.16907551189E+03  0.12500086421E+03 0.  0.
          2    1    1    2  501    0 -0.19568339554E+02  0.90969502333E+02 -0.53403122319E+03  0.54207722476E+03  0.00000000000E+00 0. -1.
          1    1    1    2  502    0  0.90953552944E+02 -0.10047212030E+03  0.14250283752E+04  0.14314583703E+04  0.00000000000E+00 0. -1.
         22    1    3    3    0    0  0.54352046414E+01  0.54795583118E+02 -0.34973132022E+02  0.65232026967E+02  0.00000000000E+00 0. -1.
         22    1    3    3    0    0 -0.76820418032E+02 -0.45292965147E+02 -0.53203759673E+02  0.10384348493E+03  0.00000000000E+00 0. -1.
</event>
<event>
 7    1  0.5854318E-006  0.7510063E+02  0.7818608E-02  0.1394349E+00
          2   -1    0    0  502    0  0.00000000000E+00  0.00000000000E+00  0.89727935745E+02  0.89727935745E+02  0.00000000000E+00 0. -1.
          1   -1    0    0  501    0 -0.00000000000E+00 -0.00000000000E+00 -0.78363439709E+03  0.78363439709E+03  0.00000000000E+00 0. -1.
         25    2    1    2    0    0 -0.69851083255E+02  0.95205516139E+01 -0.44108336165E+03  0.46384200868E+03  0.12500024945E+03 0.  0.
          2    1    1    2  501    0  0.50097403287E+01 -0.49028331603E+02 -0.31036308477E+03  0.31425168128E+03  0.00000000000E+00 0. -1.
          1    1    1    2  502    0  0.64841342926E+02  0.39507779989E+02  0.57539985075E+02  0.95268642871E+02  0.00000000000E+00 0. -1.
         22    1    3    3    0    0 -0.83836584043E+02 -0.93356462645E+01 -0.15225604400E+03  0.17406214422E+03  0.00000000000E+00 0. -1.
         22    1    3    3    0    0  0.13985500788E+02  0.18856197878E+02 -0.28882731765E+03  0.28977986446E+03  0.00000000000E+00 0. -1.
</event>
<event>
 7    1  0.5854318E-006  0.5317437E+02  0.7818608E-02  0.1503971E+00
          2   -1    0    0  502    0  0.00000000000E+00  0.00000000000E+00  0.23018178317E+04  0.23018178317E+04  0.00000000000E+00 0. -1.
          1   -1    0    0  501    0 -0.00000000000E+00 -0.00000000000E+00 -0.10440013199E+02  0.10440013199E+02  0.00000000000E+00 0. -1.
         25    2    1    2    0    0  0.29413228869E+02 -0.37892554096E+02  0.64149795137E+03  0.65532094059E+03  0.12499971953E+03 0.  0.
          2    1    1    2  501    0 -0.51340347362E+01  0.57122230151E+02  0.24150861543E+03  0.24822513736E+03  0.00000000000E+00 0. -1.
          1    1    1    2  502    0 -0.24279194133E+02 -0.19229676054E+02  0.14083712517E+04  0.14087117670E+04  0.00000000000E+00 0. -1.
         22    1    3    3    0    0  0.78068561996E+02 -0.16443667294E+02  0.34620715782E+03  0.35528086170E+03  0.00000000000E+00 0. -1.
         22    1    3    3    0    0 -0.48655333127E+02 -0.21448886802E+02  0.29529079355E+03  0.30004007889E+03  0.00000000000E+00 0. -1.
</event>
<event>
 7    1  0.5854318E-006  0.7137673E+02  0.7818608E-02  0.1444741E+00
          2   -1    0    0  502    0  0.00000000000E+00  0.00000000000E+00  0.74117884068E+03  0.74117884068E+03  0.00000000000E+00 0. -1.
          1   -1    0    0  501    0 -0.00000000000E+00 -0.00000000000E+00 -0.61782668987E+02  0.61782668987E+02  0.00000000000E+00 0. -1.
         25    2    1    2    0    0  0.79009773672E+02 -0.51464365932E+02  0.81499542209E+02  0.17651708928E+03  0.12499992852E+03 0.  0.
          2    1    1    2  501    0 -0.46750102244E+02  0.37426124961E+02  0.51697290712E+02  0.79113189522E+02  0.00000000000E+00 0. -1.
          1    1    1    2  502    0 -0.32259671428E+02  0.14038240971E+02  0.54619933877E+03  0.54733123087E+03  0.00000000000E+00 0. -1.
         22    1    3    3    0    0  0.82879591622E+02 -0.87294578342E+02  0.59253239590E+02  0.13416525823E+03  0.00000000000E+00 0.  1.
         22    1    3    3    0    0 -0.38698179495E+01  0.35830212410E+02  0.22246302619E+02  0.42351831041E+02  0.00000000000E+00 0.  1.
</event>
<event>
 7    1  0.5854318E-006  0.8906086E+02  0.7818608E-02  0.1399092E+00
          2   -1    0    0  502    0  0.00000000000E+00  0.00000000000E+00  0.87205741333E+03  0.87205741333E+03  0.00000000000E+00 0. -1.
          1   -1    0    0  501    0 -0.00000000000E+00 -0.00000000000E+00 -0.25915860432E+02  0.25915860432E+02  0.00000000000E+00 0. -1.
         25    2    1    2    0    0 -0.84311715235E+02  0.37289018098E+02  0.39008223860E+03  0.41986632912E+03  0.12499858105E+03 0.  0.
          2    1    1    2  501    0  0.59186152252E+02 -0.68438305373E+02  0.20782263826E+03  0.22666506399E+03  0.00000000000E+00 0. -1.
          1    1    1    2  502    0  0.25125562983E+02  0.31149287275E+02  0.24823667603E+03  0.25144188064E+03  0.00000000000E+00 0. -1.
         22    1    3    3    0    0 -0.86241677679E+02  0.65850442651E+02  0.19907803471E+03  0.22672885055E+03  0.00000000000E+00 0. -1.
         22    1    3    3    0    0  0.19299624439E+01 -0.28561424554E+02  0.19100420389E+03  0.19313747857E+03  0.00000000000E+00 0. -1.
</event>
<event>
 7    1  0.7725030E-006  0.9452522E+02  0.7818608E-02  0.1332578E+00
          2   -1    0    0  502    0  0.00000000000E+00  0.00000000000E+00  0.10303358279E+04  0.10303358279E+04  0.00000000000E+00 0. -1.
          1   -1    0    0  501    0 -0.00000000000E+00 -0.00000000000E+00 -0.16083569178E+04  0.16083569178E+04  0.00000000000E+00 0. -1.
         25    2    1    2    0    0 -0.11607405122E+03  0.24886330902E+02 -0.30008042650E+03  0.34607198134E+03  0.12500015626E+03 0.  0.
          2    1    1    2  501    0  0.49937136536E+02  0.42603654227E+02 -0.12822233321E+04  0.12839024349E+04  0.00000000000E+00 0. -1.
          1    1    1    2  502    0  0.66136914686E+02 -0.67489985129E+02  0.10042826687E+04  0.10087183295E+04  0.00000000000E+00 0. -1.
         22    1    3    3    0    0 -0.13279255639E+03  0.30028204209E+02 -0.18514631894E+03  0.22981452412E+03  0.00000000000E+00 0. -1.
         22    1    3    3    0    0  0.16718505171E+02 -0.51418733074E+01 -0.11493410757E+03  0.11625745721E+03  0.00000000000E+00 0. -1.
</event>
<event>
 7    1  0.5854318E-006  0.5409567E+02  0.7818608E-02  0.1558196E+00
          2   -1    0    0  502    0  0.00000000000E+00  0.00000000000E+00  0.18658196791E+03  0.18658196791E+03  0.00000000000E+00 0. -1.
          1   -1    0    0  501    0 -0.00000000000E+00 -0.00000000000E+00 -0.50330133780E+03  0.50330133780E+03  0.00000000000E+00 0. -1.
         25    2    1    2    0    0 -0.73385262857E+02 -0.11454351272E+02 -0.61727808715E+02  0.15796293444E+03  0.12500146928E+03 0.  0.
          2    1    1    2  501    0  0.21276976107E+02  0.93434415834E+00 -0.38805089129E+03  0.38863488900E+03  0.00000000000E+00 0. -1.
          1    1    1    2  502    0  0.52108286750E+02  0.10520007114E+02  0.13305933012E+03  0.14328548227E+03  0.00000000000E+00 0. -1.
         22    1    3    3    0    0 -0.59225330029E+02 -0.20129681135E+02 -0.99029921874E+02  0.11713141853E+03  0.00000000000E+00 0.  1.
         22    1    3    3    0    0 -0.14159932828E+02  0.86753298628E+01  0.37302113158E+02  0.40831515916E+02  0.00000000000E+00 0.  1.
</event>
<event>
 7    1  0.5854318E-006  0.7173185E+02  0.7818608E-02  0.1469601E+00
          2   -1    0    0  502    0  0.00000000000E+00  0.00000000000E+00  0.19333119484E+04  0.19333119484E+04  0.00000000000E+00 0. -1.
          1   -1    0    0  501    0 -0.00000000000E+00 -0.00000000000E+00 -0.21509016787E+02  0.21509016787E+02  0.00000000000E+00 0. -1.
         25    2    1    2    0    0 -0.99244291561E+02 -0.40420839925E+01  0.13105004832E+04  0.13201900883E+04  0.12499833959E+03 0.  0.
          2    1    1    2  501    0  0.70120602773E+02  0.18979029088E+01  0.59330595855E+02  0.91872850033E+02  0.00000000000E+00 0. -1.
          1    1    1    2  502    0  0.29123688788E+02  0.21441810837E+01  0.54197185254E+03  0.54275802684E+03  0.00000000000E+00 0. -1.
         22    1    3    3    0    0 -0.10496835500E+03 -0.44602128884E+02  0.10870033215E+04  0.10929702312E+04  0.00000000000E+00 0. -1.
         22    1    3    3    0    0  0.57240634437E+01  0.40560044891E+02  0.22349716173E+03  0.22721985707E+03  0.00000000000E+00 0. -1.
</event>
<event>
 7    1  0.5854318E-006  0.1246928E+03  0.7818608E-02  0.1336962E+00
          2   -1    0    0  502    0  0.00000000000E+00  0.00000000000E+00  0.12080326775E+04  0.12080326775E+04  0.00000000000E+00 0. -1.
          1   -1    0    0  501    0 -0.00000000000E+00 -0.00000000000E+00 -0.13706863177E+03  0.13706863177E+03  0.00000000000E+00 0. -1.
         25    2    1    2    0    0 -0.34116469437E+00 -0.91261974517E+02  0.78286669741E+02  0.17344411501E+03  0.12500077594E+03 0.  0.
          2    1    1    2  501    0  0.12338689691E+01  0.13914486935E+03 -0.34500462131E+02  0.14336352041E+03  0.00000000000E+00 0. -1.
          1    1    1    2  502    0 -0.89270427476E+00 -0.47882894829E+02  0.10271778381E+04  0.10282936739E+04  0.00000000000E+00 0. -1.
         22    1    3    3    0    0  0.28662538072E+02  0.14541089088E+02  0.51185895106E+02  0.60439889299E+02  0.00000000000E+00 0. -1.
         22    1    3    3    0    0 -0.29003702767E+02 -0.10580306360E+03  0.27100774635E+02  0.11300422571E+03  0.00000000000E+00 0. -1.
</event>
<event>
 7    1  0.5854318E-006  0.1111736E+03  0.7818608E-02  0.1390528E+00
          2   -1    0    0  502    0  0.00000000000E+00  0.00000000000E+00  0.16136166001E+04  0.16136166001E+04  0.00000000000E+00 0. -1.
          1   -1    0    0  501    0 -0.00000000000E+00 -0.00000000000E+00 -0.52502843909E+03  0.52502843909E+03  0.00000000000E+00 0. -1.
         25    2    1    2    0    0  0.20276439384E+02 -0.95019554442E+02 -0.34307621130E+03  0.37784340355E+03  0.12499800449E+03 0.  0.
          2    1    1    2  501    0  0.34270307017E+02 -0.19663377791E+01 -0.16081585397E+03  0.16443861869E+03  0.00000000000E+00 0. -1.
          1    1    1    2  502    0 -0.54546746401E+02  0.96985892221E+02  0.15924802263E+04  0.15963630169E+04  0.00000000000E+00 0. -1.
         22    1    3    3    0    0 -0.42662051866E+02 -0.38056602531E+02 -0.62482669633E+02  0.84690257233E+02  0.00000000000E+00 0.  1.
         22    1    3    3    0    0  0.62938491250E+02 -0.56962951911E+02 -0.28059354167E+03  0.29315314632E+03  0.00000000000E+00 0.  1.
</event>
<event>
 7    1  0.5854318E-006  0.2031554E+03  0.7818608E-02  0.1208387E+00
          2   -1    0    0  502    0  0.00000000000E+00  0.00000000000E+00  0.73544950534E+03  0.73544950534E+03  0.00000000000E+00 0. -1.
          1   -1    0    0  501    0 -0.00000000000E+00 -0.00000000000E+00 -0.58416021337E+03  0.58416021337E+03  0.00000000000E+00 0. -1.
         25    2    1    2    0    0 -0.17538064223E+03  0.18058065011E+03  0.72532017203E+01  0.28115052113E+03  0.12500106294E+03 0.  0.
          2    1    1    2  501    0  0.10160069634E+03  0.44411800394E+01 -0.42425329575E+03  0.43627203042E+03  0.00000000000E+00 0. -1.
          1    1    1    2  502    0  0.73779945890E+02 -0.18502183014E+03  0.56828938599E+03  0.60218716715E+03  0.00000000000E+00 0. -1.
         22    1    3    3    0    0 -0.65258764380E+02  0.80034324151E+02  0.64121999499E+02  0.12155587271E+03  0.00000000000E+00 0.  1.
         22    1    3    3    0    0 -0.11012187785E+03  0.10054632595E+03 -0.56868797779E+02  0.15959464842E+03  0.00000000000E+00 0.  1.
</event>
<event>
 7    1  0.5854318E-006  0.9167380E+02  0.7818608E-02  0.1299594E+00
          2   -1    0    0  502    0  0.00000000000E+00  0.00000000000E+00  0.60041776098E+02  0.60041776098E+02  0.00000000000E+00 0. -1.
          1   -1    0    0  501    0 -0.00000000000E+00 -0.00000000000E+00 -0.10429618097E+04  0.10429618097E+04  0.00000000000E+00 0. -1.
         25    2    1    2    0    0 -0.58796528359E+01  0.35793761750E+02 -0.22854535870E+03  0.26300787871E+03  0.12499759830E+03 0.  0.
          2    1    1    2  501    0 -0.75848251571E+02 -0.75916211707E+02 -0.74009804552E+03  0.74783778017E+03  0.00000000000E+00 0. -1.
          1    1    1    2  502    0  0.81727904407E+02  0.40122449957E+02 -0.14276629388E+02  0.92157926930E+02  0.00000000000E+00 0. -1.
         22    1    3    3    0    0 -0.51908957765E+02  0.47027307920E+02 -0.18808080670E+03  0.20070001852E+03  0.00000000000E+00 0.  1.
         22    1    3    3    0    0  0.46029304929E+02 -0.11233546170E+02 -0.40464552002E+02  0.62307860182E+02  0.00000000000E+00 0.  1.
</event>
<event>
 7    1  0.5854318E-006  0.1429967E+03  0.7818608E-02  0.1306136E+00
          2   -1    0    0  502    0  0.00000000000E+00  0.00000000000E+00  0.94491025136E+02  0.94491025136E+02  0.00000000000E+00 0. -1.
          1   -1    0    0  501    0 -0.00000000000E+00 -0.00000000000E+00 -0.19118939056E+04  0.19118939056E+04  0.00000000000E+00 0. -1.
         25    2    1    2    0    0  0.93001575282E+02 -0.13319365553E+03 -0.39105296572E+03  0.44152707290E+03  0.12503555986E+03 0.  0.
          2    1    1    2  501    0 -0.54910492325E+02 -0.24995172953E+01 -0.14228139620E+04  0.14238753387E+04  0.00000000000E+00 0. -1.
          1    1    1    2  502    0 -0.38091082957E+02  0.13569317282E+03 -0.35359528111E+01  0.14098251918E+03  0.00000000000E+00 0. -1.
         22    1    3    3    0    0 -0.28552918619E+02 -0.48583698771E+02 -0.12258758685E+03  0.13491983322E+03  0.00000000000E+00 0.  1.
         22    1    3    3    0    0  0.12155449390E+03 -0.84609956759E+02 -0.26846537888E+03  0.30660723968E+03  0.00000000000E+00 0.  1.
</event>
<event>
 7    1  0.5854318E-006  0.8994934E+02  0.7818608E-02  0.1374772E+00
          2   -1    0    0  502    0  0.00000000000E+00  0.00000000000E+00  0.19365487397E+03  0.19365487397E+03  0.00000000000E+00 0. -1.
          1   -1    0    0  501    0 -0.00000000000E+00 -0.00000000000E+00 -0.14912390295E+04  0.14912390295E+04  0.00000000000E+00 0. -1.
         25    2    1    2    0    0  0.11730243612E+03 -0.10152652285E+02 -0.42156075545E+02  0.17682011573E+03  0.12500112301E+03 0.  0.
          2    1    1    2  501    0 -0.79838869121E+02  0.40510300352E+02 -0.13756406823E+04  0.13785509117E+04  0.00000000000E+00 0. -1.
          1    1    1    2  502    0 -0.37463566996E+02 -0.30357648067E+02  0.12021260232E+03  0.12952287599E+03  0.00000000000E+00 0. -1.
         22    1    3    3    0    0 -0.23867246631E+02 -0.67632142831E+01  0.93486768917E+01  0.26510079004E+02  0.00000000000E+00 0.  1.
         22    1    3    3    0    0  0.14116968275E+03 -0.33894380017E+01 -0.51504752437E+02  0.15031003673E+03  0.00000000000E+00 0.  1.
</event>
<event>
 7    1  0.5854318E-006  0.1121535E+03  0.7818608E-02  0.1261842E+00
          2   -1    0    0  502    0  0.00000000000E+00  0.00000000000E+00  0.58995958964E+02  0.58995958964E+02  0.00000000000E+00 0. -1.
          1   -1    0    0  501    0 -0.00000000000E+00 -0.00000000000E+00 -0.23774384157E+04  0.23774384157E+04  0.00000000000E+00 0. -1.
         25    2    1    2    0    0 -0.61033055608E+02 -0.10960202346E+03 -0.63093479114E+03  0.65531823656E+03  0.12500257223E+03 0.  0.
          2    1    1    2  501    0 -0.53363052393E+02  0.92223605763E+02 -0.16583777732E+04  0.16617971138E+04  0.00000000000E+00 0. -1.
          1    1    1    2  502    0  0.11439610800E+03  0.17378417698E+02 -0.29129892384E+02  0.11931902429E+03  0.00000000000E+00 0. -1.
         22    1    3    3    0    0 -0.32707203498E+02 -0.11256772376E+03 -0.60670369113E+03  0.61792444718E+03  0.00000000000E+00 0.  1.
         22    1    3    3    0    0 -0.28325852110E+02  0.29657002976E+01 -0.24231100014E+02  0.37393789376E+02  0.00000000000E+00 0.  1.
</event>
<event>
 7    1  0.5854318E-006  0.7821804E+02  0.7818608E-02  0.1404170E+00
          2   -1    0    0  502    0  0.00000000000E+00  0.00000000000E+00  0.19154572429E+04  0.19154572429E+04  0.00000000000E+00 0. -1.
          1   -1    0    0  501    0 -0.00000000000E+00 -0.00000000000E+00 -0.25309688365E+02  0.25309688365E+02  0.00000000000E+00 0. -1.
         25    2    1    2    0    0  0.63454272998E+01 -0.81883902053E+02  0.42799369453E+03  0.45337755882E+03  0.12500948135E+03 0.  0.
          2    1    1    2  501    0 -0.42191905811E+02  0.11667632150E+02  0.30003444591E+02  0.53070681579E+02  0.00000000000E+00 0. -1.
          1    1    1    2  502    0  0.35846478511E+02  0.70216269903E+02  0.14321504154E+04  0.14343186908E+04  0.00000000000E+00 0. -1.
         22    1    3    3    0    0 -0.28734091451E+02 -0.10080507269E+03  0.35571962093E+03  0.37084196015E+03  0.00000000000E+00 0. -1.
         22    1    3    3    0    0  0.35079518751E+02  0.18921170642E+02  0.72274073600E+02  0.82535598677E+02  0.00000000000E+00 0. -1.
</event>
<event>
 7    1  0.5854318E-006  0.7985228E+02  0.7818608E-02  0.1443611E+00
          2   -1    0    0  502    0  0.00000000000E+00  0.00000000000E+00  0.72621756888E+03  0.72621756888E+03  0.00000000000E+00 0. -1.
          1   -1    0    0  501    0 -0.00000000000E+00 -0.00000000000E+00 -0.13622660149E+04  0.13622660149E+04  0.00000000000E+00 0. -1.
         25    2    1    2    0    0  0.63925736432E+00  0.50572374569E+02 -0.19385333871E+03  0.23613423791E+03  0.12498915018E+03 0.  0.
          2    1    1    2  501    0  0.53702270977E+01 -0.81710361230E+02 -0.11454532762E+04  0.11483765195E+04  0.00000000000E+00 0. -1.
          1    1    1    2  502    0 -0.60094844621E+01  0.31137986661E+02  0.70325816893E+03  0.70397282639E+03  0.00000000000E+00 0. -1.
         22    1    3    3    0    0  0.62485902388E+02  0.19635850754E+02 -0.10045274982E+03  0.11992001325E+03  0.00000000000E+00 0.  1.
         22    1    3    3    0    0 -0.61846645024E+02  0.30936523815E+02 -0.93400588894E+02  0.11621422466E+03  0.00000000000E+00 0.  1.
</event>
<event>
 7    1  0.5854318E-006  0.3971231E+02  0.7818608E-02  0.1519663E+00
          2   -1    0    0  502    0  0.00000000000E+00  0.00000000000E+00  0.30974492965E+02  0.30974492965E+02  0.00000000000E+00 0. -1.
          1   -1    0    0  501    0 -0.00000000000E+00 -0.00000000000E+00 -0.11568575280E+04  0.11568575280E+04  0.00000000000E+00 0. -1.
         25    2    1    2    0    0  0.14118447743E+02 -0.60438024949E+02 -0.22519699018E+03  0.26493501419E+03  0.12499916772E+03 0.  0.
          2    1    1    2  501    0 -0.27618604640E+02  0.25064563846E+02 -0.87793164091E+03  0.87872349792E+03  0.00000000000E+00 0. -1.
          1    1    1    2  502    0  0.13500156897E+02  0.35373461104E+02 -0.22754403963E+02  0.44173508876E+02  0.00000000000E+00 0. -1.
         22    1    3    3    0    0 -0.24474410221E+02  0.15824988316E+02 -0.14442310846E+03  0.14733452165E+03  0.00000000000E+00 0. -1.
         22    1    3    3    0    0  0.38592857964E+02 -0.76263013266E+02 -0.80773881717E+02  0.11760049254E+03  0.00000000000E+00 0. -1.
</event>
<event>
 7    1  0.5854318E-006  0.4900065E+02  0.7818608E-02  0.1528521E+00
          2   -1    0    0  502    0  0.00000000000E+00  0.00000000000E+00  0.26978035168E+04  0.26978035168E+04  0.00000000000E+00 0. -1.
          1   -1    0    0  501    0 -0.00000000000E+00 -0.00000000000E+00 -0.31927451643E+02  0.31927451643E+02  0.00000000000E+00 0. -1.
         25    2    1    2    0    0 -0.39133386106E+02  0.65880111426E+02  0.75683734596E+03  0.77090820213E+03  0.12500030753E+03 0.  0.
          2    1    1    2  501    0  0.25421325882E+02 -0.40898411828E+02 -0.13960751252E+01  0.48175439026E+02  0.00000000000E+00 0. -1.
          1    1    1    2  502    0  0.13712060224E+02 -0.24981699599E+02  0.19104347943E+04  0.19106473273E+04  0.00000000000E+00 0. -1.
         22    1    3    3    0    0 -0.32569805639E+02 -0.33666510760E+02  0.23721589024E+03  0.24179661860E+03  0.00000000000E+00 0. -1.
         22    1    3    3    0    0 -0.65635804666E+01  0.99546622187E+02  0.51962145572E+03  0.52911158353E+03  0.00000000000E+00 0. -1.
</event>
<event>
 7    1  0.5854318E-006  0.1635528E+03  0.7818608E-02  0.1287619E+00
          2   -1    0    0  502    0  0.00000000000E+00  0.00000000000E+00  0.20837624610E+04  0.20837624610E+04  0.00000000000E+00 0. -1.
          1   -1    0    0  501    0 -0.00000000000E+00 -0.00000000000E+00 -0.21337426217E+03  0.21337426217E+03  0.00000000000E+00 0. -1.
         25    2    1    2    0    0  0.72587509103E+02  0.81879239879E+02 -0.65896893704E+02  0.17872142659E+03  0.12500316525E+03 0.  0.
          2    1    1    2  501    0  0.48015031652E+02  0.30813707406E+02 -0.78410370374E+02  0.96969655103E+02  0.00000000000E+00 0. -1.
          1    1    1    2  502    0 -0.12060254075E+03 -0.11269294728E+03  0.20146954629E+04  0.20214456414E+04  0.00000000000E+00 0. -1.
         22    1    3    3    0    0  0.95845090485E+02  0.30188638770E+02 -0.13241078242E+02  0.10135561866E+03  0.00000000000E+00 0. -1.
         22    1    3    3    0    0 -0.23257581382E+02  0.51690601109E+02 -0.52655815462E+02  0.77365807931E+02  0.00000000000E+00 0. -1.
</event>
<event>
 7    1  0.5854318E-006  0.4211503E+02  0.7818608E-02  0.1534902E+00
          2   -1    0    0  502    0  0.00000000000E+00  0.00000000000E+00  0.50002968177E+03  0.50002968177E+03  0.00000000000E+00 0. -1.
          1   -1    0    0  501    0 -0.00000000000E+00 -0.00000000000E+00 -0.95611290322E+03  0.95611290322E+03  0.00000000000E+00 0. -1.
         25    2    1    2    0    0 -0.79743638764E+01  0.12737698537E+02 -0.32555877960E+03  0.34905895104E+03  0.12501117104E+03 0.  0.
          2    1    1    2  501    0  0.12552405042E+02  0.29210258015E+02 -0.61748263651E+03  0.61830058098E+03  0.00000000000E+00 0. -1.
          1    1    1    2  502    0 -0.45780411651E+01 -0.41947956552E+02  0.48695819466E+03  0.48878305296E+03  0.00000000000E+00 0. -1.
         22    1    3    3    0    0  0.30120142380E+02  0.36386327407E+02 -0.28407114209E+03  0.28797152909E+03  0.00000000000E+00 0.  1.
         22    1    3    3    0    0 -0.38094506256E+02 -0.23648628871E+02 -0.41487637513E+02  0.61087421952E+02  0.00000000000E+00 0.  1.
</event>
<event>
 7    1  0.5854318E-006  0.8542160E+02  0.7818608E-02  0.1412131E+00
          2   -1    0    0  502    0  0.00000000000E+00  0.00000000000E+00  0.17187087942E+03  0.17187087942E+03  0.00000000000E+00 0. -1.
          1   -1    0    0  501    0 -0.00000000000E+00 -0.00000000000E+00 -0.18203294241E+04  0.18203294241E+04  0.00000000000E+00 0. -1.
         25    2    1    2    0    0  0.49433259819E+02 -0.11171526582E+03 -0.13247428201E+03  0.21932068526E+03  0.12501271853E+03 0.  0.
          2    1    1    2  501    0 -0.33951490357E+02  0.77380902881E+02 -0.16405600508E+04  0.16427348502E+04  0.00000000000E+00 0. -1.
          1    1    1    2  502    0 -0.15481769462E+02  0.34334362935E+02  0.12457578813E+03  0.13014476806E+03  0.00000000000E+00 0. -1.
         22    1    3    3    0    0  0.38265729551E+02 -0.32569291927E+02  0.14255504242E+02  0.52232597445E+02  0.00000000000E+00 0. -1.
         22    1    3    3    0    0  0.11167530267E+02 -0.79145973889E+02 -0.14672978625E+03  0.16708808781E+03  0.00000000000E+00 0. -1.
</event>
<event>
 7    1  0.5854318E-006  0.6382723E+02  0.7818608E-02  0.1410049E+00
          2   -1    0    0  502    0  0.00000000000E+00  0.00000000000E+00  0.41538583830E+02  0.41538583830E+02  0.00000000000E+00 0. -1.
          1   -1    0    0  501    0 -0.00000000000E+00 -0.00000000000E+00 -0.98438263171E+03  0.98438263171E+03  0.00000000000E+00 0. -1.
         25    2    1    2    0    0  0.78085016489E+00 -0.21799333637E+02 -0.41079782589E+03  0.42994741237E+03  0.12499641185E+03 0.  0.
          2    1    1    2  501    0 -0.36511989515E+02 -0.35936322653E+02 -0.52524351063E+03  0.52773600420E+03  0.00000000000E+00 0. -1.
          1    1    1    2  502    0  0.35731139351E+02  0.57735656289E+02 -0.68027113552E+01  0.68237798970E+02  0.00000000000E+00 0. -1.
         22    1    3    3    0    0 -0.54960272576E+02 -0.12937081261E+02 -0.10732896661E+03  0.12127450972E+03  0.00000000000E+00 0.  1.
         22    1    3    3    0    0  0.55741122741E+02 -0.88622523762E+01 -0.30346885927E+03  0.30867290265E+03  0.00000000000E+00 0.  1.
</event>
<event>
 7    1  0.5854318E-006  0.1409135E+03  0.7818608E-02  0.1424411E+00
          2   -1    0    0  502    0  0.00000000000E+00  0.00000000000E+00  0.27725859894E+04  0.27725859894E+04  0.00000000000E+00 0. -1.
          1   -1    0    0  501    0 -0.00000000000E+00 -0.00000000000E+00 -0.11734087510E+03  0.11734087510E+03  0.00000000000E+00 0. -1.
         25    2    1    2    0    0 -0.87393447893E+02  0.87045007608E+02  0.72010704432E+01  0.17576947945E+03  0.12501442479E+03 0.  0.
          2    1    1    2  501    0 -0.20282995924E+02  0.44668826982E+01 -0.27735075950E+02  0.34649493541E+02  0.00000000000E+00 0. -1.
          1    1    1    2  502    0  0.10767644382E+03 -0.91511890307E+02  0.26757791198E+04  0.26795078915E+04  0.00000000000E+00 0. -1.
         22    1    3    3    0    0  0.30614003645E+02  0.11213968726E+02 -0.10804888777E+02  0.34346993103E+02  0.00000000000E+00 0. -1.
         22    1    3    3    0    0 -0.11800745154E+03  0.75831038882E+02  0.18005959220E+02  0.14142248634E+03  0.00000000000E+00 0. -1.
</event>
<event>
 7    1  0.5854318E-006  0.1760711E+03  0.7818608E-02  0.1203971E+00
          2   -1    0    0  502    0  0.00000000000E+00  0.00000000000E+00  0.33134781984E+04  0.33134781984E+04  0.00000000000E+00 0. -1.
          1   -1    0    0  501    0 -0.00000000000E+00 -0.00000000000E+00 -0.10916459794E+04  0.10916459794E+04  0.00000000000E+00 0. -1.
         25    2    1    2    0    0  0.64634164636E+02 -0.26977128271E+03  0.17803176376E+02  0.30478862767E+03  0.12500013704E+03 0.  0.
          2    1    1    2  501    0 -0.86015545752E+02  0.14859976896E+03 -0.93916651522E+03  0.95473258495E+03  0.00000000000E+00 0. -1.
          1    1    1    2  502    0  0.21381381115E+02  0.12117151374E+03  0.31431955579E+04  0.31456029652E+04  0.00000000000E+00 0. -1.
         22    1    3    3    0    0  0.81534160320E+02 -0.26489637776E+03 -0.34744941812E+01  0.27718221870E+03  0.00000000000E+00 0. -1.
         22    1    3    3    0    0 -0.16899995684E+02 -0.48749049432E+01  0.21277670557E+02  0.27606408978E+02  0.00000000000E+00 0. -1.
</event>
<event>
 7    1  0.5854318E-006  0.5842359E+02  0.7818608E-02  0.1446299E+00
          2   -1    0    0  502    0  0.00000000000E+00  0.00000000000E+00  0.72307745512E+03  0.72307745512E+03  0.00000000000E+00 0. -1.
          1   -1    0    0  501    0 -0.00000000000E+00 -0.00000000000E+00 -0.89543513047E+02  0.89543513047E+02  0.00000000000E+00 0. -1.
         25    2    1    2    0    0  0.15707945523E+02 -0.71004368632E+02  0.13608202581E+03  0.19857318949E+03  0.12499853567E+03 0.  0.
          2    1    1    2  501    0  0.27810003787E+02  0.32122785252E+02 -0.48790097004E+02  0.64697319950E+02  0.00000000000E+00 0. -1.
          1    1    1    2  502    0 -0.43517949310E+02  0.38881583380E+02  0.54624201327E+03  0.54935045872E+03  0.00000000000E+00 0. -1.
         22    1    3    3    0    0 -0.49247178882E+02 -0.49774460843E+01  0.30577427354E+02  0.58181085078E+02  0.00000000000E+00 0.  1.
         22    1    3    3    0    0  0.64955124405E+02 -0.66026922547E+02  0.10550459845E+03  0.14039210441E+03  0.00000000000E+00 0.  1.
</event>
<event>
 7    1  0.5854318E-006  0.1620411E+03  0.7818608E-02  0.1327451E+00
          2   -1    0    0  502    0  0.00000000000E+00  0.00000000000E+00  0.71217075369E+02  0.71217075369E+02  0.00000000000E+00 0. -1.
          1   -1    0    0  501    0 -0.00000000000E+00 -0.00000000000E+00 -0.12610755796E+04  0.12610755796E+04  0.00000000000E+00 0. -1.
         25    2    1    2    0    0  0.36696724596E+02  0.12546835890E+03 -0.49313938965E+03  0.52526257124E+03  0.12500140979E+03 0.  0.
          2    1    1    2  501    0  0.18215460413E+02  0.35676378375E+02 -0.61829500535E+03  0.61959125285E+03  0.00000000000E+00 0. -1.
          1    1    1    2  502    0 -0.54912185009E+02 -0.16114473727E+03 -0.78424109254E+02  0.18743883089E+03  0.00000000000E+00 0. -1.
         22    1    3    3    0    0 -0.86506699043E+01  0.20609257870E+02 -0.36861726924E+01  0.22653111681E+02  0.00000000000E+00 0. -1.
         22    1    3    3    0    0  0.45347394501E+02  0.10485910103E+03 -0.48945321695E+03  0.50260945956E+03  0.00000000000E+00 0. -1.
</event>
<event>
 7    1  0.5854318E-006  0.2627426E+02  0.7818608E-02  0.1669705E+00
          2   -1    0    0  502    0  0.00000000000E+00  0.00000000000E+00  0.14315672746E+04  0.14315672746E+04  0.00000000000E+00 0. -1.
          1   -1    0    0  501    0 -0.00000000000E+00 -0.00000000000E+00 -0.24598554642E+03  0.24598554642E+03  0.00000000000E+00 0. -1.
         25    2    1    2    0    0  0.26841610065E+02  0.40529465340E+02 -0.10028616691E+03  0.16746835342E+03  0.12500089811E+03 0.  0.
          2    1    1    2  501    0 -0.10138673068E+02 -0.20274093806E+02 -0.11083782335E+03  0.11313202312E+03  0.00000000000E+00 0. -1.
          1    1    1    2  502    0 -0.16702936997E+02 -0.20255371534E+02  0.13967057185E+04  0.13969524445E+04  0.00000000000E+00 0. -1.
         22    1    3    3    0    0 -0.22509210435E+02  0.37318931695E+02 -0.10887426593E+03  0.11727307022E+03  0.00000000000E+00 0. -1.
         22    1    3    3    0    0  0.49350820500E+02  0.32105336453E+01  0.85880990150E+01  0.50195283194E+02  0.00000000000E+00 0. -1.
</event>
<event>
 7    1  0.5854318E-006  0.2055526E+03  0.7818608E-02  0.1277448E+00
          2   -1    0    0  502    0  0.00000000000E+00  0.00000000000E+00  0.41489325273E+03  0.41489325273E+03  0.00000000000E+00 0. -1.
          1   -1    0    0  501    0 -0.00000000000E+00 -0.00000000000E+00 -0.91838418566E+03  0.91838418566E+03  0.00000000000E+00 0. -1.
         25    2    1    2    0    0  0.79716489953E+02  0.18126650199E+03 -0.63940265739E+02  0.24274577407E+03  0.12499955894E+03 0.  0.
          2    1    1    2  501    0 -0.35449752035E+02 -0.20448877002E+03 -0.74892273095E+03  0.77714708963E+03  0.00000000000E+00 0. -1.
          1    1    1    2  502    0 -0.44266737918E+02  0.23222268032E+02  0.30937206375E+03  0.31338457468E+03  0.00000000000E+00 0. -1.
         22    1    3    3    0    0  0.96103271948E+02  0.13329657991E+03 -0.88250791509E+02  0.18652618931E+03  0.00000000000E+00 0. -1.
         22    1    3    3    0    0 -0.16386781995E+02  0.47969922078E+02  0.24310525770E+02  0.56219584768E+02  0.00000000000E+00 0. -1.
</event>
<event>
 7    1  0.5854318E-006  0.1043077E+03  0.7818608E-02  0.1341723E+00
          2   -1    0    0  502    0  0.00000000000E+00  0.00000000000E+00  0.42330000074E+03  0.42330000074E+03  0.00000000000E+00 0. -1.
          1   -1    0    0  501    0 -0.00000000000E+00 -0.00000000000E+00 -0.97846103688E+02  0.97846103688E+02  0.00000000000E+00 0. -1.
         25    2    1    2    0    0  0.59752109776E+02  0.79917772909E+02  0.21522486995E+03  0.26814965621E+03  0.12500131371E+03 0.  0.
          2    1    1    2  501    0 -0.11749260259E+02 -0.10663201866E+03 -0.22266286888E+02  0.10956377162E+03  0.00000000000E+00 0. -1.
          1    1    1    2  502    0 -0.48002849517E+02  0.26714245751E+02  0.13249531399E+03  0.14343267660E+03  0.00000000000E+00 0. -1.
         22    1    3    3    0    0 -0.37164954728E+02  0.51146277851E+01  0.51157127194E+02  0.63438513066E+02  0.00000000000E+00 0. -1.
         22    1    3    3    0    0  0.96917064504E+02  0.74803145123E+02  0.16406774276E+03  0.20471114314E+03  0.00000000000E+00 0. -1.
</event>
<event>
 7    1  0.5854318E-006  0.1394994E+03  0.7818608E-02  0.1416667E+00
          2   -1    0    0  502    0  0.00000000000E+00  0.00000000000E+00  0.40246900184E+04  0.40246900184E+04  0.00000000000E+00 0. -1.
          1   -1    0    0  501    0 -0.00000000000E+00 -0.00000000000E+00 -0.50887384044E+03  0.50887384044E+03  0.00000000000E+00 0. -1.
         25    2    1    2    0    0  0.29444695291E+02  0.11401885393E+03 -0.26023278685E+03  0.31178357571E+03  0.12498242116E+03 0.  0.
          2    1    1    2  501    0  0.83208062252E+00  0.22250417046E+02 -0.22108809155E+03  0.22220647525E+03  0.00000000000E+00 0. -1.
          1    1    1    2  502    0 -0.30276775914E+02 -0.13626927097E+03  0.39971370564E+04  0.39995738079E+04  0.00000000000E+00 0. -1.
         22    1    3    3    0    0 -0.83479669702E+01 -0.90898638180E+01 -0.12289548408E+03  0.12351361943E+03  0.00000000000E+00 0.  1.
         22    1    3    3    0    0  0.37792662261E+02  0.12310871775E+03 -0.13733730276E+03  0.18826995628E+03  0.00000000000E+00 0.  1.
</event>
<event>
 7    1  0.5854318E-006  0.1976563E+03  0.7818608E-02  0.1176259E+00
          2   -1    0    0  502    0  0.00000000000E+00  0.00000000000E+00  0.17874631508E+04  0.17874631508E+04  0.00000000000E+00 0. -1.
          1   -1    0    0  501    0 -0.00000000000E+00 -0.00000000000E+00 -0.33894119298E+03  0.33894119298E+03  0.00000000000E+00 0. -1.
         25    2    1    2    0    0 -0.10318276084E+03 -0.84284938276E+02 -0.19432094274E+01  0.18270420763E+03  0.12500567375E+03 0.  0.
          2    1    1    2  501    0  0.88208269188E+02 -0.11991233141E+03 -0.21730834763E+03  0.26340574012E+03  0.00000000000E+00 0. -1.
          1    1    1    2  502    0  0.14974491654E+02  0.20419726969E+03  0.16677735149E+04  0.16802943960E+04  0.00000000000E+00 0. -1.
         22    1    3    3    0    0 -0.52182601964E+02 -0.10610543619E+03 -0.27853544415E+02  0.12147924709E+03  0.00000000000E+00 0.  1.
         22    1    3    3    0    0 -0.51000158878E+02  0.21820497912E+02  0.25910334988E+02  0.61224960546E+02  0.00000000000E+00 0.  1.
</event>
<event>
 7    1  0.5854318E-006  0.3279158E+03  0.7818608E-02  0.1213956E+00
          2   -1    0    0  502    0  0.00000000000E+00  0.00000000000E+00  0.37826723521E+03  0.37826723521E+03  0.00000000000E+00 0. -1.
          1   -1    0    0  501    0 -0.00000000000E+00 -0.00000000000E+00 -0.20322068292E+04  0.20322068292E+04  0.00000000000E+00 0. -1.
         25    2    1    2    0    0  0.28349121616E+03 -0.23302381223E+03 -0.12421454848E+03  0.40709382877E+03  0.12501505776E+03 0.  0.
          2    1    1    2  501    0 -0.56806203812E+02  0.17276025584E+02 -0.16624105021E+04  0.16634704937E+04  0.00000000000E+00 0. -1.
          1    1    1    2  502    0 -0.22668501234E+03  0.21574778665E+03  0.13268545662E+03  0.33990974193E+03  0.00000000000E+00 0. -1.
         22    1    3    3    0    0  0.50445795351E+02 -0.69864834633E+01  0.16099803425E+02  0.53411542667E+02  0.00000000000E+00 0. -1.
         22    1    3    3    0    0  0.23304542080E+03 -0.22603732877E+03 -0.14031435191E+03  0.35368228611E+03  0.00000000000E+00 0. -1.
</event>
<event>
 7    1  0.5854318E-006  0.4440805E+02  0.7818608E-02  0.1510373E+00
          2   -1    0    0  502    0  0.00000000000E+00  0.00000000000E+00  0.41142413902E+03  0.41142413902E+03  0.00000000000E+00 0. -1.
          1   -1    0    0  501    0 -0.00000000000E+00 -0.00000000000E+00 -0.24608996013E+03  0.24608996013E+03  0.00000000000E+00 0. -1.
         25    2    1    2    0    0 -0.24504890935E+02  0.60174070049E+02 -0.18647281752E+02  0.14211167769E+03  0.12500639757E+03 0.  0.
          2    1    1    2  501    0 -0.10954688952E+02 -0.33772701746E+02 -0.16238746054E+03  0.16622360823E+03  0.00000000000E+00 0. -1.
          1    1    1    2  502    0  0.35459579887E+02 -0.26401368303E+02  0.34636892118E+03  0.34917881324E+03  0.00000000000E+00 0. -1.
         22    1    3    3    0    0 -0.15734067812E+02  0.13636019432E+02 -0.69542009551E+02  0.72591962421E+02  0.00000000000E+00 0. -1.
         22    1    3    3    0    0 -0.87708231230E+01  0.46538050617E+02  0.50894727799E+02  0.69519715270E+02  0.00000000000E+00 0. -1.
</event>
<event>
 7    1  0.5854318E-006  0.6977896E+02  0.7818608E-02  0.1379226E+00
          2   -1    0    0  502    0  0.00000000000E+00  0.00000000000E+00  0.14372327744E+03  0.14372327744E+03  0.00000000000E+00 0. -1.
          1   -1    0    0  501    0 -0.00000000000E+00 -0.00000000000E+00 -0.10272294169E+04  0.10272294169E+04  0.00000000000E+00 0. -1.
         25    2    1    2    0    0  0.89499155872E+02 -0.35225737002E+02 -0.10549246621E+03  0.18974946815E+03  0.12500099514E+03 0.  0.
          2    1    1    2  501    0 -0.54678397269E+02 -0.24535333545E+02 -0.86668055117E+03  0.86875018705E+03  0.00000000000E+00 0. -1.
          1    1    1    2  502    0 -0.34820758603E+02  0.59761070547E+02  0.88666877895E+02  0.11245303917E+03  0.00000000000E+00 0. -1.
         22    1    3    3    0    0  0.78309466916E+02 -0.79561384892E+02 -0.68909580985E+02  0.13119038427E+03  0.00000000000E+00 0. -1.
         22    1    3    3    0    0  0.11189688956E+02  0.44335647889E+02 -0.36582885230E+02  0.58559083876E+02  0.00000000000E+00 0. -1.
</event>
<event>
 7    1  0.5854318E-006  0.1223710E+03  0.7818608E-02  0.1377584E+00
          2   -1    0    0  502    0  0.00000000000E+00  0.00000000000E+00  0.35262489164E+03  0.35262489164E+03  0.00000000000E+00 0. -1.
          1   -1    0    0  501    0 -0.00000000000E+00 -0.00000000000E+00 -0.57177843215E+03  0.57177843215E+03  0.00000000000E+00 0. -1.
         25    2    1    2    0    0 -0.53997640628E+02 -0.73568698267E+02 -0.10368719422E+02  0.15512657821E+03  0.12501458462E+03 0.  0.
          2    1    1    2  501    0  0.73027262320E+02  0.10250842778E+03 -0.47981227187E+03  0.49604513408E+03  0.00000000000E+00 0. -1.
          1    1    1    2  502    0 -0.19029621692E+02 -0.28939729509E+02  0.27102745078E+03  0.27323161150E+03  0.00000000000E+00 0. -1.
         22    1    3    3    0    0 -0.82568009922E+02 -0.58344800613E+02 -0.42356122115E+02  0.10961584330E+03  0.00000000000E+00 0. -1.
         22    1    3    3    0    0  0.28570369294E+02 -0.15223897654E+02  0.31987402693E+02  0.45510734914E+02  0.00000000000E+00 0. -1.
</event>
<event>
 7    1  0.5854318E-006  0.9622060E+02  0.7818608E-02  0.1371434E+00
          2   -1    0    0  502    0  0.00000000000E+00  0.00000000000E+00  0.94142074739E+03  0.94142074739E+03  0.00000000000E+00 0. -1.
          1   -1    0    0  501    0 -0.00000000000E+00 -0.00000000000E+00 -0.61073194174E+02  0.61073194174E+02  0.00000000000E+00 0. -1.
         25    2    1    2    0    0  0.11649456286E+02 -0.74045863127E+02  0.32408605630E+03  0.35534958406E+03  0.12499222105E+03 0.  0.
          2    1    1    2  501    0  0.44283225327E+02 -0.13631587079E+02 -0.27707945080E+02  0.53986613454E+02  0.00000000000E+00 0. -1.
          1    1    1    2  502    0 -0.55932681612E+02  0.87677450206E+02  0.58396944200E+03  0.59315774406E+03  0.00000000000E+00 0. -1.
         22    1    3    3    0    0  0.57988647205E+02 -0.80015904495E+02  0.22865033362E+03  0.24909075302E+03  0.00000000000E+00 0.  1.
         22    1    3    3    0    0 -0.46339190919E+02  0.59700413681E+01  0.95435722682E+02  0.10625883103E+03  0.00000000000E+00 0.  1.
</event>
<event>
 7    1  0.5854318E-006  0.1365885E+03  0.7818608E-02  0.1220469E+00
          2   -1    0    0  502    0  0.00000000000E+00  0.00000000000E+00  0.18197449385E+04  0.18197449385E+04  0.00000000000E+00 0. -1.
          1   -1    0    0  501    0 -0.00000000000E+00 -0.00000000000E+00 -0.17239743995E+03  0.17239743995E+03  0.00000000000E+00 0. -1.
         25    2    1    2    0    0 -0.19558031950E+02 -0.36309868519E+01  0.63363878117E+03  0.64615705181E+03  0.12500051968E+03 0.  0.
          2    1    1    2  501    0  0.51809920208E+02 -0.12909516720E+03 -0.13223692953E+03  0.19192820417E+03  0.00000000000E+00 0. -1.
          1    1    1    2  502    0 -0.32251888258E+02  0.13272615405E+03  0.11459456469E+04  0.11540571225E+04  0.00000000000E+00 0. -1.
         22    1    3    3    0    0 -0.69787434803E+02  0.14202856104E+02  0.30355425236E+03  0.31179671471E+03  0.00000000000E+00 0.  1.
         22    1    3    3    0    0  0.50229402853E+02 -0.17833842956E+02  0.33008452881E+03  0.33436033710E+03  0.00000000000E+00 0.  1.
</event>
<event>
 7    1  0.5854318E-006  0.8958936E+02  0.7818608E-02  0.1376049E+00
          2   -1    0    0  502    0  0.00000000000E+00  0.00000000000E+00  0.94479260719E+02  0.94479260719E+02  0.00000000000E+00 0. -1.
          1   -1    0    0  501    0 -0.00000000000E+00 -0.00000000000E+00 -0.13021484293E+04  0.13021484293E+04  0.00000000000E+00 0. -1.
         25    2    1    2    0    0 -0.17492223884E+02  0.43239310156E+02 -0.88752884422E+02  0.16023961187E+03  0.12499617146E+03 0.  0.
          2    1    1    2  501    0  0.53979167986E+02 -0.74285897491E+02 -0.11657677785E+04  0.11693787490E+04  0.00000000000E+00 0. -1.
          1    1    1    2  502    0 -0.36486944102E+02  0.31046587336E+02  0.46851494346E+02  0.67009329183E+02  0.00000000000E+00 0. -1.
         22    1    3    3    0    0  0.51796740656E+02  0.28805425600E+02 -0.58475865582E+02  0.83259124077E+02  0.00000000000E+00 0.  1.
         22    1    3    3    0    0 -0.69288964540E+02  0.14433884556E+02 -0.30277018840E+02  0.76980487789E+02  0.00000000000E+00 0.  1.
</event>
<event>
 7    1  0.5854318E-006  0.1004201E+03  0.7818608E-02  0.1303282E+00
          2   -1    0    0  502    0  0.00000000000E+00  0.00000000000E+00  0.82381229733E+02  0.82381229733E+02  0.00000000000E+00 0. -1.
          1   -1    0    0  501    0 -0.00000000000E+00 -0.00000000000E+00 -0.56072838993E+03  0.56072838993E+03  0.00000000000E+00 0. -1.
         25    2    1    2    0    0 -0.11199501659E+03 -0.13197676935E+02 -0.27820486726E+03  0.32519243268E+03  0.12504042421E+03 0.  0.
          2    1    1    2  501    0  0.84043445440E+02 -0.62127092374E+02 -0.21232630411E+03  0.23665488743E+03  0.00000000000E+00 0. -1.
          1    1    1    2  502    0  0.27951571146E+02  0.75324769309E+02  0.12184011171E+02  0.81262299556E+02  0.00000000000E+00 0. -1.
         22    1    3    3    0    0 -0.26967600143E+02 -0.63581552558E+02 -0.10247129103E+03  0.12357277519E+03  0.00000000000E+00 0. -1.
         22    1    3    3    0    0 -0.85027416443E+02  0.50383875624E+02 -0.17573357623E+03  0.20161965749E+03  0.00000000000E+00 0. -1.
</event>
<event>
 7    1  0.5854318E-006  0.1465484E+03  0.7818608E-02  0.1324514E+00
          2   -1    0    0  502    0  0.00000000000E+00  0.00000000000E+00  0.16485641642E+04  0.16485641642E+04  0.00000000000E+00 0. -1.
          1   -1    0    0  501    0 -0.00000000000E+00 -0.00000000000E+00 -0.83813644677E+02  0.83813644677E+02  0.00000000000E+00 0. -1.
         25    2    1    2    0    0 -0.97520763889E+02  0.15504343922E+03  0.40385510741E+03  0.46073175362E+03  0.12500413424E+03 0.  0.
          2    1    1    2  501    0  0.65496353160E+02 -0.12277984121E+03  0.33236264423E+02  0.14307099971E+03  0.00000000000E+00 0. -1.
          1    1    1    2  502    0  0.32024410729E+02 -0.32263598002E+02  0.11276591477E+04  0.11285750556E+04  0.00000000000E+00 0. -1.
         22    1    3    3    0    0 -0.22045326607E+02  0.12708571674E+03  0.31741747251E+03  0.34262315695E+03  0.00000000000E+00 0. -1.
         22    1    3    3    0    0 -0.75475437282E+02  0.27957722479E+02  0.86437634894E+02  0.11810859666E+03  0.00000000000E+00 0. -1.
</event>
<event>
 7    1  0.5854318E-006  0.3502021E+02  0.7818608E-02  0.1572989E+00
          2   -1    0    0  502    0  0.00000000000E+00  0.00000000000E+00  0.14223448728E+03  0.14223448728E+03  0.00000000000E+00 0. -1.
          1   -1    0    0  501    0 -0.00000000000E+00 -0.00000000000E+00 -0.10730631181E+04  0.10730631181E+04  0.00000000000E+00 0. -1.
         25    2    1    2    0    0  0.27319193593E+02  0.86015442551E+01 -0.45776177963E+03  0.47538767743E+03  0.12500908790E+03 0.  0.
          2    1    1    2  501    0 -0.11661487236E+02 -0.34161230727E+02 -0.60425946340E+03  0.60533666590E+03  0.00000000000E+00 0. -1.
          1    1    1    2  502    0 -0.15657706357E+02  0.25559686472E+02  0.13119261225E+03  0.13457326202E+03  0.00000000000E+00 0. -1.
         22    1    3    3    0    0 -0.46284642480E+02 -0.10278142713E+02 -0.11669524657E+03  0.12595907636E+03  0.00000000000E+00 0.  1.
         22    1    3    3    0    0  0.73603836073E+02  0.18879686968E+02 -0.34106653306E+03  0.34942860106E+03  0.00000000000E+00 0.  1.
</event>
<event>
 7    1  0.5854318E-006  0.6631622E+02  0.7818608E-02  0.1379749E+00
          2   -1    0    0  502    0  0.00000000000E+00  0.00000000000E+00  0.26077905127E+03  0.26077905127E+03  0.00000000000E+00 0. -1.
          1   -1    0    0  501    0 -0.00000000000E+00 -0.00000000000E+00 -0.85173803661E+03  0.85173803661E+03  0.00000000000E+00 0. -1.
         25    2    1    2    0    0  0.24741769539E+01 -0.92336835559E+02 -0.18568582333E+03  0.24214940502E+03  0.12499958645E+03 0.  0.
          2    1    1    2  501    0 -0.46217098789E+02  0.47288834910E+02 -0.63182476947E+03  0.63527536820E+03  0.00000000000E+00 0. -1.
          1    1    1    2  502    0  0.43742921835E+02  0.45048000649E+02  0.22655160746E+03  0.23509231467E+03  0.00000000000E+00 0. -1.
         22    1    3    3    0    0 -0.34138106476E+02 -0.11443088672E+02  0.35335104077E+00  0.36006658399E+02  0.00000000000E+00 0.  1.
         22    1    3    3    0    0  0.36612283430E+02 -0.80893746886E+02 -0.18603917437E+03  0.20614274662E+03  0.00000000000E+00 0.  1.
</event>
<event>
 7    1  0.5854318E-006  0.8777741E+02  0.7818608E-02  0.1432366E+00
          2   -1    0    0  502    0  0.00000000000E+00  0.00000000000E+00  0.49176554071E+04  0.49176554071E+04  0.00000000000E+00 0. -1.
          1   -1    0    0  501    0 -0.00000000000E+00 -0.00000000000E+00 -0.12752506952E+04  0.12752506952E+04  0.00000000000E+00 0. -1.
         25    2    1    2    0    0 -0.66271220688E+02 -0.54393652267E+02 -0.57773539720E+03  0.59728892959E+03  0.12500132856E+03 0.  0.
          2    1    1    2  501    0 -0.16936315080E+02  0.26424490732E+02 -0.68698768709E+03  0.68770427852E+03  0.00000000000E+00 0. -1.
          1    1    1    2  502    0  0.83207535769E+02  0.27969161535E+02  0.49071277963E+04  0.49079128942E+04  0.00000000000E+00 0. -1.
         22    1    3    3    0    0 -0.75206105746E+01  0.38879595011E+02 -0.19577124395E+03  0.19973623219E+03  0.00000000000E+00 0.  1.
         22    1    3    3    0    0 -0.58750610114E+02 -0.93273247279E+02 -0.38196415324E+03  0.39755269740E+03  0.00000000000E+00 0.  1.
</event>
<event>
 7    1  0.5854318E-006  0.3720167E+02  0.7818608E-02  0.1569891E+00
          2   -1    0    0  502    0  0.00000000000E+00  0.00000000000E+00  0.13446116952E+04  0.13446116952E+04  0.00000000000E+00 0. -1.
          1   -1    0    0  501    0 -0.00000000000E+00 -0.00000000000E+00 -0.11489342238E+04  0.11489342238E+04  0.00000000000E+00 0. -1.
         25    2    1    2    0    0  0.29937523691E+02  0.45825533991E+02 -0.19318482194E+03  0.23652327288E+03  0.12500659301E+03 0.  0.
          2    1    1    2  501    0  0.30256609497E+01 -0.28608194406E+02 -0.93359722287E+03  0.93404034065E+03  0.00000000000E+00 0. -1.
          1    1    1    2  502    0 -0.32963184641E+02 -0.17217339585E+02  0.13224595163E+04  0.13229823054E+04  0.00000000000E+00 0. -1.
         22    1    3    3    0    0  0.38064589831E+02 -0.23700588172E+02 -0.14439786406E+03  0.15119978182E+03  0.00000000000E+00 0. -1.
         22    1    3    3    0    0 -0.81270661393E+01  0.69526122163E+02 -0.48786957876E+02  0.85323491055E+02  0.00000000000E+00 0. -1.
</event>
<event>
 7    1  0.5854318E-006  0.1267514E+03  0.7818608E-02  0.1413283E+00
          2   -1    0    0  502    0  0.00000000000E+00  0.00000000000E+00  0.21126978196E+03  0.21126978196E+03  0.00000000000E+00 0. -1.
          1   -1    0    0  501    0 -0.00000000000E+00 -0.00000000000E+00 -0.10965783660E+04  0.10965783660E+04  0.00000000000E+00 0. -1.
         25    2    1    2    0    0 -0.68752246114E+02  0.10262708175E+03 -0.56351317409E+03  0.59028041583E+03  0.12499873077E+03 0.  0.
          2    1    1    2  501    0  0.50100381858E+02 -0.11950740295E+03 -0.51075695725E+03  0.52693902589E+03  0.00000000000E+00 0. -1.
          1    1    1    2  502    0  0.18651864255E+02  0.16880321194E+02  0.18896154730E+03  0.19062870624E+03  0.00000000000E+00 0. -1.
         22    1    3    3    0    0 -0.10178828889E+03  0.56256874361E+02 -0.42229905838E+03  0.43802076022E+03  0.00000000000E+00 0.  1.
         22    1    3    3    0    0  0.33036042773E+02  0.46370207392E+02 -0.14121411570E+03  0.15225965562E+03  0.00000000000E+00 0.  1.
</event>
<event>
 7    1  0.5854318E-006  0.4302634E+02  0.7818608E-02  0.1558149E+00
          2   -1    0    0  502    0  0.00000000000E+00  0.00000000000E+00  0.19653220377E+03  0.19653220377E+03  0.00000000000E+00 0. -1.
          1   -1    0    0  501    0 -0.00000000000E+00 -0.00000000000E+00 -0.75782358165E+03  0.75782358165E+03  0.00000000000E+00 0. -1.
         25    2    1    2    0    0 -0.43702258513E+02 -0.53381770851E+02 -0.11771295348E+03  0.18504198625E+03  0.12499878560E+03 0.  0.
          2    1    1    2  501    0  0.19445306445E+02  0.18419957122E+02 -0.60336447590E+03  0.60395869523E+03  0.00000000000E+00 0. -1.
          1    1    1    2  502    0  0.24256952068E+02  0.34961813729E+02  0.15978605150E+03  0.16535510394E+03  0.00000000000E+00 0. -1.
         22    1    3    3    0    0  0.20840718508E+02  0.76664215242E+01  0.13939028317E+02  0.26218430109E+02  0.00000000000E+00 0.  1.
         22    1    3    3    0    0 -0.64542977021E+02 -0.61048192375E+02 -0.13165198180E+03  0.15882355614E+03  0.00000000000E+00 0.  1.
</event>
<event>
 7    1  0.5854318E-006  0.1126167E+03  0.7818608E-02  0.1429472E+00
          2   -1    0    0  502    0  0.00000000000E+00  0.00000000000E+00  0.10044499594E+04  0.10044499594E+04  0.00000000000E+00 0. -1.
          1   -1    0    0  501    0 -0.00000000000E+00 -0.00000000000E+00 -0.68359149062E+02  0.68359149062E+02  0.00000000000E+00 0. -1.
         25    2    1    2    0    0  0.55265181298E+02  0.98744929038E+02  0.66252622841E+03  0.68364526739E+03  0.12500018805E+03 0.  0.
          2    1    1    2  501    0 -0.75381030473E+02 -0.83891614386E+02 -0.16699155951E+01  0.11279579486E+03  0.00000000000E+00 0. -1.
          1    1    1    2  502    0  0.20115849175E+02 -0.14853314651E+02  0.27523449757E+03  0.27636804627E+03  0.00000000000E+00 0. -1.
         22    1    3    3    0    0  0.64480007263E+02  0.11944461886E+03  0.45304847563E+03  0.47294567297E+03  0.00000000000E+00 0. -1.
         22    1    3    3    0    0 -0.92148259655E+01 -0.20699689824E+02  0.20947775278E+03  0.21069959442E+03  0.00000000000E+00 0. -1.
</event>
<event>
 7    1  0.5854318E-006  0.5179570E+02  0.7818608E-02  0.1471263E+00
          2   -1    0    0  502    0  0.00000000000E+00  0.00000000000E+00  0.99874785227E+03  0.99874785227E+03  0.00000000000E+00 0. -1.
          1   -1    0    0  501    0 -0.00000000000E+00 -0.00000000000E+00 -0.50895057568E+03  0.50895057568E+03  0.00000000000E+00 0. -1.
         25    2    1    2    0    0  0.41712324454E+02 -0.41990055686E+01  0.18578859607E+03  0.22781806978E+03  0.12500448323E+03 0.  0.
          2    1    1    2  501    0 -0.30013334796E+02  0.42412397264E+02 -0.48604616313E+03  0.48881538887E+03  0.00000000000E+00 0. -1.
          1    1    1    2  502    0 -0.11698989659E+02 -0.38213391695E+02  0.79005484365E+03  0.79106496929E+03  0.00000000000E+00 0. -1.
         22    1    3    3    0    0  0.62451168599E+02 -0.17772171720E+02  0.32633034949E+02  0.72669894158E+02  0.00000000000E+00 0.  1.
         22    1    3    3    0    0 -0.20738844144E+02  0.13573166151E+02  0.15315556112E+03  0.15514817562E+03  0.00000000000E+00 0.  1.
</event>
<event>
 7    1  0.5854318E-006  0.5287350E+02  0.7818608E-02  0.1431604E+00
          2   -1    0    0  502    0  0.00000000000E+00  0.00000000000E+00  0.30437088185E+04  0.30437088185E+04  0.00000000000E+00 0. -1.
          1   -1    0    0  501    0 -0.00000000000E+00 -0.00000000000E+00 -0.11018433433E+02  0.11018433433E+02  0.00000000000E+00 0. -1.
         25    2    1    2    0    0  0.20680664695E+02 -0.18471458165E+01  0.11204638828E+04  0.11276060607E+04  0.12500005486E+03 0.  0.
          2    1    1    2  501    0 -0.16342322352E+02  0.54542364252E+02  0.10773763132E+03  0.12185786064E+03  0.00000000000E+00 0. -1.
          1    1    1    2  502    0 -0.43383423429E+01 -0.52695218436E+02  0.18044888710E+04  0.18052633306E+04  0.00000000000E+00 0. -1.
         22    1    3    3    0    0  0.63915221380E+02 -0.32440473487E+02  0.54118082685E+03  0.54590679350E+03  0.00000000000E+00 0. -1.
         22    1    3    3    0    0 -0.43234556685E+02  0.30593327670E+02  0.57928305591E+03  0.58169926720E+03  0.00000000000E+00 0. -1.
</event>
<event>
 7    1  0.8165490E-006  0.6614808E+02  0.7818608E-02  0.1396416E+00
          2   -1    0    0  502    0  0.00000000000E+00  0.00000000000E+00  0.20985010733E+04  0.20985010733E+04  0.00000000000E+00 0. -1.
          1   -1    0    0  501    0 -0.00000000000E+00 -0.00000000000E+00 -0.69181617627E+03  0.69181617627E+03  0.00000000000E+00 0. -1.
         25    2    1    2    0    0 -0.51093586617E+01  0.51310749788E+02 -0.12043745351E+03  0.18107559037E+03  0.12499716248E+03 0.  0.
          2    1    1    2  501    0 -0.52076697186E+02 -0.17814314833E+02 -0.53912726468E+03  0.54192946010E+03  0.00000000000E+00 0. -1.
          1    1    1    2  502    0  0.57186055848E+02 -0.33496434955E+02  0.20662496153E+04  0.20673121991E+04  0.00000000000E+00 0. -1.
         22    1    3    3    0    0  0.15333108358E+02  0.79978837978E+02 -0.12101094737E+03  0.14586078335E+03  0.00000000000E+00 0. -1.
         22    1    3    3    0    0 -0.20442467019E+02 -0.28668088189E+02  0.57349385571E+00  0.35214807020E+02  0.00000000000E+00 0. -1.
</event>
<event>
 7    1  0.5854318E-006  0.2056596E+03  0.7818608E-02  0.1193480E+00
          2   -1    0    0  502    0  0.00000000000E+00  0.00000000000E+00  0.33083888368E+03  0.33083888368E+03  0.00000000000E+00 0. -1.
          1   -1    0    0  501    0 -0.00000000000E+00 -0.00000000000E+00 -0.15411706551E+04  0.15411706551E+04  0.00000000000E+00 0. -1.
         25    2    1    2    0    0 -0.17506859511E+03 -0.26349396332E+03 -0.12799033093E+03  0.36343474569E+03  0.12500083146E+03 0.  0.
          2    1    1    2  501    0  0.11379800258E+03  0.16255100233E+03 -0.12707892388E+04  0.12861874293E+04  0.00000000000E+00 0. -1.
          1    1    1    2  502    0  0.61270592527E+02  0.10094296098E+03  0.18844779833E+03  0.22238736380E+03  0.00000000000E+00 0. -1.
         22    1    3    3    0    0 -0.27575224366E+02 -0.33336765072E+02 -0.72606704583E+02  0.84519030133E+02  0.00000000000E+00 0.  1.
         22    1    3    3    0    0 -0.14749337074E+03 -0.23015719825E+03 -0.55383626349E+02  0.27891571556E+03  0.00000000000E+00 0.  1.
</event>
<event>
 7    1  0.5854318E-006  0.3862212E+02  0.7818608E-02  0.1607428E+00
          2   -1    0    0  502    0  0.00000000000E+00  0.00000000000E+00  0.71149191468E+03  0.71149191468E+03  0.00000000000E+00 0. -1.
          1   -1    0    0  501    0 -0.00000000000E+00 -0.00000000000E+00 -0.67461837820E+02  0.67461837820E+02  0.00000000000E+00 0. -1.
         25    2    1    2    0    0  0.13751713650E+02  0.10790852298E+02  0.15075841318E+03  0.19661684610E+03  0.12499813161E+03 0.  0.
          2    1    1    2  501    0  0.19826595115E+02  0.96122783104E+01 -0.41040922146E+02  0.46581617176E+02  0.00000000000E+00 0. -1.
          1    1    1    2  502    0 -0.33578308765E+02 -0.20403130609E+02  0.53431258582E+03  0.53575528921E+03  0.00000000000E+00 0. -1.
         22    1    3    3    0    0  0.25643963897E+02  0.43498046582E+02  0.98140471891E+01  0.51439366861E+02  0.00000000000E+00 0. -1.
         22    1    3    3    0    0 -0.11892250247E+02 -0.32707194284E+02  0.14094436600E+03  0.14517747924E+03  0.00000000000E+00 0. -1.
</event>
<event>
 7    1  0.5854318E-006  0.8134704E+02  0.7818608E-02  0.1342918E+00
          2   -1    0    0  502    0  0.00000000000E+00  0.00000000000E+00  0.19391101933E+04  0.19391101933E+04  0.00000000000E+00 0. -1.
          1   -1    0    0  501    0 -0.00000000000E+00 -0.00000000000E+00 -0.73318720165E+02  0.73318720165E+02  0.00000000000E+00 0. -1.
         25    2    1    2    0    0  0.51914240558E+02  0.16944446798E+02  0.78693300265E+03  0.79866801651E+03  0.12499938915E+03 0.  0.
          2    1    1    2  501    0 -0.49278574895E+02  0.64722194039E+02 -0.40882681241E+02  0.91042484426E+02  0.00000000000E+00 0. -1.
          1    1    1    2  502    0 -0.26356656630E+01 -0.81666640837E+02  0.11197411517E+04  0.11227184125E+04  0.00000000000E+00 0. -1.
         22    1    3    3    0    0  0.70967677121E+02 -0.14900476376E+02  0.24604386220E+03  0.25650734399E+03  0.00000000000E+00 0.  1.
         22    1    3    3    0    0 -0.19053436563E+02  0.31844923174E+02  0.54088914045E+03  0.54216067253E+03  0.00000000000E+00 0.  1.
</event>
<event>
 7    1  0.5854318E-006  0.6901088E+02  0.7818608E-02  0.1455509E+00
          2   -1    0    0  502    0  0.00000000000E+00  0.00000000000E+00  0.19597290146E+03  0.19597290146E+03  0.00000000000E+00 0. -1.
          1   -1    0    0  501    0 -0.00000000000E+00 -0.00000000000E+00 -0.30289364347E+03  0.30289364347E+03  0.00000000000E+00 0. -1.
         25    2    1    2    0    0  0.41106057334E+02  0.27277129476E+02 -0.47353211816E+02  0.14248799263E+03  0.12500700633E+03 0.  0.
          2    1    1    2  501    0 -0.38581415216E+01  0.33391056634E+02 -0.19793637334E+03  0.20077015667E+03  0.00000000000E+00 0. -1.
          1    1    1    2  502    0 -0.37247915812E+02 -0.60668186110E+02  0.13836884314E+03  0.15560839563E+03  0.00000000000E+00 0. -1.
         22    1    3    3    0    0  0.67421773427E+02  0.60892525808E+02 -0.39572819399E+02  0.99093911350E+02  0.00000000000E+00 0. -1.
         22    1    3    3    0    0 -0.26315716094E+02 -0.33615396332E+02 -0.77803924175E+01  0.43394081281E+02  0.00000000000E+00 0. -1.
</event>
<event>
 7    1  0.5854318E-006  0.2905281E+02  0.7818608E-02  0.1660370E+00
          2   -1    0    0  502    0  0.00000000000E+00  0.00000000000E+00  0.71023988397E+03  0.71023988397E+03  0.00000000000E+00 0. -1.
          1   -1    0    0  501    0 -0.00000000000E+00 -0.00000000000E+00 -0.10045786200E+04  0.10045786200E+04  0.00000000000E+00 0. -1.
         25    2    1    2    0    0 -0.96324111810E+01  0.19003099755E+02  0.30666706822E+03  0.33184790172E+03  0.12499775197E+03 0.  0.
          2    1    1    2  501    0  0.28024442248E+02 -0.76985340300E+01 -0.99147710645E+03  0.99190296370E+03  0.00000000000E+00 0. -1.
          1    1    1    2  502    0 -0.18392031067E+02 -0.11304565725E+02  0.39047130223E+03  0.39106763850E+03  0.00000000000E+00 0. -1.
         22    1    3    3    0    0 -0.48677279608E+02  0.54128224131E+02  0.15257737502E+03  0.16905383038E+03  0.00000000000E+00 0. -1.
         22    1    3    3    0    0  0.39044868427E+02 -0.35125124376E+02  0.15408969320E+03  0.16279407134E+03  0.00000000000E+00 0. -1.
</event>
<event>
 7    1  0.5854318E-006  0.1037607E+03  0.7818608E-02  0.1416282E+00
          2   -1    0    0  502    0  0.00000000000E+00  0.00000000000E+00  0.13314631844E+03  0.13314631844E+03  0.00000000000E+00 0. -1.
          1   -1    0    0  501    0 -0.00000000000E+00 -0.00000000000E+00 -0.18875346829E+04  0.18875346829E+04  0.00000000000E+00 0. -1.
         25    2    1    2    0    0  0.16367285889E+02  0.82257490491E+02 -0.15961803579E+01  0.15053992665E+03  0.12500215572E+03 0.  0.
          2    1    1    2  501    0  0.42080670865E+01 -0.10412332296E+03 -0.18060228186E+04  0.18090267537E+04  0.00000000000E+00 0. -1.
          1    1    1    2  502    0 -0.20575352975E+02  0.21865832470E+02  0.53230634521E+02  0.61114320999E+02  0.00000000000E+00 0. -1.
         22    1    3    3    0    0  0.63718567927E+02  0.19000205186E+02 -0.19950405429E+02  0.69419610865E+02  0.00000000000E+00 0. -1.
         22    1    3    3    0    0 -0.47351282039E+02  0.63257285305E+02  0.18354225071E+02  0.81120315783E+02  0.00000000000E+00 0. -1.
</event>
<event>
 7    1  0.5854318E-006  0.8778937E+02  0.7818608E-02  0.1353825E+00
          2   -1    0    0  502    0  0.00000000000E+00  0.00000000000E+00  0.17604442152E+04  0.17604442152E+04  0.00000000000E+00 0. -1.
          1   -1    0    0  501    0 -0.00000000000E+00 -0.00000000000E+00 -0.13306404179E+03  0.13306404179E+03  0.00000000000E+00 0. -1.
         25    2    1    2    0    0 -0.11357399392E+02  0.97507242913E+02  0.21294243833E+02  0.16035927831E+03  0.12500000151E+03 0.  0.
          2    1    1    2  501    0 -0.43963347050E+02 -0.77438659450E+02 -0.31538160607E+02  0.94467864567E+02  0.00000000000E+00 0. -1.
          1    1    1    2  502    0  0.55320746443E+02 -0.20068583462E+02  0.16376240901E+04  0.16386811141E+04  0.00000000000E+00 0. -1.
         22    1    3    3    0    0 -0.38121526402E+02  0.11645942171E+03  0.30535502581E+02  0.12628723054E+03  0.00000000000E+00 0.  1.
         22    1    3    3    0    0  0.26764127010E+02 -0.18952178796E+02 -0.92412587480E+01  0.34072047766E+02  0.00000000000E+00 0.  1.
</event>
<event>
 7    1  0.5854318E-006  0.1164875E+03  0.7818608E-02  0.1308826E+00
          2   -1    0    0  502    0  0.00000000000E+00  0.00000000000E+00  0.13588112747E+04  0.13588112747E+04  0.00000000000E+00 0. -1.
          1   -1    0    0  501    0 -0.00000000000E+00 -0.00000000000E+00 -0.67796395524E+03  0.67796395524E+03  0.00000000000E+00 0. -1.
         25    2    1    2    0    0  0.10885660432E+03  0.13033976732E+03 -0.98281555244E+02  0.23263914583E+03  0.12499397113E+03 0.  0.
          2    1    1    2  501    0 -0.50431165444E+02 -0.99979282312E+02 -0.50553379575E+03  0.51778719373E+03  0.00000000000E+00 0. -1.
          1    1    1    2  502    0 -0.58425438877E+02 -0.30360485012E+02  0.12846626705E+04  0.12863488904E+04  0.00000000000E+00 0. -1.
         22    1    3    3    0    0  0.25373499788E+02  0.60587816440E+02  0.23110838899E+02  0.69633389025E+02  0.00000000000E+00 0. -1.
         22    1    3    3    0    0  0.83483104533E+02  0.69751950884E+02 -0.12139239414E+03  0.16300575680E+03  0.00000000000E+00 0. -1.
</event>
<event>
 7    1  0.5854318E-006  0.2635689E+03  0.7818608E-02  0.1153463E+00
          2   -1    0    0  502    0  0.00000000000E+00  0.00000000000E+00  0.12075749969E+04  0.12075749969E+04  0.00000000000E+00 0. -1.
          1   -1    0    0  501    0 -0.00000000000E+00 -0.00000000000E+00 -0.26296970642E+03  0.26296970642E+03  0.00000000000E+00 0. -1.
         25    2    1    2    0    0  0.37250899734E+03 -0.73979966143E+02  0.78198259007E+02  0.40740058530E+03  0.12499712276E+03 0.  0.
          2    1    1    2  501    0 -0.14237610595E+03 -0.28652641986E+02 -0.15396362693E+02  0.14604443647E+03  0.00000000000E+00 0. -1.
          1    1    1    2  502    0 -0.23013289139E+03  0.10263260813E+03  0.88180339419E+03  0.91709968158E+03  0.00000000000E+00 0. -1.
         22    1    3    3    0    0  0.97622947142E+02 -0.54084102538E+02 -0.22733311295E+02  0.11389527382E+03  0.00000000000E+00 0. -1.
         22    1    3    3    0    0  0.27488605020E+03 -0.19895863605E+02  0.10093157030E+03  0.29350531148E+03  0.00000000000E+00 0. -1.
</event>
<event>
 7    1  0.5854318E-006  0.6077592E+02  0.7818608E-02  0.1505140E+00
          2   -1    0    0  502    0  0.00000000000E+00  0.00000000000E+00  0.17936019421E+04  0.17936019421E+04  0.00000000000E+00 0. -1.
          1   -1    0    0  501    0 -0.00000000000E+00 -0.00000000000E+00 -0.34571945201E+03  0.34571945201E+03  0.00000000000E+00 0. -1.
         25    2    1    2    0    0 -0.28718863515E+02  0.75276527818E+02  0.28273689343E+03  0.31946849656E+03  0.12501456165E+03 0.  0.
          2    1    1    2  501    0  0.64106516967E+01 -0.60276113575E+02 -0.32442526434E+03  0.33003948016E+03  0.00000000000E+00 0. -1.
          1    1    1    2  502    0  0.22308211818E+02 -0.15000414243E+02  0.14895708610E+04  0.14898134174E+04  0.00000000000E+00 0. -1.
         22    1    3    3    0    0  0.32585493752E+02  0.61807080725E+02  0.75208628136E+02  0.10265606352E+03  0.00000000000E+00 0.  1.
         22    1    3    3    0    0 -0.61304357267E+02  0.13469447093E+02  0.20752826529E+03  0.21681243304E+03  0.00000000000E+00 0.  1.
</event>
<event>
 7    1  0.9606313E-006  0.6229816E+02  0.7818608E-02  0.1447580E+00
          2   -1    0    0  502    0  0.00000000000E+00  0.00000000000E+00  0.10152660689E+04  0.10152660689E+04  0.00000000000E+00 0. -1.
          1   -1    0    0  501    0 -0.00000000000E+00 -0.00000000000E+00 -0.11039663482E+04  0.11039663482E+04  0.00000000000E+00 0. -1.
         25    2    1    2    0    0 -0.56791070534E+02 -0.18815514378E+02 -0.19849089754E+03  0.24208032959E+03  0.12500000117E+03 0.  0.
          2    1    1    2  501    0  0.21871740911E+02 -0.32855912461E+02 -0.88226036000E+03  0.88314281227E+03  0.00000000000E+00 0. -1.
          1    1    1    2  502    0  0.34919329623E+02  0.51671426838E+02  0.99205097818E+03  0.99400927523E+03  0.00000000000E+00 0. -1.
         22    1    3    3    0    0 -0.39456914274E+02  0.47379169692E+02 -0.53016748285E+02  0.81316722779E+02  0.00000000000E+00 0. -1.
         22    1    3    3    0    0 -0.17334156259E+02 -0.66194684070E+02 -0.14547414925E+03  0.16076360681E+03  0.00000000000E+00 0. -1.
</event>
<event>
 7    1  0.5854318E-006  0.3216759E+02  0.7818608E-02  0.1633339E+00
          2   -1    0    0  502    0  0.00000000000E+00  0.00000000000E+00  0.12107412368E+04  0.12107412368E+04  0.00000000000E+00 0. -1.
          1   -1    0    0  501    0 -0.00000000000E+00 -0.00000000000E+00 -0.48870904133E+02  0.48870904133E+02  0.00000000000E+00 0. -1.
         25    2    1    2    0    0  0.24214627303E+02  0.45654474699E+02  0.31693789312E+03  0.34459424518E+03  0.12499954590E+03 0.  0.
          2    1    1    2  501    0 -0.23024710966E+01 -0.22610229376E+02 -0.31038688803E+02  0.38469780974E+02  0.00000000000E+00 0. -1.
          1    1    1    2  502    0 -0.21912156207E+02 -0.23044245323E+02  0.87597112832E+03  0.87654811476E+03  0.00000000000E+00 0. -1.
         22    1    3    3    0    0 -0.30391104298E+02 -0.25173466031E+02  0.15121386864E+03  0.15627845879E+03  0.00000000000E+00 0. -1.
         22    1    3    3    0    0  0.54605731601E+02  0.70827940730E+02  0.16572402448E+03  0.18831578639E+03  0.00000000000E+00 0. -1.
</event>
<event>
 7    1  0.1087892E-005  0.9366515E+02  0.7818608E-02  0.1319953E+00
          2   -1    0    0  502    0  0.00000000000E+00  0.00000000000E+00  0.66151037071E+03  0.66151037071E+03  0.00000000000E+00 0. -1.
          1   -1    0    0  501    0 -0.00000000000E+00 -0.00000000000E+00 -0.19294483179E+04  0.19294483179E+04  0.00000000000E+00 0. -1.
         25    2    1    2    0    0  0.54219495222E+02  0.63936311876E+02 -0.97731265615E+03  0.98883438850E+03  0.12500325744E+03 0.  0.
          2    1    1    2  501    0  0.39567985322E+02 -0.62619033424E+02 -0.94155864359E+03  0.94446781212E+03  0.00000000000E+00 0. -1.
          1    1    1    2  502    0 -0.93787480544E+02 -0.13172784521E+01  0.65093335255E+03  0.65765648799E+03  0.00000000000E+00 0. -1.
         22    1    3    3    0    0  0.80840232018E+02 -0.29313207403E+00 -0.54677639212E+03  0.55272022943E+03  0.00000000000E+00 0. -1.
         22    1    3    3    0    0 -0.26620736795E+02  0.64229443950E+02 -0.43053626403E+03  0.43611415908E+03  0.00000000000E+00 0. -1.
</event>
<event>
 7    1  0.5854318E-006  0.7019820E+02  0.7818608E-02  0.1419255E+00
          2   -1    0    0  502    0  0.00000000000E+00  0.00000000000E+00  0.54203638014E+03  0.54203638014E+03  0.00000000000E+00 0. -1.
          1   -1    0    0  501    0 -0.00000000000E+00 -0.00000000000E+00 -0.97720691133E+03  0.97720691133E+03  0.00000000000E+00 0. -1.
         25    2    1    2    0    0  0.61222964864E+02  0.11052422333E+01  0.74240173428E+02  0.15775686022E+03  0.12500460235E+03 0.  0.
          2    1    1    2  501    0 -0.47866895552E+01  0.43107893006E+02 -0.93192453216E+03  0.93293329690E+03  0.00000000000E+00 0. -1.
          1    1    1    2  502    0 -0.56436275309E+02 -0.44213135239E+02  0.42251382754E+03  0.42855313435E+03  0.00000000000E+00 0. -1.
         22    1    3    3    0    0 -0.86862991395E+01 -0.49991766856E+02  0.40116622207E+02  0.64683629486E+02  0.00000000000E+00 0. -1.
         22    1    3    3    0    0  0.69909264003E+02  0.51097009090E+02  0.34123551221E+02  0.93073230734E+02  0.00000000000E+00 0. -1.
</event>
<event>
 7    1  0.5854318E-006  0.1034640E+03  0.7818608E-02  0.1436550E+00
          2   -1    0    0  502    0  0.00000000000E+00  0.00000000000E+00  0.39866100943E+02  0.39866100943E+02  0.00000000000E+00 0. -1.
          1   -1    0    0  501    0 -0.00000000000E+00 -0.00000000000E+00 -0.11085814659E+04  0.11085814659E+04  0.00000000000E+00 0. -1.
         25    2    1    2    0    0 -0.57967085821E+02 -0.58481730075E+02 -0.52926167385E+03  0.55002046565E+03  0.12499718975E+03 0.  0.
          2    1    1    2  501    0 -0.12347222966E+02 -0.22655355687E+02 -0.46966513653E+03  0.47037331932E+03  0.00000000000E+00 0. -1.
          1    1    1    2  502    0  0.70314308786E+02  0.81137085762E+02 -0.69788554626E+02  0.12805378192E+03  0.00000000000E+00 0. -1.
         22    1    3    3    0    0 -0.79417250308E+02 -0.65872427739E+02 -0.50977676343E+03  0.52011404992E+03  0.00000000000E+00 0.  1.
         22    1    3    3    0    0  0.21450164487E+02  0.73906976636E+01 -0.19484910410E+02  0.29906415736E+02  0.00000000000E+00 0.  1.
</event>
<event>
 7    1  0.5854318E-006  0.7222872E+02  0.7818608E-02  0.1380967E+00
          2   -1    0    0  502    0  0.00000000000E+00  0.00000000000E+00  0.53137270435E+03  0.53137270435E+03  0.00000000000E+00 0. -1.
          1   -1    0    0  501    0 -0.00000000000E+00 -0.00000000000E+00 -0.61943725791E+02  0.61943725791E+02  0.00000000000E+00 0. -1.
         25    2    1    2    0    0 -0.42681345026E+02 -0.63761443858E+02  0.59547404205E+02  0.15829013949E+03  0.12499062356E+03 0.  0.
          2    1    1    2  501    0 -0.29386402490E+02  0.48936452175E+02  0.88365362862E+02  0.10519873743E+03  0.00000000000E+00 0. -1.
          1    1    1    2  502    0  0.72067747517E+02  0.14824991683E+02  0.32151621149E+03  0.32982755322E+03  0.00000000000E+00 0. -1.
         22    1    3    3    0    0 -0.51751707939E+01  0.31003060191E+02  0.45658058282E+02  0.55431312631E+02  0.00000000000E+00 0. -1.
         22    1    3    3    0    0 -0.37506174232E+02 -0.94764504049E+02  0.13889345924E+02  0.10285882686E+03  0.00000000000E+00 0. -1.
</event>
<event>
 7    1  0.5854318E-006  0.6418991E+02  0.7818608E-02  0.1413302E+00
          2   -1    0    0  502    0  0.00000000000E+00  0.00000000000E+00  0.63746679522E+02  0.63746679522E+02  0.00000000000E+00 0. -1.
          1   -1    0    0  501    0 -0.00000000000E+00 -0.00000000000E+00 -0.36153217249E+03  0.36153217249E+03  0.00000000000E+00 0. -1.
         25    2    1    2    0    0 -0.43366615230E+02  0.61841167692E+02 -0.16806062266E+03  0.22265100005E+03  0.12499640633E+03 0.  0.
          2    1    1    2  501    0  0.62893018462E+02 -0.16173577065E+02 -0.13777528871E+03  0.15231266049E+03  0.00000000000E+00 0. -1.
          1    1    1    2  502    0 -0.19526403232E+02 -0.45667590628E+02  0.80504183977E+01  0.50315191476E+02  0.00000000000E+00 0. -1.
         22    1    3    3    0    0 -0.10248469103E+02 -0.88535379653E+01 -0.13852117622E+03  0.13918165294E+03  0.00000000000E+00 0.  1.
         22    1    3    3    0    0 -0.33118146127E+02  0.70694705658E+02 -0.29539446437E+02  0.83469347109E+02  0.00000000000E+00 0.  1.
</event>
<event>
 7    1  0.5854318E-006  0.4219642E+02  0.7818608E-02  0.1510167E+00
          2   -1    0    0  502    0  0.00000000000E+00  0.00000000000E+00  0.18464973594E+04  0.18464973594E+04  0.00000000000E+00 0. -1.
          1   -1    0    0  501    0 -0.00000000000E+00 -0.00000000000E+00 -0.49211845671E+03  0.49211845671E+03  0.00000000000E+00 0. -1.
         25    2    1    2    0    0 -0.40340610416E+02  0.67605162773E+02  0.45030612211E+03  0.47391815875E+03  0.12499997881E+03 0.  0.
          2    1    1    2  501    0  0.26261247241E+02 -0.32936990410E+02 -0.47913532619E+03  0.48098353324E+03  0.00000000000E+00 0. -1.
          1    1    1    2  502    0  0.14079363175E+02 -0.34668172363E+02  0.13832081067E+04  0.13837141241E+04  0.00000000000E+00 0. -1.
         22    1    3    3    0    0 -0.45351703234E+02  0.10471014255E+01  0.35310212828E+03  0.35600419436E+03  0.00000000000E+00 0.  1.
         22    1    3    3    0    0  0.50110928180E+01  0.66558061348E+02  0.97203993829E+02  0.11791396439E+03  0.00000000000E+00 0.  1.
</event>
<event>
 7    1  0.5854318E-006  0.1607608E+03  0.7818608E-02  0.1278997E+00
          2   -1    0    0  502    0  0.00000000000E+00  0.00000000000E+00  0.13529586249E+03  0.13529586249E+03  0.00000000000E+00 0. -1.
          1   -1    0    0  501    0 -0.00000000000E+00 -0.00000000000E+00 -0.15206912742E+04  0.15206912742E+04  0.00000000000E+00 0. -1.
         25    2    1    2    0    0 -0.17537558670E+01  0.20670312646E+03 -0.45787726032E+03  0.51769280033E+03  0.12499996739E+03 0.  0.
          2    1    1    2  501    0 -0.26200624616E+02 -0.15026925732E+03 -0.10172747491E+04  0.10286472853E+04  0.00000000000E+00 0. -1.
          1    1    1    2  502    0  0.27954380483E+02 -0.56433869136E+02  0.89756597697E+02  0.10964705105E+03  0.00000000000E+00 0. -1.
         22    1    3    3    0    0 -0.29495527446E+02  0.17654422039E+03 -0.26024133749E+03  0.31585344961E+03  0.00000000000E+00 0. -1.
         22    1    3    3    0    0  0.27741771579E+02  0.30158906066E+02 -0.19763592283E+03  0.20183935072E+03  0.00000000000E+00 0. -1.
</event>
<event>
 7    1  0.5854318E-006  0.1311942E+03  0.7818608E-02  0.1245220E+00
          2   -1    0    0  502    0  0.00000000000E+00  0.00000000000E+00  0.56495293376E+03  0.56495293376E+03  0.00000000000E+00 0. -1.
          1   -1    0    0  501    0 -0.00000000000E+00 -0.00000000000E+00 -0.28734367500E+03  0.28734367500E+03  0.00000000000E+00 0. -1.
         25    2    1    2    0    0 -0.11102576725E+02  0.82656996799E+02  0.13330753003E+03  0.20087937974E+03  0.12500472516E+03 0.  0.
          2    1    1    2  501    0 -0.10220656035E+03  0.33110792205E+02 -0.22434828863E+03  0.24874617615E+03  0.00000000000E+00 0. -1.
          1    1    1    2  502    0  0.11330913707E+03 -0.11576778900E+03  0.36865001737E+03  0.40267105287E+03  0.00000000000E+00 0. -1.
         22    1    3    3    0    0  0.53867281720E+01  0.11067839186E+03  0.74007356610E+02  0.13325093658E+03  0.00000000000E+00 0.  1.
         22    1    3    3    0    0 -0.16489304897E+02 -0.28021395066E+02  0.59300173417E+02  0.67628443164E+02  0.00000000000E+00 0.  1.
</event>
<event>
 7    1  0.5854318E-006  0.7528413E+02  0.7818608E-02  0.1440102E+00
          2   -1    0    0  502    0  0.00000000000E+00  0.00000000000E+00  0.58545821025E+03  0.58545821025E+03  0.00000000000E+00 0. -1.
          1   -1    0    0  501    0 -0.00000000000E+00 -0.00000000000E+00 -0.17984965173E+03  0.17984965173E+03  0.00000000000E+00 0. -1.
         25    2    1    2    0    0 -0.60707034954E+02 -0.15926550740E+02  0.85221922583E+02  0.16379032329E+03  0.12500197920E+03 0.  0.
          2    1    1    2  501    0  0.58068381116E+02  0.50353873260E+02 -0.12934742023E+03  0.15045997660E+03  0.00000000000E+00 0. -1.
          1    1    1    2  502    0  0.26386538381E+01 -0.34427322520E+02  0.44973405617E+03  0.45105756208E+03  0.00000000000E+00 0. -1.
         22    1    3    3    0    0 -0.36944892008E+02  0.28917797618E+02 -0.16807011901E+02  0.49836128598E+02  0.00000000000E+00 0.  1.
         22    1    3    3    0    0 -0.23762142946E+02 -0.44844348358E+02  0.10202893448E+03  0.11395419470E+03  0.00000000000E+00 0.  1.
</event>
<event>
 7    1  0.5854318E-006  0.2142775E+03  0.7818608E-02  0.1230218E+00
          2   -1    0    0  502    0  0.00000000000E+00  0.00000000000E+00  0.21379345307E+04  0.21379345307E+04  0.00000000000E+00 0. -1.
          1   -1    0    0  501    0 -0.00000000000E+00 -0.00000000000E+00 -0.83836973457E+03  0.83836973457E+03  0.00000000000E+00 0. -1.
         25    2    1    2    0    0  0.13397232281E+03 -0.23322257796E+03  0.17555810115E+03  0.34465487625E+03  0.12499993076E+03 0.  0.
          2    1    1    2  501    0 -0.64197404779E+02  0.20150008168E+03 -0.73818515995E+03  0.76788079809E+03  0.00000000000E+00 0. -1.
          1    1    1    2  502    0 -0.69774918033E+02  0.31722496281E+02  0.18621918549E+04  0.18637685909E+04  0.00000000000E+00 0. -1.
         22    1    3    3    0    0  0.11515123316E+03 -0.82351590505E+02  0.10907282551E+03  0.17871338008E+03  0.00000000000E+00 0.  1.
         22    1    3    3    0    0  0.18821089655E+02 -0.15087098746E+03  0.66485275644E+02  0.16594149617E+03  0.00000000000E+00 0.  1.
</event>
<event>
 7    1  0.5854318E-006  0.6620386E+02  0.7818608E-02  0.1392857E+00
          2   -1    0    0  502    0  0.00000000000E+00  0.00000000000E+00  0.30802078473E+03  0.30802078473E+03  0.00000000000E+00 0. -1.
          1   -1    0    0  501    0 -0.00000000000E+00 -0.00000000000E+00 -0.77087255606E+03  0.77087255606E+03  0.00000000000E+00 0. -1.
         25    2    1    2    0    0 -0.17590203412E+02  0.11289793892E+02  0.92637942123E+01  0.12706706861E+03  0.12499338918E+03 0.  0.
          2    1    1    2  501    0  0.77444945634E+01 -0.67003960150E+02 -0.70700697231E+03  0.71021712650E+03  0.00000000000E+00 0. -1.
          1    1    1    2  502    0  0.98457088490E+01  0.55714166259E+02  0.23489140677E+03  0.24160914568E+03  0.00000000000E+00 0. -1.
         22    1    3    3    0    0  0.12977697103E+01  0.10041544103E+02 -0.57133752278E+02  0.58023981797E+02  0.00000000000E+00 0.  1.
         22    1    3    3    0    0 -0.18887973123E+02  0.12482497884E+01  0.66397546490E+02  0.69043086809E+02  0.00000000000E+00 0.  1.
</event>
<event>
 7    1  0.5854318E-006  0.1371251E+03  0.7818608E-02  0.1293415E+00
          2   -1    0    0  502    0  0.00000000000E+00  0.00000000000E+00  0.13787383825E+03  0.13787383825E+03  0.00000000000E+00 0. -1.
          1   -1    0    0  501    0 -0.00000000000E+00 -0.00000000000E+00 -0.89206731498E+03  0.89206731498E+03  0.00000000000E+00 0. -1.
         25    2    1    2    0    0 -0.12760455373E+03  0.14316702819E+01 -0.59598800717E+02  0.18831462889E+03  0.12500164238E+03 0.  0.
          2    1    1    2  501    0 -0.65629619019E+01 -0.64120149482E+02 -0.69047700811E+03  0.69347888560E+03  0.00000000000E+00 0. -1.
          1    1    1    2  502    0  0.13416751563E+03  0.62688479200E+02 -0.41176678953E+01  0.14814763874E+03  0.00000000000E+00 0. -1.
         22    1    3    3    0    0 -0.35182965682E+02 -0.22676816301E+02  0.34493265098E+02  0.54238956561E+02  0.00000000000E+00 0.  1.
         22    1    3    3    0    0 -0.92421588048E+02  0.24108486583E+02 -0.94092065814E+02  0.13407567233E+03  0.00000000000E+00 0.  1.
</event>
<event>
 7    1  0.5854318E-006  0.4298158E+02  0.7818608E-02  0.1593757E+00
          2   -1    0    0  502    0  0.00000000000E+00  0.00000000000E+00  0.10636765493E+03  0.10636765493E+03  0.00000000000E+00 0. -1.
          1   -1    0    0  501    0 -0.00000000000E+00 -0.00000000000E+00 -0.14972643849E+04  0.14972643849E+04  0.00000000000E+00 0. -1.
         25    2    1    2    0    0  0.33684030202E+02  0.53163071231E+02 -0.33479882023E+03  0.36286989224E+03  0.12499353038E+03 0.  0.
          2    1    1    2  501    0 -0.16097227678E+02 -0.14244905870E+02 -0.11433851303E+04  0.11435871607E+04  0.00000000000E+00 0. -1.
          1    1    1    2  502    0 -0.17586802524E+02 -0.38918165361E+02  0.87287220482E+02  0.97174986892E+02  0.00000000000E+00 0. -1.
         22    1    3    3    0    0 -0.34698813696E+02  0.29989172698E+02 -0.45150002879E+02  0.64357446430E+02  0.00000000000E+00 0.  1.
         22    1    3    3    0    0  0.68382843898E+02  0.23173898534E+02 -0.28964881735E+03  0.29851244581E+03  0.00000000000E+00 0.  1.
</event>
<event>
 7    1  0.5854318E-006  0.6164628E+02  0.7818608E-02  0.1427448E+00
          2   -1    0    0  502    0  0.00000000000E+00  0.00000000000E+00  0.11235627058E+04  0.11235627058E+04  0.00000000000E+00 0. -1.
          1   -1    0    0  501    0 -0.00000000000E+00 -0.00000000000E+00 -0.18139396408E+03  0.18139396408E+03  0.00000000000E+00 0. -1.
         25    2    1    2    0    0  0.28964104359E+02 -0.46297101805E+01  0.20434907673E+01  0.12841154297E+03  0.12499997982E+03 0.  0.
          2    1    1    2  501    0  0.75589727228E+01 -0.45768153251E+02 -0.11270427371E+03  0.12187745991E+03  0.00000000000E+00 0. -1.
          1    1    1    2  502    0 -0.36523077082E+02  0.50397863431E+02  0.10528295247E+04  0.10546676670E+04  0.00000000000E+00 0. -1.
         22    1    3    3    0    0 -0.23185816962E+02  0.32218851227E+02 -0.36416992862E+02  0.53868672266E+02  0.00000000000E+00 0. -1.
         22    1    3    3    0    0  0.52149921320E+02 -0.36848561407E+02  0.38460483629E+02  0.74542870702E+02  0.00000000000E+00 0. -1.
</event>
<event>
 7    1  0.5854318E-006  0.3763969E+03  0.7818608E-02  0.1208074E+00
          2   -1    0    0  502    0  0.00000000000E+00  0.00000000000E+00  0.16365221905E+04  0.16365221905E+04  0.00000000000E+00 0. -1.
          1   -1    0    0  501    0 -0.00000000000E+00 -0.00000000000E+00 -0.86128767912E+03  0.86128767912E+03  0.00000000000E+00 0. -1.
         25    2    1    2    0    0 -0.35479700198E+03  0.14068785114E+03 -0.61951668397E+03  0.73831036582E+03  0.12500916165E+03 0.  0.
          2    1    1    2  501    0  0.35273895981E+03 -0.85652100652E+02 -0.67222346053E+00  0.36298968030E+03  0.00000000000E+00 0. -1.
          1    1    1    2  502    0  0.20580421654E+01 -0.55035750492E+02  0.13954234188E+04  0.13965098235E+04  0.00000000000E+00 0. -1.
         22    1    3    3    0    0 -0.30557612170E+03  0.16231285693E+03 -0.50982667976E+03  0.61615377389E+03  0.00000000000E+00 0.  1.
         22    1    3    3    0    0 -0.49220880284E+02 -0.21625005790E+02 -0.10969000420E+03  0.12215659194E+03  0.00000000000E+00 0.  1.
</event>
<event>
 7    1  0.5854318E-006  0.1134359E+03  0.7818608E-02  0.1277141E+00
          2   -1    0    0  502    0  0.00000000000E+00  0.00000000000E+00  0.33214302552E+03  0.33214302552E+03  0.00000000000E+00 0. -1.
          1   -1    0    0  501    0 -0.00000000000E+00 -0.00000000000E+00 -0.12078338686E+04  0.12078338686E+04  0.00000000000E+00 0. -1.
         25    2    1    2    0    0  0.11257978686E+03  0.56937077796E+02 -0.41620223270E+03  0.45250975832E+03  0.12499897452E+03 0.  0.
          2    1    1    2  501    0 -0.75336766109E+02  0.50770857214E+02 -0.76034282735E+03  0.76575095389E+03  0.00000000000E+00 0. -1.
          1    1    1    2  502    0 -0.37243020756E+02 -0.10770793501E+03  0.30085421695E+03  0.32171618193E+03  0.00000000000E+00 0. -1.
         22    1    3    3    0    0  0.13161058921E+02  0.64715155691E+02 -0.25100084492E+03  0.25954323146E+03  0.00000000000E+00 0.  1.
         22    1    3    3    0    0  0.99418727944E+02 -0.77780778955E+01 -0.16520138778E+03  0.19296652685E+03  0.00000000000E+00 0.  1.
</event>
<event>
 7    1  0.5854318E-006  0.4182864E+02  0.7818608E-02  0.1511657E+00
          2   -1    0    0  502    0  0.00000000000E+00  0.00000000000E+00  0.31907774814E+02  0.31907774814E+02  0.00000000000E+00 0. -1.
          1   -1    0    0  501    0 -0.00000000000E+00 -0.00000000000E+00 -0.65166170612E+03  0.65166170612E+03  0.00000000000E+00 0. -1.
         25    2    1    2    0    0 -0.20292414734E+01 -0.49508665155E+01 -0.16489105107E+03  0.20697960018E+03  0.12499146878E+03 0.  0.
          2    1    1    2  501    0 -0.11254070735E+02 -0.40286239777E+02 -0.40791702370E+03  0.41005601257E+03  0.00000000000E+00 0. -1.
          1    1    1    2  502    0  0.13283312209E+02  0.45237106293E+02 -0.46945856539E+02  0.66533868181E+02  0.00000000000E+00 0. -1.
         22    1    3    3    0    0 -0.31484067848E+02 -0.12885511948E+02 -0.17226850556E+03  0.17559533295E+03  0.00000000000E+00 0. -1.
         22    1    3    3    0    0  0.29454826375E+02  0.79346454324E+01  0.73774544890E+01  0.31384267231E+02  0.00000000000E+00 0. -1.
</event>
<event>
 7    1  0.5854318E-006  0.6361912E+02  0.7818608E-02  0.1539216E+00
          2   -1    0    0  502    0  0.00000000000E+00  0.00000000000E+00  0.12021410934E+04  0.12021410934E+04  0.00000000000E+00 0. -1.
          1   -1    0    0  501    0 -0.00000000000E+00 -0.00000000000E+00 -0.41738564680E+02  0.41738564680E+02  0.00000000000E+00 0. -1.
         25    2    1    2    0    0 -0.82074870428E+02 -0.52603766965E+01  0.59862571018E+03  0.61704435068E+03  0.12500813533E+03 0.  0.
          2    1    1    2  501    0  0.62688599776E+02 -0.12855669117E+01 -0.19550161142E+01  0.62732250973E+02  0.00000000000E+00 0. -1.
          1    1    1    2  502    0  0.19386270653E+02  0.65459436082E+01  0.56373183469E+03  0.56410305646E+03  0.00000000000E+00 0. -1.
         22    1    3    3    0    0 -0.37572770479E+01  0.22602995356E+02  0.14681655769E+02  0.27213297228E+02  0.00000000000E+00 0.  1.
         22    1    3    3    0    0 -0.78317593380E+02 -0.27863372052E+02  0.58394405441E+03  0.58983105345E+03  0.00000000000E+00 0.  1.
</event>
<event>
 7    1  0.5854318E-006  0.9917572E+02  0.7818608E-02  0.1334231E+00
          2   -1    0    0  502    0  0.00000000000E+00  0.00000000000E+00  0.17337760133E+04  0.17337760133E+04  0.00000000000E+00 0. -1.
          1   -1    0    0  501    0 -0.00000000000E+00 -0.00000000000E+00 -0.65402489232E+03  0.65402489232E+03  0.00000000000E+00 0. -1.
         25    2    1    2    0    0  0.18216790691E+02  0.61712808882E+02 -0.56195300005E+03  0.57927216028E+03  0.12499895666E+03 0.  0.
          2    1    1    2  501    0 -0.10115889078E+03 -0.73397389256E+01 -0.50582629837E+02  0.11333841093E+03  0.00000000000E+00 0. -1.
          1    1    1    2  502    0  0.82942100085E+02 -0.54373069957E+02  0.16922867509E+04  0.16951903344E+04  0.00000000000E+00 0. -1.
         22    1    3    3    0    0  0.52437202711E+02  0.77938836748E+02 -0.29363978091E+03  0.30829927576E+03  0.00000000000E+00 0. -1.
         22    1    3    3    0    0 -0.34220412020E+02 -0.16226027866E+02 -0.26831321914E+03  0.27097288452E+03  0.00000000000E+00 0. -1.
</event>
<event>
 7    1  0.5854318E-006  0.1242963E+03  0.7818608E-02  0.1393875E+00
          2   -1    0    0  502    0  0.00000000000E+00  0.00000000000E+00  0.91362686791E+03  0.91362686791E+03  0.00000000000E+00 0. -1.
          1   -1    0    0  501    0 -0.00000000000E+00 -0.00000000000E+00 -0.62604251365E+03  0.62604251365E+03  0.00000000000E+00 0. -1.
         25    2    1    2    0    0 -0.95632709512E+02 -0.15654993881E+02  0.56238066514E+03  0.58419859226E+03  0.12500115486E+03 0.  0.
          2    1    1    2  501    0  0.12437977399E+03  0.74665109366E+01 -0.60814793436E+03  0.62078175475E+03  0.00000000000E+00 0. -1.
          1    1    1    2  502    0 -0.28747064477E+02  0.81884829441E+01  0.33335162348E+03  0.33468903454E+03  0.00000000000E+00 0. -1.
         22    1    3    3    0    0 -0.27585355256E+02  0.54074749534E+02  0.22140469976E+03  0.22957585116E+03  0.00000000000E+00 0.  1.
         22    1    3    3    0    0 -0.68047354257E+02 -0.69729743415E+02  0.34097596538E+03  0.35462274110E+03  0.00000000000E+00 0.  1.
</event>
<event>
 7    1  0.5854318E-006  0.6158876E+02  0.7818608E-02  0.1504352E+00
          2   -1    0    0  502    0  0.00000000000E+00  0.00000000000E+00  0.37767954673E+02  0.37767954673E+02  0.00000000000E+00 0. -1.
          1   -1    0    0  501    0 -0.00000000000E+00 -0.00000000000E+00 -0.20882009451E+04  0.20882009451E+04  0.00000000000E+00 0. -1.
         25    2    1    2    0    0  0.59291622309E+02 -0.31622203436E+02 -0.68586125551E+03  0.70039017126E+03  0.12500107983E+03 0.  0.
          2    1    1    2  501    0 -0.61328076248E+02  0.50292262378E+01 -0.13884306331E+04  0.13897935275E+04  0.00000000000E+00 0. -1.
          1    1    1    2  502    0  0.20364539393E+01  0.26592977198E+02  0.23858898274E+02  0.35785200960E+02  0.00000000000E+00 0. -1.
         22    1    3    3    0    0  0.78293011724E+02 -0.42978189007E+02 -0.27942946378E+03  0.29335600496E+03  0.00000000000E+00 0. -1.
         22    1    3    3    0    0 -0.19001389415E+02  0.11355985571E+02 -0.40643179173E+03  0.40703416630E+03  0.00000000000E+00 0. -1.
</event>
<event>
 7    1  0.5854318E-006  0.4287649E+02  0.7818608E-02  0.1552727E+00
          2   -1    0    0  502    0  0.00000000000E+00  0.00000000000E+00  0.16657920703E+04  0.16657920703E+04  0.00000000000E+00 0. -1.
          1   -1    0    0  501    0 -0.00000000000E+00 -0.00000000000E+00 -0.10066131221E+03  0.10066131221E+03  0.00000000000E+00 0. -1.
         25    2    1    2    0    0 -0.27600430657E+02  0.25576743742E+02  0.41283969151E+03  0.43298755173E+03  0.12500262186E+03 0.  0.
          2    1    1    2  501    0  0.21705827703E+02  0.17407465434E+02 -0.88062600896E+02  0.92353584043E+02  0.00000000000E+00 0. -1.
          1    1    1    2  502    0  0.58946029543E+01 -0.42984209176E+02  0.12403536675E+04  0.12411122468E+04  0.00000000000E+00 0. -1.
         22    1    3    3    0    0 -0.16574337709E+02  0.73166432537E+02  0.31262960692E+03  0.32150475369E+03  0.00000000000E+00 0.  1.
         22    1    3    3    0    0 -0.11026092948E+02 -0.47589688794E+02  0.10021008458E+03  0.11148279803E+03  0.00000000000E+00 0.  1.
</event>
<event>
 7    1  0.5854318E-006  0.1068463E+03  0.7818608E-02  0.1380486E+00
          2   -1    0    0  502    0  0.00000000000E+00  0.00000000000E+00  0.66008278961E+03  0.66008278961E+03  0.00000000000E+00 0. -1.
          1   -1    0    0  501    0 -0.00000000000E+00 -0.00000000000E+00 -0.23473347062E+03  0.23473347062E+03  0.00000000000E+00 0. -1.
         25    2    1    2    0    0  0.11005453929E+03  0.67948226661E+02  0.42597312990E+03  0.46239340686E+03  0.12500236873E+03 0.  0.
          2    1    1    2  501    0 -0.23071368773E+02 -0.31119888715E+02 -0.20428346009E+03  0.20792418714E+03  0.00000000000E+00 0. -1.
          1    1    1    2  502    0 -0.86983170513E+02 -0.36828337946E+02  0.20365964919E+03  0.22449866623E+03  0.00000000000E+00 0. -1.
         22    1    3    3    0    0  0.55506063925E+02 -0.17721473787E+02  0.27037997849E+03  0.27658688786E+03  0.00000000000E+00 0. -1.
         22    1    3    3    0    0  0.54548475362E+02  0.85669700448E+02  0.15559315140E+03  0.18580651900E+03  0.00000000000E+00 0. -1.
</event>
<event>
 7    1  0.5854318E-006  0.1308303E+03  0.7818608E-02  0.1266755E+00
          2   -1    0    0  502    0  0.00000000000E+00  0.00000000000E+00  0.15551265424E+04  0.15551265424E+04  0.00000000000E+00 0. -1.
          1   -1    0    0  501    0 -0.00000000000E+00 -0.00000000000E+00 -0.47574211054E+03  0.47574211054E+03  0.00000000000E+00 0. -1.
         25    2    1    2    0    0  0.28537971312E+02 -0.95981729005E+02 -0.41943344039E+02  0.16556331531E+03  0.12500023663E+03 0.  0.
          2    1    1    2  501    0 -0.11462542450E+03  0.82980115657E+02 -0.35720385118E+03  0.38421254383E+03  0.00000000000E+00 0. -1.
          1    1    1    2  502    0  0.86087453188E+02  0.13001613348E+02  0.14785316271E+04  0.14810927938E+04  0.00000000000E+00 0. -1.
         22    1    3    3    0    0 -0.35099088777E+02 -0.54614543052E+01 -0.41876133547E+02  0.54912512936E+02  0.00000000000E+00 0.  1.
         22    1    3    3    0    0  0.63637060090E+02 -0.90520274700E+02 -0.67210492656E-01  0.11065080237E+03  0.00000000000E+00 0.  1.
</event>
<event>
 7    1  0.5854318E-006  0.1018183E+03  0.7818608E-02  0.1281459E+00
          2   -1    0    0  502    0  0.00000000000E+00  0.00000000000E+00  0.20738274320E+03  0.20738274320E+03  0.00000000000E+00 0. -1.
          1   -1    0    0  501    0 -0.00000000000E+00 -0.00000000000E+00 -0.57003211997E+03  0.57003211997E+03  0.00000000000E+00 0. -1.
         25    2    1    2    0    0 -0.73327513588E+02  0.12023811312E+02 -0.93165112954E+02  0.17270034163E+03  0.12499669372E+03 0.  0.
          2    1    1    2  501    0  0.29384526065E+02 -0.10387141447E+03 -0.41405091674E+03  0.42789120436E+03  0.00000000000E+00 0. -1.
          1    1    1    2  502    0  0.43942987524E+02  0.91847603154E+02  0.14456665293E+03  0.17682331717E+03  0.00000000000E+00 0. -1.
         22    1    3    3    0    0  0.83536069970E+01 -0.10414383013E+02 -0.86727471876E+02  0.87749054134E+02  0.00000000000E+00 0. -1.
         22    1    3    3    0    0 -0.81681120585E+02  0.22438194326E+02 -0.64376410778E+01  0.84951287497E+02  0.00000000000E+00 0. -1.
</event>
<event>
 7    1  0.5854318E-006  0.7104738E+02  0.7818608E-02  0.1364475E+00
          2   -1    0    0  502    0  0.00000000000E+00  0.00000000000E+00  0.16666324163E+04  0.16666324163E+04  0.00000000000E+00 0. -1.
          1   -1    0    0  501    0 -0.00000000000E+00 -0.00000000000E+00 -0.51548665386E+03  0.51548665386E+03  0.00000000000E+00 0. -1.
         25    2    1    2    0    0 -0.11869149261E+03 -0.43986977969E+02  0.60788750657E+03  0.63338378806E+03  0.12500111073E+03 0.  0.
          2    1    1    2  501    0  0.51887295960E+02  0.41565277004E+02 -0.49946558645E+03  0.50387085229E+03  0.00000000000E+00 0. -1.
          1    1    1    2  502    0  0.66804196650E+02  0.24217009647E+01  0.10427238423E+04  0.10448644298E+04  0.00000000000E+00 0. -1.
         22    1    3    3    0    0 -0.10586495093E+03  0.21947969072E+02  0.32026304096E+03  0.33801999436E+03  0.00000000000E+00 0. -1.
         22    1    3    3    0    0 -0.12826541685E+02 -0.65934947040E+02  0.28762446561E+03  0.29536379370E+03  0.00000000000E+00 0. -1.
</event>
<event>
 7    1  0.5854318E-006  0.6582743E+02  0.7818608E-02  0.1407884E+00
          2   -1    0    0  502    0  0.00000000000E+00  0.00000000000E+00  0.42877666080E+03  0.42877666080E+03  0.00000000000E+00 0. -1.
          1   -1    0    0  501    0 -0.00000000000E+00 -0.00000000000E+00 -0.90776798841E+02  0.90776798841E+02  0.00000000000E+00 0. -1.
         25    2    1    2    0    0  0.19811836961E+02 -0.20169377347E+02  0.18274702717E+03  0.22320653685E+03  0.12500147794E+03 0.  0.
          2    1    1    2  501    0 -0.69085974375E+02  0.90134745337E+01 -0.49492083595E+02  0.85460990616E+02  0.00000000000E+00 0. -1.
          1    1    1    2  502    0  0.49274137414E+02  0.11155902813E+02  0.20474491839E+03  0.21088593218E+03  0.00000000000E+00 0. -1.
         22    1    3    3    0    0 -0.51302980064E+02 -0.24561667187E+02  0.83490608485E+02  0.10102451665E+03  0.00000000000E+00 0.  1.
         22    1    3    3    0    0  0.71114817025E+02  0.43922898395E+01  0.99256418683E+02  0.12218202020E+03  0.00000000000E+00 0.  1.
</event>
<event>
 7    1  0.5854318E-006  0.1423350E+03  0.7818608E-02  0.1279020E+00
          2   -1    0    0  502    0  0.00000000000E+00  0.00000000000E+00  0.40673726651E+04  0.40673726651E+04  0.00000000000E+00 0. -1.
          1   -1    0    0  501    0 -0.00000000000E+00 -0.00000000000E+00 -0.12522679113E+04  0.12522679113E+04  0.00000000000E+00 0. -1.
         25    2    1    2    0    0 -0.55924612526E+01  0.13106007656E+03  0.48812597931E+03  0.52067273919E+03  0.12500044147E+03 0.  0.
          2    1    1    2  501    0 -0.70661969978E+02 -0.80176675608E+01 -0.12334996762E+04  0.12355479951E+04  0.00000000000E+00 0. -1.
          1    1    1    2  502    0  0.76254431231E+02 -0.12304240899E+03  0.35604784507E+04  0.35634198420E+04  0.00000000000E+00 0. -1.
         22    1    3    3    0    0 -0.44348844379E+02  0.13080680653E+03  0.32744398133E+03  0.35538261289E+03  0.00000000000E+00 0. -1.
         22    1    3    3    0    0  0.38756383126E+02  0.25327002496E+00  0.16068199798E+03  0.16529012631E+03  0.00000000000E+00 0. -1.
</event>
<event>
 7    1  0.5854318E-006  0.7193139E+02  0.7818608E-02  0.1429090E+00
          2   -1    0    0  502    0  0.00000000000E+00  0.00000000000E+00  0.19281644700E+04  0.19281644700E+04  0.00000000000E+00 0. -1.
          1   -1    0    0  501    0 -0.00000000000E+00 -0.00000000000E+00 -0.45727852094E+02  0.45727852094E+02  0.00000000000E+00 0. -1.
         25    2    1    2    0    0  0.29292728250E+02  0.49544106337E+02  0.76607233143E+03  0.77833440135E+03  0.12499976379E+03 0.  0.
          2    1    1    2  501    0  0.22616033283E+01 -0.72907461492E+02 -0.53670140839E+01  0.73139713091E+02  0.00000000000E+00 0. -1.
          1    1    1    2  502    0 -0.31554331579E+02  0.23363355155E+02  0.11217313006E+04  0.11224182077E+04  0.00000000000E+00 0. -1.
         22    1    3    3    0    0  0.65445963850E+02  0.24019596478E+02  0.65606832719E+03  0.65976190034E+03  0.00000000000E+00 0.  1.
         22    1    3    3    0    0 -0.36153235600E+02  0.25524509859E+02  0.11000400424E+03  0.11857250101E+03  0.00000000000E+00 0.  1.
</event>
<event>
 7    1  0.5854318E-006  0.2084071E+03  0.7818608E-02  0.1300920E+00
          2   -1    0    0  502    0  0.00000000000E+00  0.00000000000E+00  0.91811272668E+03  0.91811272668E+03  0.00000000000E+00 0. -1.
          1   -1    0    0  501    0 -0.00000000000E+00 -0.00000000000E+00 -0.10573226807E+04  0.10573226807E+04  0.00000000000E+00 0. -1.
         25    2    1    2    0    0  0.49485397434E+02  0.17247625473E+03 -0.18257831587E+03  0.28488044077E+03  0.12500064441E+03 0.  0.
          2    1    1    2  501    0  0.33955091786E+02  0.20303741564E+02 -0.81037919548E+03  0.81134433544E+03  0.00000000000E+00 0. -1.
          1    1    1    2  502    0 -0.83440489220E+02 -0.19277999629E+03  0.85374755736E+03  0.87921063114E+03  0.00000000000E+00 0. -1.
         22    1    3    3    0    0 -0.15499291562E+00  0.16890181752E+03 -0.14225260202E+03  0.22082493240E+03  0.00000000000E+00 0.  1.
         22    1    3    3    0    0  0.49640390350E+02  0.35744372035E+01 -0.40325713849E+02  0.64055508372E+02  0.00000000000E+00 0.  1.
</event>
<event>
 7    1  0.5854318E-006  0.1275284E+03  0.7818608E-02  0.1276024E+00
          2   -1    0    0  502    0  0.00000000000E+00  0.00000000000E+00  0.74440842875E+02  0.74440842875E+02  0.00000000000E+00 0. -1.
          1   -1    0    0  501    0 -0.00000000000E+00 -0.00000000000E+00 -0.14547375202E+04  0.14547375202E+04  0.00000000000E+00 0. -1.
         25    2    1    2    0    0  0.12737815118E+03 -0.13945686876E+02 -0.84059240826E+03  0.85944179559E+03  0.12499971044E+03 0.  0.
          2    1    1    2  501    0 -0.10379112800E+03  0.92142558688E+02 -0.56690675977E+03  0.58364897297E+03  0.00000000000E+00 0. -1.
          1    1    1    2  502    0 -0.23587023184E+02 -0.78196871812E+02  0.27202490725E+02  0.86087594492E+02  0.00000000000E+00 0. -1.
         22    1    3    3    0    0  0.12748197004E+03 -0.50571527286E+02 -0.56401787276E+03  0.58045266203E+03  0.00000000000E+00 0. -1.
         22    1    3    3    0    0 -0.10381885747E+00  0.36625840410E+02 -0.27657453549E+03  0.27898913356E+03  0.00000000000E+00 0. -1.
</event>
<event>
 7    1  0.5854318E-006  0.2357446E+03  0.7818608E-02  0.1229097E+00
          2   -1    0    0  502    0  0.00000000000E+00  0.00000000000E+00  0.29626697767E+04  0.29626697767E+04  0.00000000000E+00 0. -1.
          1   -1    0    0  501    0 -0.00000000000E+00 -0.00000000000E+00 -0.12097936122E+04  0.12097936122E+04  0.00000000000E+00 0. -1.
         25    2    1    2    0    0 -0.36006041576E+02  0.28668714537E+03  0.10818724726E+04  0.11267472136E+04  0.12500112815E+03 0.  0.
          2    1    1    2  501    0  0.22732517026E+02 -0.66713181001E+02 -0.11797675754E+04  0.11818709523E+04  0.00000000000E+00 0. -1.
          1    1    1    2  502    0  0.13273524550E+02 -0.21997396437E+03  0.18507712674E+04  0.18638452231E+04  0.00000000000E+00 0. -1.
         22    1    3    3    0    0  0.22006617986E+02  0.22303691485E+03  0.68855943477E+03  0.72411591050E+03  0.00000000000E+00 0.  1.
         22    1    3    3    0    0 -0.58012659562E+02  0.63650230517E+02  0.39331303779E+03  0.40263130306E+03  0.00000000000E+00 0.  1.
</event>
<event>
 7    1  0.5854318E-006  0.8178863E+02  0.7818608E-02  0.1422525E+00
          2   -1    0    0  502    0  0.00000000000E+00  0.00000000000E+00  0.15516137834E+04  0.15516137834E+04  0.00000000000E+00 0. -1.
          1   -1    0    0  501    0 -0.00000000000E+00 -0.00000000000E+00 -0.50185613311E+02  0.50185613311E+02  0.00000000000E+00 0. -1.
         25    2    1    2    0    0 -0.75947783857E+02 -0.55201968957E+02  0.61027512827E+03  0.62998161964E+03  0.12500314256E+03 0.  0.
          2    1    1    2  501    0  0.42546101483E+02  0.69423636057E+02  0.15133862268E+01  0.81437720576E+02  0.00000000000E+00 0. -1.
          1    1    1    2  502    0  0.33401682374E+02 -0.14221667099E+02  0.88963965557E+03  0.89038005647E+03  0.00000000000E+00 0. -1.
         22    1    3    3    0    0 -0.80845870587E+02  0.15096211225E+01  0.49339726222E+03  0.49997919168E+03  0.00000000000E+00 0. -1.
         22    1    3    3    0    0  0.48980867300E+01 -0.56711590080E+02  0.11687786604E+03  0.13000242795E+03  0.00000000000E+00 0. -1.
</event>
<event>
 7    1  0.5854318E-006  0.9295214E+02  0.7818608E-02  0.1306097E+00
          2   -1    0    0  502    0  0.00000000000E+00  0.00000000000E+00  0.17110128061E+04  0.17110128061E+04  0.00000000000E+00 0. -1.
          1   -1    0    0  501    0 -0.00000000000E+00 -0.00000000000E+00 -0.25467111081E+02  0.25467111081E+02  0.00000000000E+00 0. -1.
         25    2    1    2    0    0 -0.11291742097E+02  0.53288192879E+01  0.42357709673E+03  0.44181158755E+03  0.12499608899E+03 0.  0.
          2    1    1    2  501    0 -0.92625532581E+02 -0.77852917406E+01  0.14094581577E+03  0.16883667562E+03  0.00000000000E+00 0. -1.
          1    1    1    2  502    0  0.10391727468E+03  0.24564724526E+01  0.11210227825E+04  0.11258316540E+04  0.00000000000E+00 0. -1.
         22    1    3    3    0    0  0.44572752061E+01  0.64000930258E+02  0.24099664901E+03  0.24938999822E+03  0.00000000000E+00 0.  1.
         22    1    3    3    0    0 -0.15749017303E+02 -0.58672110970E+02  0.18258044771E+03  0.19242158933E+03  0.00000000000E+00 0.  1.
</event>
<event>
 7    1  0.5854318E-006  0.4631915E+02  0.7818608E-02  0.1506456E+00
          2   -1    0    0  502    0  0.00000000000E+00  0.00000000000E+00  0.11860114607E+04  0.11860114607E+04  0.00000000000E+00 0. -1.
          1   -1    0    0  501    0 -0.00000000000E+00 -0.00000000000E+00 -0.10617140752E+04  0.10617140752E+04  0.00000000000E+00 0. -1.
         25    2    1    2    0    0  0.16388284817E+02 -0.10234360332E+02 -0.25991678452E+02  0.12912972148E+03  0.12500239841E+03 0.  0.
          2    1    1    2  501    0 -0.12454986441E+02  0.44970238014E+02 -0.98333065811E+03  0.98443721596E+03  0.00000000000E+00 0. -1.
          1    1    1    2  502    0 -0.39332983753E+01 -0.34735877682E+02  0.11336197221E+04  0.11341585985E+04  0.00000000000E+00 0. -1.
         22    1    3    3    0    0 -0.16340444463E+02  0.20592281242E+02  0.40847759394E+02  0.48575627834E+02  0.00000000000E+00 0. -1.
         22    1    3    3    0    0  0.32728729280E+02 -0.30826641574E+02 -0.66839437846E+02  0.80554093643E+02  0.00000000000E+00 0. -1.
</event>
<event>
 7    1  0.5854318E-006  0.7715339E+02  0.7818608E-02  0.1470322E+00
          2   -1    0    0  502    0  0.00000000000E+00  0.00000000000E+00  0.85240862028E+02  0.85240862028E+02  0.00000000000E+00 0. -1.
          1   -1    0    0  501    0 -0.00000000000E+00 -0.00000000000E+00 -0.13612345252E+04  0.13612345252E+04  0.00000000000E+00 0. -1.
         25    2    1    2    0    0  0.72029468310E+02  0.47821132647E+02 -0.15871057309E+03  0.21974844299E+03  0.12500090862E+03 0.  0.
          2    1    1    2  501    0 -0.24311633210E+02  0.11769405230E+02 -0.11451424164E+04  0.11454609240E+04  0.00000000000E+00 0. -1.
          1    1    1    2  502    0 -0.47717835100E+02 -0.59590537877E+02  0.27859326328E+02  0.81266020295E+02  0.00000000000E+00 0. -1.
         22    1    3    3    0    0  0.51524236268E+02  0.20071365302E+02  0.20432843540E+01  0.55333368224E+02  0.00000000000E+00 0. -1.
         22    1    3    3    0    0  0.20505232042E+02  0.27749767345E+02 -0.16075385744E+03  0.16441507477E+03  0.00000000000E+00 0. -1.
</event>
<event>
 7    1  0.5854318E-006  0.1279970E+03  0.7818608E-02  0.1286520E+00
          2   -1    0    0  502    0  0.00000000000E+00  0.00000000000E+00  0.26552808697E+04  0.26552808697E+04  0.00000000000E+00 0. -1.
          1   -1    0    0  501    0 -0.00000000000E+00 -0.00000000000E+00 -0.10020838273E+03  0.10020838273E+03  0.00000000000E+00 0. -1.
         25    2    1    2    0    0 -0.71072044941E+02 -0.17085990530E+01  0.22030155622E+03  0.26308163264E+03  0.12500005950E+03 0.  0.
          2    1    1    2  501    0  0.14205839387E+03  0.21367264816E+02 -0.12299268974E+02  0.14418189655E+03  0.00000000000E+00 0. -1.
          1    1    1    2  502    0 -0.70986348927E+02 -0.19658665763E+02  0.23470701997E+04  0.23482257232E+04  0.00000000000E+00 0. -1.
         22    1    3    3    0    0 -0.24525588460E+02 -0.13063663264E+02 -0.87029971178E+01  0.29118824599E+02  0.00000000000E+00 0.  1.
         22    1    3    3    0    0 -0.46546456481E+02  0.11355064211E+02  0.22900455334E+03  0.23396280804E+03  0.00000000000E+00 0.  1.
</event>
<event>
 7    1  0.5854318E-006  0.1594056E+03  0.7818608E-02  0.1282046E+00
          2   -1    0    0  502    0  0.00000000000E+00  0.00000000000E+00  0.19431888002E+04  0.19431888002E+04  0.00000000000E+00 0. -1.
          1   -1    0    0  501    0 -0.00000000000E+00 -0.00000000000E+00 -0.51086486216E+03  0.51086486216E+03  0.00000000000E+00 0. -1.
         25    2    1    2    0    0 -0.12233570438E+03 -0.16251053861E+03  0.43725283461E+02  0.24270467968E+03  0.12497184243E+03 0.  0.
          2    1    1    2  501    0  0.11804381201E+03  0.10096076305E+03 -0.39616040119E+03  0.42552377220E+03  0.00000000000E+00 0. -1.
          1    1    1    2  502    0  0.42918923737E+01  0.61549775557E+02  0.17847590558E+04  0.17858252105E+04  0.00000000000E+00 0. -1.
         22    1    3    3    0    0 -0.26799094566E+02 -0.11758558500E+02 -0.36704833501E+02  0.46943582840E+02  0.00000000000E+00 0. -1.
         22    1    3    3    0    0 -0.95536609815E+02 -0.15075198011E+03  0.80430116962E+02  0.19576109684E+03  0.00000000000E+00 0. -1.
</event>
<event>
 7    1  0.5854318E-006  0.4181811E+02  0.7818608E-02  0.1555951E+00
          2   -1    0    0  502    0  0.00000000000E+00  0.00000000000E+00  0.19779884897E+04  0.19779884897E+04  0.00000000000E+00 0. -1.
          1   -1    0    0  501    0 -0.00000000000E+00 -0.00000000000E+00 -0.10195406855E+04  0.10195406855E+04  0.00000000000E+00 0. -1.
         25    2    1    2    0    0 -0.86454430594E+01  0.18842758510E+02 -0.57991626794E+03  0.59359582370E+03  0.12499332324E+03 0.  0.
          2    1    1    2  501    0  0.33867647877E+02 -0.30878260034E+02 -0.43147189077E+03  0.43389915538E+03  0.00000000000E+00 0. -1.
          1    1    1    2  502    0 -0.25222204817E+02  0.12035501524E+02  0.19698359629E+04  0.19700341961E+04  0.00000000000E+00 0. -1.
         22    1    3    3    0    0  0.25934386869E+02  0.64404107791E+02 -0.30788589688E+03  0.31561718429E+03  0.00000000000E+00 0. -1.
         22    1    3    3    0    0 -0.34579829928E+02 -0.45561349281E+02 -0.27203037107E+03  0.27797863941E+03  0.00000000000E+00 0. -1.
</event>
<event>
 7    1  0.5854318E-006  0.1280279E+03  0.7818608E-02  0.1366177E+00
          2   -1    0    0  502    0  0.00000000000E+00  0.00000000000E+00  0.45688177582E+03  0.45688177582E+03  0.00000000000E+00 0. -1.
          1   -1    0    0  501    0 -0.00000000000E+00 -0.00000000000E+00 -0.34855072459E+03  0.34855072459E+03  0.00000000000E+00 0. -1.
         25    2    1    2    0    0 -0.15865792627E+03  0.25937821803E+02 -0.39102767400E+02  0.20736188580E+03  0.12499926838E+03 0.  0.
          2    1    1    2  501    0  0.34132629438E+02 -0.12571804113E+02 -0.21321466340E+03  0.21629512093E+03  0.00000000000E+00 0. -1.
          1    1    1    2  502    0  0.12452529683E+03 -0.13366017690E+02  0.36064848203E+03  0.38177549368E+03  0.00000000000E+00 0. -1.
         22    1    3    3    0    0 -0.66496426503E+02  0.30544249784E+02 -0.78241426981E+02  0.10712817943E+03  0.00000000000E+00 0.  1.
         22    1    3    3    0    0 -0.92161499768E+02 -0.46064279806E+01  0.39138659581E+02  0.10023370637E+03  0.00000000000E+00 0.  1.
</event>
<event>
 7    1  0.5854318E-006  0.1433022E+03  0.7818608E-02  0.1225662E+00
          2   -1    0    0  502    0  0.00000000000E+00  0.00000000000E+00  0.14142905761E+04  0.14142905761E+04  0.00000000000E+00 0. -1.
          1   -1    0    0  501    0 -0.00000000000E+00 -0.00000000000E+00 -0.80985994999E+03  0.80985994999E+03  0.00000000000E+00 0. -1.
         25    2    1    2    0    0  0.11896450049E+03 -0.20998402798E+03  0.68011500929E+03  0.73241205708E+03  0.12500060449E+03 0.  0.
          2    1    1    2  501    0 -0.72712416585E+02  0.95648905441E+02 -0.77366789412E+03  0.78294177244E+03  0.00000000000E+00 0. -1.
          1    1    1    2  502    0 -0.46252083904E+02  0.11433512254E+03  0.69798351092E+03  0.70879669654E+03  0.00000000000E+00 0. -1.
         22    1    3    3    0    0  0.16048146610E+02  0.16488057573E+02  0.54929469585E+02  0.59553720967E+02  0.00000000000E+00 0.  1.
         22    1    3    3    0    0  0.10291635388E+03 -0.22647208555E+03  0.62518553970E+03  0.67285833612E+03  0.00000000000E+00 0.  1.
</event>
<event>
 7    1  0.5854318E-006  0.5166281E+03  0.7818608E-02  0.1122056E+00
          2   -1    0    0  502    0  0.00000000000E+00  0.00000000000E+00  0.13610355776E+04  0.13610355776E+04  0.00000000000E+00 0. -1.
          1   -1    0    0  501    0 -0.00000000000E+00 -0.00000000000E+00 -0.72749625668E+03  0.72749625668E+03  0.00000000000E+00 0. -1.
         25    2    1    2    0    0  0.14008303157E+03  0.41360374058E+03  0.58779251188E+03  0.74284311726E+03  0.12499819957E+03 0.  0.
          2    1    1    2  501    0 -0.11174004592E+03 -0.51821828834E+03 -0.53603144622E+03  0.75390035388E+03  0.00000000000E+00 0. -1.
          1    1    1    2  502    0 -0.28342985644E+02  0.10461454777E+03  0.58177825524E+03  0.59178836310E+03  0.00000000000E+00 0. -1.
         22    1    3    3    0    0 -0.16449849585E+02  0.50359272226E+02  0.11357128311E+03  0.12531995131E+03  0.00000000000E+00 0.  1.
         22    1    3    3    0    0  0.15653288115E+03  0.36324446835E+03  0.47422122877E+03  0.61752316595E+03  0.00000000000E+00 0.  1.
</event>
<event>
 7    1  0.5854318E-006  0.5084683E+02  0.7818608E-02  0.1459983E+00
          2   -1    0    0  502    0  0.00000000000E+00  0.00000000000E+00  0.62148457879E+03  0.62148457879E+03  0.00000000000E+00 0. -1.
          1   -1    0    0  501    0 -0.00000000000E+00 -0.00000000000E+00 -0.98330386451E+02  0.98330386451E+02  0.00000000000E+00 0. -1.
         25    2    1    2    0    0 -0.22047767647E+02  0.34181043732E+02  0.15810241587E+03  0.20560863657E+03  0.12499635882E+03 0.  0.
          2    1    1    2  501    0  0.52191846601E+02 -0.19128980102E+01 -0.64159798494E+02  0.82729243761E+02  0.00000000000E+00 0. -1.
          1    1    1    2  502    0 -0.30144078954E+02 -0.32268145722E+02  0.42921157497E+03  0.43147708492E+03  0.00000000000E+00 0. -1.
         22    1    3    3    0    0  0.14296866005E+02 -0.35250853478E+02  0.12126026622E+02  0.39925725668E+02  0.00000000000E+00 0.  1.
         22    1    3    3    0    0 -0.36344633652E+02  0.69431897210E+02  0.14597638925E+03  0.16568291090E+03  0.00000000000E+00 0.  1.
</event>
<event>
 7    1  0.5854318E-006  0.8503031E+02  0.7818608E-02  0.1373308E+00
          2   -1    0    0  502    0  0.00000000000E+00  0.00000000000E+00  0.13016159218E+04  0.13016159218E+04  0.00000000000E+00 0. -1.
          1   -1    0    0  501    0 -0.00000000000E+00 -0.00000000000E+00 -0.31018957978E+03  0.31018957978E+03  0.00000000000E+00 0. -1.
         25    2    1    2    0    0 -0.11172685076E+03 -0.62131014753E+02 -0.42212382468E+02  0.18371123720E+03  0.12499912505E+03 0.  0.
          2    1    1    2  501    0  0.61070590684E+02  0.52165166220E+02 -0.18848325271E+03  0.20488230320E+03  0.00000000000E+00 0. -1.
          1    1    1    2  502    0  0.50656260072E+02  0.99658485336E+01  0.12221219772E+04  0.12232119612E+04  0.00000000000E+00 0. -1.
         22    1    3    3    0    0 -0.10673923098E+03 -0.93969327912E+02 -0.49668146746E+02  0.15063340539E+03  0.00000000000E+00 0. -1.
         22    1    3    3    0    0 -0.49876197722E+01  0.31838313158E+02  0.74557642781E+01  0.33077831802E+02  0.00000000000E+00 0. -1.
</event>
<event>
 7    1  0.5854318E-006  0.7758026E+02  0.7818608E-02  0.1445286E+00
          2   -1    0    0  502    0  0.00000000000E+00  0.00000000000E+00  0.25362946760E+02  0.25362946760E+02  0.00000000000E+00 0. -1.
          1   -1    0    0  501    0 -0.00000000000E+00 -0.00000000000E+00 -0.88987628754E+03  0.88987628754E+03  0.00000000000E+00 0. -1.
         25    2    1    2    0    0 -0.54922348156E+02 -0.13045968832E+02 -0.31818773576E+03  0.34649740557E+03  0.12502141916E+03 0.  0.
          2    1    1    2  501    0  0.82817728027E+02 -0.31138695202E+01 -0.52152245752E+03  0.52806642191E+03  0.00000000000E+00 0. -1.
          1    1    1    2  502    0 -0.27895379871E+02  0.16159838352E+02 -0.24803147504E+02  0.40675406818E+02  0.00000000000E+00 0. -1.
         22    1    3    3    0    0 -0.22727936414E+02  0.55476427533E+02 -0.16652744835E+03  0.17699035047E+03  0.00000000000E+00 0.  1.
         22    1    3    3    0    0 -0.32194411741E+02 -0.68522396365E+02 -0.15166028741E+03  0.16950705510E+03  0.00000000000E+00 0.  1.
</event>
<event>
 7    1  0.5854318E-006  0.1097020E+03  0.7818608E-02  0.1272532E+00
          2   -1    0    0  502    0  0.00000000000E+00  0.00000000000E+00  0.26776546893E+04  0.26776546893E+04  0.00000000000E+00 0. -1.
          1   -1    0    0  501    0 -0.00000000000E+00 -0.00000000000E+00 -0.45888483605E+03  0.45888483605E+03  0.00000000000E+00 0. -1.
         25    2    1    2    0    0  0.10817697268E+03  0.13270418220E+03  0.44114641331E+03  0.48943641873E+03  0.12500077044E+03 0.  0.
          2    1    1    2  501    0 -0.13046441898E+02 -0.10839486842E+03 -0.42677526931E+03  0.44051877104E+03  0.00000000000E+00 0. -1.
          1    1    1    2  502    0 -0.95130530785E+02 -0.24309313784E+02  0.22043987093E+04  0.22065843356E+04  0.00000000000E+00 0. -1.
         22    1    3    3    0    0  0.69818236013E+02  0.89497087189E+02  0.12832116371E+03  0.17132027245E+03  0.00000000000E+00 0.  1.
         22    1    3    3    0    0  0.38358736670E+02  0.43207095010E+02  0.31282524960E+03  0.31811614628E+03  0.00000000000E+00 0.  1.
</event>
<event>
 7    1  0.5854318E-006  0.4656281E+02  0.7818608E-02  0.1578406E+00
          2   -1    0    0  502    0  0.00000000000E+00  0.00000000000E+00  0.12502927809E+04  0.12502927809E+04  0.00000000000E+00 0. -1.
          1   -1    0    0  501    0 -0.00000000000E+00 -0.00000000000E+00 -0.31369576720E+03  0.31369576720E+03  0.00000000000E+00 0. -1.
         25    2    1    2    0    0  0.22803451190E+02 -0.19188125702E+02  0.11964672820E+03  0.17557574290E+03  0.12499328130E+03 0.  0.
          2    1    1    2  501    0 -0.22605422023E+02  0.40985490077E+02 -0.28370576899E+03  0.28754091684E+03  0.00000000000E+00 0. -1.
          1    1    1    2  502    0 -0.19802916709E+00 -0.21797364376E+02  0.11006560545E+04  0.11008718883E+04  0.00000000000E+00 0. -1.
         22    1    3    3    0    0  0.48663255949E+01 -0.71960173634E+02  0.58766641198E+02  0.93034756042E+02  0.00000000000E+00 0. -1.
         22    1    3    3    0    0  0.17937125595E+02  0.52772047932E+02  0.60880087005E+02  0.82540986857E+02  0.00000000000E+00 0. -1.
</event>
<event>
 7    1  0.5854318E-006  0.9828843E+02  0.7818608E-02  0.1321770E+00
          2   -1    0    0  502    0  0.00000000000E+00  0.00000000000E+00  0.20930650720E+03  0.20930650720E+03  0.00000000000E+00 0. -1.
          1   -1    0    0  501    0 -0.00000000000E+00 -0.00000000000E+00 -0.10012600759E+04  0.10012600759E+04  0.00000000000E+00 0. -1.
         25    2    1    2    0    0 -0.13101244151E+03  0.48930789336E+02 -0.81007102008E+03  0.83150300880E+03  0.12499485632E+03 0.  0.
          2    1    1    2  501    0  0.67349877281E+02 -0.21166876691E+02 -0.16701980388E+03  0.18132748696E+03  0.00000000000E+00 0. -1.
          1    1    1    2  502    0  0.63662564232E+02 -0.27763912645E+02  0.18513725529E+03  0.19773608731E+03  0.00000000000E+00 0. -1.
         22    1    3    3    0    0  0.17488313750E+02  0.32899680374E+02 -0.13073284186E+03  0.13593861124E+03  0.00000000000E+00 0. -1.
         22    1    3    3    0    0 -0.14850075526E+03  0.16031108962E+02 -0.67933817822E+03  0.69556439756E+03  0.00000000000E+00 0. -1.
</event>
<event>
 7    1  0.5854318E-006  0.1143014E+03  0.7818608E-02  0.1437296E+00
          2   -1    0    0  502    0  0.00000000000E+00  0.00000000000E+00  0.11065283903E+04  0.11065283903E+04  0.00000000000E+00 0. -1.
          1   -1    0    0  501    0 -0.00000000000E+00 -0.00000000000E+00 -0.61912918755E+03  0.61912918755E+03  0.00000000000E+00 0. -1.
         25    2    1    2    0    0 -0.11947859231E+03  0.54834776239E+02 -0.27389553530E+03  0.32851902380E+03  0.12499599208E+03 0.  0.
          2    1    1    2  501    0  0.22570971333E+02  0.54712119411E+01 -0.31447458989E+03  0.31533101749E+03  0.00000000000E+00 0. -1.
          1    1    1    2  502    0  0.96907620977E+02 -0.60305988180E+02  0.10757693279E+04  0.10818075365E+04  0.00000000000E+00 0. -1.
         22    1    3    3    0    0 -0.13995608205E+03  0.58274514754E+02 -0.26626014234E+03  0.30639531225E+03  0.00000000000E+00 0.  1.
         22    1    3    3    0    0  0.20477489736E+02 -0.34397385150E+01 -0.76353929553E+01  0.22123711545E+02  0.00000000000E+00 0.  1.
</event>
<event>
 7    1  0.5854318E-006  0.6295282E+02  0.7818608E-02  0.1402433E+00
          2   -1    0    0  502    0  0.00000000000E+00  0.00000000000E+00  0.20323251395E+04  0.20323251395E+04  0.00000000000E+00 0. -1.
          1   -1    0    0  501    0 -0.00000000000E+00 -0.00000000000E+00 -0.70848512627E+03  0.70848512627E+03  0.00000000000E+00 0. -1.
         25    2    1    2    0    0  0.69669848470E+02  0.46592783182E+02  0.42870082093E+03  0.45435003071E+03  0.12499912522E+03 0.  0.
          2    1    1    2  501    0 -0.62432564879E+02  0.80704382041E+01 -0.69375712533E+03  0.69660742609E+03  0.00000000000E+00 0. -1.
          1    1    1    2  502    0 -0.72372835915E+01 -0.54663221386E+02  0.15888963177E+04  0.15898528090E+04  0.00000000000E+00 0. -1.
         22    1    3    3    0    0  0.70813904369E+02  0.62563911130E+02  0.16483245725E+03  0.18999629204E+03  0.00000000000E+00 0. -1.
         22    1    3    3    0    0 -0.11440558989E+01 -0.15971127948E+02  0.26386836368E+03  0.26435373866E+03  0.00000000000E+00 0. -1.
</event>
<event>
 7    1  0.5854318E-006  0.7486556E+02  0.7818608E-02  0.1506308E+00
          2   -1    0    0  502    0  0.00000000000E+00  0.00000000000E+00  0.45185249665E+03  0.45185249665E+03  0.00000000000E+00 0. -1.
          1   -1    0    0  501    0 -0.00000000000E+00 -0.00000000000E+00 -0.49967945115E+03  0.49967945115E+03  0.00000000000E+00 0. -1.
         25    2    1    2    0    0 -0.34954334443E+02  0.60463614469E+02  0.26426489330E+03  0.30056369274E+03  0.12499978157E+03 0.  0.
          2    1    1    2  501    0  0.17256413508E+02 -0.72934127551E+02 -0.47790574500E+03  0.48374690891E+03  0.00000000000E+00 0. -1.
          1    1    1    2  502    0  0.17697920935E+02  0.12470513082E+02  0.16581389720E+03  0.16722134615E+03  0.00000000000E+00 0. -1.
         22    1    3    3    0    0  0.38999469996E+02  0.53617968962E+02  0.96361395628E+02  0.11696736221E+03  0.00000000000E+00 0. -1.
         22    1    3    3    0    0 -0.73953804439E+02  0.68456455066E+01  0.16790349767E+03  0.18359633053E+03  0.00000000000E+00 0. -1.
</event>
<event>
 7    1  0.5854318E-006  0.3050264E+03  0.7818608E-02  0.1224024E+00
          2   -1    0    0  502    0  0.00000000000E+00  0.00000000000E+00  0.61425452910E+03  0.61425452910E+03  0.00000000000E+00 0. -1.
          1   -1    0    0  501    0 -0.00000000000E+00 -0.00000000000E+00 -0.60377893865E+03  0.60377893865E+03  0.00000000000E+00 0. -1.
         25    2    1    2    0    0  0.17120066883E+03 -0.30450009680E+03  0.23917380408E+02  0.37178963367E+03  0.12500205064E+03 0.  0.
          2    1    1    2  501    0 -0.27036943630E+02  0.50653563161E+02 -0.37623035325E+03  0.38058646651E+03  0.00000000000E+00 0. -1.
          1    1    1    2  502    0 -0.14416372520E+03  0.25384653364E+03  0.36278856331E+03  0.46565736757E+03  0.00000000000E+00 0. -1.
         22    1    3    3    0    0  0.65985528019E+02 -0.26253664900E+02  0.21869862899E+02  0.74307709773E+02  0.00000000000E+00 0. -1.
         22    1    3    3    0    0  0.10521514081E+03 -0.27824643190E+03  0.20475175096E+01  0.29748192390E+03  0.00000000000E+00 0. -1.
</event>
<event>
 7    1  0.5854318E-006  0.9834163E+02  0.7818608E-02  0.1440106E+00
          2   -1    0    0  502    0  0.00000000000E+00  0.00000000000E+00  0.10184668080E+03  0.10184668080E+03  0.00000000000E+00 0. -1.
          1   -1    0    0  501    0 -0.00000000000E+00 -0.00000000000E+00 -0.73034720310E+03  0.73034720310E+03  0.00000000000E+00 0. -1.
         25    2    1    2    0    0  0.11093851877E+03  0.52165739096E+02 -0.43012755318E+03  0.46439557200E+03  0.12499966403E+03 0.  0.
          2    1    1    2  501    0 -0.21182602005E+02 -0.15809689798E+02 -0.25450018089E+03  0.25586908956E+03  0.00000000000E+00 0. -1.
          1    1    1    2  502    0 -0.89755916761E+02 -0.36356049298E+02  0.56127211762E+02  0.11192922234E+03  0.00000000000E+00 0. -1.
         22    1    3    3    0    0  0.72436297842E+02  0.89768633883E+02 -0.34411700288E+03  0.36293516852E+03  0.00000000000E+00 0.  1.
         22    1    3    3    0    0  0.38502220924E+02 -0.37602894787E+02 -0.86010550294E+02  0.10146040348E+03  0.00000000000E+00 0.  1.
</event>
<event>
 7    1  0.5854318E-006  0.1256872E+03  0.7818608E-02  0.1330179E+00
          2   -1    0    0  502    0  0.00000000000E+00  0.00000000000E+00  0.95857847713E+03  0.95857847713E+03  0.00000000000E+00 0. -1.
          1   -1    0    0  501    0 -0.00000000000E+00 -0.00000000000E+00 -0.31909585219E+03  0.31909585219E+03  0.00000000000E+00 0. -1.
         25    2    1    2    0    0 -0.14940353298E+03 -0.14340778158E+02  0.66378037730E+03  0.69192215555E+03  0.12499922584E+03 0.  0.
          2    1    1    2  501    0  0.11460159281E+03  0.50819527674E+02 -0.28966950573E+03  0.31563360407E+03  0.00000000000E+00 0. -1.
          1    1    1    2  502    0  0.34801940170E+02 -0.36478749516E+02  0.26537175338E+03  0.27011856970E+03  0.00000000000E+00 0. -1.
         22    1    3    3    0    0 -0.69646953223E+02  0.53855327205E+02  0.35680030710E+03  0.36750177347E+03  0.00000000000E+00 0. -1.
         22    1    3    3    0    0 -0.79756579759E+02 -0.68196105363E+02  0.30698007021E+03  0.32442038207E+03  0.00000000000E+00 0. -1.
</event>
<event>
 7    1  0.5854318E-006  0.3464709E+03  0.7818608E-02  0.1274784E+00
          2   -1    0    0  502    0  0.00000000000E+00  0.00000000000E+00  0.63466899625E+03  0.63466899625E+03  0.00000000000E+00 0. -1.
          1   -1    0    0  501    0 -0.00000000000E+00 -0.00000000000E+00 -0.46344071957E+03  0.46344071957E+03  0.00000000000E+00 0. -1.
         25    2    1    2    0    0 -0.29286252655E+03 -0.17819165668E+03  0.10960319972E+03  0.38099863901E+03  0.12500550217E+03 0.  0.
          2    1    1    2  501    0 -0.19829353943E+02  0.23072883032E+02 -0.24839997704E+03  0.25025608844E+03  0.00000000000E+00 0. -1.
          1    1    1    2  502    0  0.31269188049E+03  0.15511877365E+03  0.31002505400E+03  0.46685498837E+03  0.00000000000E+00 0. -1.
         22    1    3    3    0    0 -0.21286551257E+03 -0.58270681080E+02  0.63485011074E+02  0.22964656615E+03  0.00000000000E+00 0.  1.
         22    1    3    3    0    0 -0.79997013981E+02 -0.11992097560E+03  0.46118188646E+02  0.15135207286E+03  0.00000000000E+00 0.  1.
</event>
<event>
 7    1  0.5854318E-006  0.1855109E+03  0.7818608E-02  0.1201955E+00
          2   -1    0    0  502    0  0.00000000000E+00  0.00000000000E+00  0.11156335188E+04  0.11156335188E+04  0.00000000000E+00 0. -1.
          1   -1    0    0  501    0 -0.00000000000E+00 -0.00000000000E+00 -0.14116040055E+04  0.14116040055E+04  0.00000000000E+00 0. -1.
         25    2    1    2    0    0  0.11511424690E+03 -0.21491682614E+02  0.90578449814E+02  0.19375560598E+03  0.12499438795E+03 0.  0.
          2    1    1    2  501    0 -0.16990937307E+03 -0.84541655092E+02 -0.13496932584E+04  0.13629704246E+04  0.00000000000E+00 0. -1.
          1    1    1    2  502    0  0.54795126163E+02  0.10603333771E+03  0.96314432194E+03  0.97051149372E+03  0.00000000000E+00 0. -1.
         22    1    3    3    0    0  0.12539694434E+03 -0.12503109993E+02  0.27197972608E+02  0.12892032859E+03  0.00000000000E+00 0.  1.
         22    1    3    3    0    0 -0.10282697435E+02 -0.89885726210E+01  0.63380477206E+02  0.64835277397E+02  0.00000000000E+00 0.  1.
</event>
<event>
 7    1  0.5854318E-006  0.4936717E+02  0.7818608E-02  0.1566071E+00
          2   -1    0    0  502    0  0.00000000000E+00  0.00000000000E+00  0.46755344635E+03  0.46755344635E+03  0.00000000000E+00 0. -1.
          1   -1    0    0  501    0 -0.00000000000E+00 -0.00000000000E+00 -0.19742131652E+03  0.19742131652E+03  0.00000000000E+00 0. -1.
         25    2    1    2    0    0  0.18153879456E+02 -0.56857821449E+02 -0.12814390225E+03  0.18870351397E+03  0.12500312517E+03 0.  0.
          2    1    1    2  501    0  0.12579661942E+02  0.18296972586E+02 -0.34318595173E+02  0.40875335779E+02  0.00000000000E+00 0. -1.
          1    1    1    2  502    0 -0.30733541398E+02  0.38560848863E+02  0.43259462726E+03  0.43539591312E+03  0.00000000000E+00 0. -1.
         22    1    3    3    0    0  0.53607605128E+02  0.17268732857E+02 -0.54115471916E+02  0.78105497647E+02  0.00000000000E+00 0. -1.
         22    1    3    3    0    0 -0.35453725672E+02 -0.74126554306E+02 -0.74028430337E+02  0.11059801633E+03  0.00000000000E+00 0. -1.
</event>
<event>
 7    1  0.5854318E-006  0.3622410E+02  0.7818608E-02  0.1582597E+00
          2   -1    0    0  502    0  0.00000000000E+00  0.00000000000E+00  0.11190888113E+04  0.11190888113E+04  0.00000000000E+00 0. -1.
          1   -1    0    0  501    0 -0.00000000000E+00 -0.00000000000E+00 -0.86868292722E+02  0.86868292722E+02  0.00000000000E+00 0. -1.
         25    2    1    2    0    0 -0.33245398260E+02 -0.51425243433E+02  0.14478024630E+03  0.20083970116E+03  0.12500181470E+03 0.  0.
          2    1    1    2  501    0  0.20769656488E+02  0.17724120700E+02 -0.55310030184E+02  0.61682432865E+02  0.00000000000E+00 0. -1.
          1    1    1    2  502    0  0.12475741772E+02  0.33701122733E+02  0.94275030246E+03  0.94343496999E+03  0.00000000000E+00 0. -1.
         22    1    3    3    0    0  0.19874793624E+02  0.26761743590E+02  0.78811057048E+02  0.85570912433E+02  0.00000000000E+00 0. -1.
         22    1    3    3    0    0 -0.53120191885E+02 -0.78186987024E+02  0.65969189249E+02  0.11526878873E+03  0.00000000000E+00 0. -1.
</event>
<event>
 7    1  0.5854318E-006  0.2223307E+03  0.7818608E-02  0.1328525E+00
          2   -1    0    0  502    0  0.00000000000E+00  0.00000000000E+00  0.16939363542E+04  0.16939363542E+04  0.00000000000E+00 0. -1.
          1   -1    0    0  501    0 -0.00000000000E+00 -0.00000000000E+00 -0.30685373121E+03  0.30685373121E+03  0.00000000000E+00 0. -1.
         25    2    1    2    0    0 -0.23901476624E+02 -0.24755078457E+03  0.99747106825E+03  0.10355801108E+04  0.12499984916E+03 0.  0.
          2    1    1    2  501    0  0.29737766734E+02  0.21922605904E+03 -0.24490504723E+03  0.33003466771E+03  0.00000000000E+00 0. -1.
          1    1    1    2  502    0 -0.58362901107E+01  0.28324725532E+02  0.63451660200E+03  0.63517530696E+03  0.00000000000E+00 0. -1.
         22    1    3    3    0    0 -0.32456827130E+02 -0.26416046600E+01  0.14311529384E+03  0.14677333217E+03  0.00000000000E+00 0. -1.
         22    1    3    3    0    0  0.85553505067E+01 -0.24490917991E+03  0.85435577441E+03  0.88880677860E+03  0.00000000000E+00 0. -1.
</event>
<event>
 7    1  0.5854318E-006  0.1077807E+03  0.7818608E-02  0.1295318E+00
          2   -1    0    0  502    0  0.00000000000E+00  0.00000000000E+00  0.99429010687E+03  0.99429010687E+03  0.00000000000E+00 0. -1.
          1   -1    0    0  501    0 -0.00000000000E+00 -0.00000000000E+00 -0.97476059201E+03  0.97476059201E+03  0.00000000000E+00 0. -1.
         25    2    1    2    0    0 -0.15095994069E+03 -0.33663271482E+02 -0.52232086810E+00  0.19886465371E+03  0.12499903255E+03 0.  0.
          2    1    1    2  501    0  0.10237892505E+03 -0.30606370399E+02 -0.86997876821E+03  0.87651654367E+03  0.00000000000E+00 0. -1.
          1    1    1    2  502    0  0.48581015643E+02  0.64269641882E+02  0.89003060394E+03  0.89366950149E+03  0.00000000000E+00 0. -1.
         22    1    3    3    0    0 -0.11521503718E+03 -0.60684127294E+02 -0.42986616983E+02  0.13713102252E+03  0.00000000000E+00 0.  1.
         22    1    3    3    0    0 -0.35744903504E+02  0.27020855811E+02  0.42464296115E+02  0.61733631190E+02  0.00000000000E+00 0.  1.
</event>
<event>
 7    1  0.5854318E-006  0.1652759E+03  0.7818608E-02  0.1221176E+00
          2   -1    0    0  502    0  0.00000000000E+00  0.00000000000E+00  0.75329977486E+03  0.75329977486E+03  0.00000000000E+00 0. -1.
          1   -1    0    0  501    0 -0.00000000000E+00 -0.00000000000E+00 -0.70927841357E+03  0.70927841357E+03  0.00000000000E+00 0. -1.
         25    2    1    2    0    0  0.33486405716E+02 -0.20551543896E+03  0.10863564017E+03  0.26605406328E+03  0.12500050903E+03 0.  0.
          2    1    1    2  501    0  0.61867740475E+02  0.15235808404E+03 -0.61438930992E+03  0.63601480111E+03  0.00000000000E+00 0. -1.
          1    1    1    2  502    0 -0.95354146191E+02  0.53157354911E+02  0.54977503104E+03  0.56050932404E+03  0.00000000000E+00 0. -1.
         22    1    3    3    0    0  0.60369812469E+01 -0.10689105055E+03 -0.12118263429E+02  0.10774504229E+03  0.00000000000E+00 0. -1.
         22    1    3    3    0    0  0.27449424469E+02 -0.98624388405E+02  0.12075390360E+03  0.15830902099E+03  0.00000000000E+00 0. -1.
</event>
<event>
 7    1  0.5854318E-006  0.7441174E+02  0.7818608E-02  0.1420531E+00
          2   -1    0    0  502    0  0.00000000000E+00  0.00000000000E+00  0.29120438636E+03  0.29120438636E+03  0.00000000000E+00 0. -1.
          1   -1    0    0  501    0 -0.00000000000E+00 -0.00000000000E+00 -0.22442992622E+03  0.22442992622E+03  0.00000000000E+00 0. -1.
         25    2    1    2    0    0  0.16973328053E+02  0.10983481032E+03 -0.57700192042E+02  0.17693821069E+03  0.12500415520E+03 0.  0.
          2    1    1    2  501    0 -0.16072532965E+02 -0.37193289378E+02 -0.97261021170E+02  0.10536305486E+03  0.00000000000E+00 0. -1.
          1    1    1    2  502    0 -0.90079508822E+00 -0.72641520943E+02  0.22173567336E+03  0.23333304703E+03  0.00000000000E+00 0. -1.
         22    1    3    3    0    0 -0.33633391476E+02  0.41057143009E+02  0.24460829158E+02  0.58439936493E+02  0.00000000000E+00 0.  1.
         22    1    3    3    0    0  0.50606719530E+02  0.68777667313E+02 -0.82161021201E+02  0.11849827420E+03  0.00000000000E+00 0.  1.
</event>
<event>
 7    1  0.5854318E-006  0.4463539E+02  0.7818608E-02  0.1528952E+00
          2   -1    0    0  502    0  0.00000000000E+00  0.00000000000E+00  0.61610287720E+03  0.61610287720E+03  0.00000000000E+00 0. -1.
          1   -1    0    0  501    0 -0.00000000000E+00 -0.00000000000E+00 -0.93478084844E+02  0.93478084844E+02  0.00000000000E+00 0. -1.
         25    2    1    2    0    0 -0.17846091831E+02 -0.13599085754E+01  0.25944934760E+03  0.28854911643E+03  0.12500518500E+03 0.  0.
          2    1    1    2  501    0 -0.26601897330E+02 -0.16294247362E+02 -0.74091420742E+02  0.80390932737E+02  0.00000000000E+00 0. -1.
          1    1    1    2  502    0  0.44447989161E+02  0.17654155937E+02  0.33726686550E+03  0.34064091288E+03  0.00000000000E+00 0. -1.
         22    1    3    3    0    0  0.15536427833E+02 -0.35706547740E+02  0.18912523963E+02  0.43289972326E+02  0.00000000000E+00 0.  1.
         22    1    3    3    0    0 -0.33382519664E+02  0.34346639165E+02  0.24053682363E+03  0.24525914410E+03  0.00000000000E+00 0.  1.
</event>
<event>
 7    1  0.5854318E-006  0.6109714E+02  0.7818608E-02  0.1453815E+00
          2   -1    0    0  502    0  0.00000000000E+00  0.00000000000E+00  0.10801186041E+03  0.10801186041E+03  0.00000000000E+00 0. -1.
          1   -1    0    0  501    0 -0.00000000000E+00 -0.00000000000E+00 -0.13687040177E+04  0.13687040177E+04  0.00000000000E+00 0. -1.
         25    2    1    2    0    0  0.31126557318E+02  0.64589573388E+01 -0.23034529508E+02  0.13101701470E+03  0.12499715153E+03 0.  0.
          2    1    1    2  501    0  0.38430885165E+02 -0.86747776123E+00 -0.12687296525E+04  0.12693118673E+04  0.00000000000E+00 0. -1.
          1    1    1    2  502    0 -0.69557442483E+02 -0.55914795776E+01  0.31072024710E+02  0.76386996067E+02  0.00000000000E+00 0. -1.
         22    1    3    3    0    0  0.42123638464E+02  0.14512511047E+02  0.43995662592E+02  0.62614952058E+02  0.00000000000E+00 0.  1.
         22    1    3    3    0    0 -0.10997081147E+02 -0.80535537077E+01 -0.67030192100E+02  0.68402062644E+02  0.00000000000E+00 0.  1.
</event>
<event>
 7    1  0.5854318E-006  0.6580315E+02  0.7818608E-02  0.1420344E+00
          2   -1    0    0  502    0  0.00000000000E+00  0.00000000000E+00  0.16983606557E+04  0.16983606557E+04  0.00000000000E+00 0. -1.
          1   -1    0    0  501    0 -0.00000000000E+00 -0.00000000000E+00 -0.15078396607E+04  0.15078396607E+04  0.00000000000E+00 0. -1.
         25    2    1    2    0    0 -0.76263247427E+02 -0.74431979678E+02  0.39278883935E+03  0.42575180325E+03  0.12500129257E+03 0.  0.
          2    1    1    2  501    0  0.34177338652E+02  0.56153768285E+02 -0.14902250595E+04  0.14916742486E+04  0.00000000000E+00 0. -1.
          1    1    1    2  502    0  0.42085908775E+02  0.18278211394E+02  0.12879572151E+04  0.12887742645E+04  0.00000000000E+00 0. -1.
         22    1    3    3    0    0 -0.65839322940E+02 -0.10437226674E+03  0.35806054800E+03  0.37872911499E+03  0.00000000000E+00 0. -1.
         22    1    3    3    0    0 -0.10423924487E+02  0.29940287059E+02  0.34728291353E+02  0.47022688260E+02  0.00000000000E+00 0. -1.
</event>
<event>
 7    1  0.5854318E-006  0.4852200E+02  0.7818608E-02  0.1577129E+00
          2   -1    0    0  502    0  0.00000000000E+00  0.00000000000E+00  0.51881465568E+02  0.51881465568E+02  0.00000000000E+00 0. -1.
          1   -1    0    0  501    0 -0.00000000000E+00 -0.00000000000E+00 -0.30800094544E+03  0.30800094544E+03  0.00000000000E+00 0. -1.
         25    2    1    2    0    0 -0.34777682996E+02  0.16023660413E+02 -0.54802057089E+02  0.14175931770E+03  0.12500477498E+03 0.  0.
          2    1    1    2  501    0  0.32882736745E+02 -0.37022508538E+02 -0.18485806679E+03  0.19137514304E+03  0.00000000000E+00 0. -1.
          1    1    1    2  502    0  0.18949462510E+01  0.20998848125E+02 -0.16459355992E+02  0.26747950268E+02  0.00000000000E+00 0. -1.
         22    1    3    3    0    0  0.42884832477E+02 -0.10030342200E+02 -0.37928933945E+02  0.58123322784E+02  0.00000000000E+00 0.  1.
         22    1    3    3    0    0 -0.77662515473E+02  0.26054002612E+02 -0.16873123144E+02  0.83635994921E+02  0.00000000000E+00 0.  1.
</event>
<event>
 7    1  0.6895012E-006  0.1254921E+03  0.7818608E-02  0.1235951E+00
          2   -1    0    0  502    0  0.00000000000E+00  0.00000000000E+00  0.17246409139E+04  0.17246409139E+04  0.00000000000E+00 0. -1.
          1   -1    0    0  501    0 -0.00000000000E+00 -0.00000000000E+00 -0.51548882781E+03  0.51548882781E+03  0.00000000000E+00 0. -1.
         25    2    1    2    0    0 -0.26061975449E+02  0.30813764324E+01 -0.88698057943E+02  0.15550245239E+03  0.12499978308E+03 0.  0.
          2    1    1    2  501    0 -0.26622698871E+01 -0.12546384357E+03 -0.38097041251E+03  0.40110686722E+03  0.00000000000E+00 0. -1.
          1    1    1    2  502    0  0.28724245336E+02  0.12238246714E+03  0.16788205565E+04  0.16835204221E+04  0.00000000000E+00 0. -1.
         22    1    3    3    0    0 -0.36948108086E+02 -0.49272565174E+02 -0.80573245845E+02  0.10141497087E+03  0.00000000000E+00 0. -1.
         22    1    3    3    0    0  0.10886132637E+02  0.52353941606E+02 -0.81248120977E+01  0.54087481519E+02  0.00000000000E+00 0. -1.
</event>
<event>
 7    1  0.5854318E-006  0.1441553E+03  0.7818608E-02  0.1254633E+00
          2   -1    0    0  502    0  0.00000000000E+00  0.00000000000E+00  0.30523620173E+03  0.30523620173E+03  0.00000000000E+00 0. -1.
          1   -1    0    0  501    0 -0.00000000000E+00 -0.00000000000E+00 -0.82450038722E+03  0.82450038722E+03  0.00000000000E+00 0. -1.
         25    2    1    2    0    0 -0.97488192911E+02 -0.16923045061E+03 -0.50514340820E+03  0.55582098526E+03  0.12499684653E+03 0.  0.
          2    1    1    2  501    0  0.90494696455E+02  0.80505375078E+02 -0.27380753073E+03  0.29940101768E+03  0.00000000000E+00 0. -1.
          1    1    1    2  502    0  0.69934964558E+01  0.88725075529E+02  0.25968675344E+03  0.27451458601E+03  0.00000000000E+00 0. -1.
         22    1    3    3    0    0 -0.87992309880E+02 -0.11682873437E+03 -0.21001124696E+03  0.25592249534E+03  0.00000000000E+00 0. -1.
         22    1    3    3    0    0 -0.94958830308E+01 -0.52401716236E+02 -0.29513216124E+03  0.29989848992E+03  0.00000000000E+00 0. -1.
</event>
<event>
 7    1  0.5854318E-006  0.5035524E+02  0.7818608E-02  0.1485565E+00
          2   -1    0    0  502    0  0.00000000000E+00  0.00000000000E+00  0.21751117638E+04  0.21751117638E+04  0.00000000000E+00 0. -1.
          1   -1    0    0  501    0 -0.00000000000E+00 -0.00000000000E+00 -0.11964164709E+03  0.11964164709E+03  0.00000000000E+00 0. -1.
         25    2    1    2    0    0  0.23893130489E+02 -0.79750093407E+02  0.25784161516E+02  0.15238251313E+03  0.12499859295E+03 0.  0.
          2    1    1    2  501    0 -0.81888035716E+01  0.46083613206E+02 -0.46426835075E+02  0.65925768294E+02  0.00000000000E+00 0. -1.
          1    1    1    2  502    0 -0.15704326917E+02  0.33666480202E+02  0.20761127903E+04  0.20764451295E+04  0.00000000000E+00 0. -1.
         22    1    3    3    0    0 -0.13053027471E+02 -0.10260839954E+03  0.32499764142E+02  0.10842093825E+03  0.00000000000E+00 0.  1.
         22    1    3    3    0    0  0.36946157960E+02  0.22858306131E+02 -0.67156026259E+01  0.43961574878E+02  0.00000000000E+00 0.  1.
</event>
<event>
 7    1  0.5854318E-006  0.3891273E+02  0.7818608E-02  0.1521125E+00
          2   -1    0    0  502    0  0.00000000000E+00  0.00000000000E+00  0.24479351958E+04  0.24479351958E+04  0.00000000000E+00 0. -1.
          1   -1    0    0  501    0 -0.00000000000E+00 -0.00000000000E+00 -0.59574840691E+03  0.59574840691E+03  0.00000000000E+00 0. -1.
         25    2    1    2    0    0 -0.53690798941E+02 -0.34156732631E+02 -0.37168652476E+03  0.39727306061E+03  0.12500251087E+03 0.  0.
          2    1    1    2  501    0  0.14787257501E+02  0.34670932803E+02 -0.20943066468E+03  0.21279553537E+03  0.00000000000E+00 0. -1.
          1    1    1    2  502    0  0.38903541440E+02 -0.51420017275E+00  0.24333039784E+04  0.24336150067E+04  0.00000000000E+00 0. -1.
         22    1    3    3    0    0 -0.83650913895E+02 -0.50914371815E+02 -0.20631396934E+03  0.22837513568E+03  0.00000000000E+00 0.  1.
         22    1    3    3    0    0  0.29960114954E+02  0.16757639184E+02 -0.16537255542E+03  0.16889792493E+03  0.00000000000E+00 0.  1.
</event>
<event>
 7    1  0.5854318E-006  0.3668017E+02  0.7818608E-02  0.1625953E+00
          2   -1    0    0  502    0  0.00000000000E+00  0.00000000000E+00  0.18012506267E+03  0.18012506267E+03  0.00000000000E+00 0. -1.
          1   -1    0    0  501    0 -0.00000000000E+00 -0.00000000000E+00 -0.11354484116E+04  0.11354484116E+04  0.00000000000E+00 0. -1.
         25    2    1    2    0    0 -0.10364087822E+02  0.42575806808E+02  0.41939328626E+02  0.13893962997E+03  0.12500079940E+03 0.  0.
          2    1    1    2  501    0 -0.91984309990E+01 -0.35501169201E+02 -0.10854281198E+04  0.10860474886E+04  0.00000000000E+00 0. -1.
          1    1    1    2  502    0  0.19562518821E+02 -0.70746376070E+01  0.88165442243E+02  0.90586355737E+02  0.00000000000E+00 0. -1.
         22    1    3    3    0    0  0.26380741552E+02 -0.30224809596E+02 -0.11142584015E+02  0.41637000594E+02  0.00000000000E+00 0. -1.
         22    1    3    3    0    0 -0.36744829373E+02  0.72800616404E+02  0.53081912641E+02  0.97302629379E+02  0.00000000000E+00 0. -1.
</event>
<event>
 7    1  0.5854318E-006  0.6490917E+02  0.7818608E-02  0.1443291E+00
          2   -1    0    0  502    0  0.00000000000E+00  0.00000000000E+00  0.16164291401E+03  0.16164291401E+03  0.00000000000E+00 0. -1.
          1   -1    0    0  501    0 -0.00000000000E+00 -0.00000000000E+00 -0.24521654913E+04  0.24521654913E+04  0.00000000000E+00 0. -1.
         25    2    1    2    0    0  0.10351366724E+03  0.10911328926E+01 -0.10980324646E+04  0.11099620662E+04  0.12499690081E+03 0.  0.
          2    1    1    2  501    0 -0.38903394837E+02 -0.39787546344E+01 -0.13411537877E+04  0.13417238117E+04  0.00000000000E+00 0. -1.
          1    1    1    2  502    0 -0.64610272405E+02  0.28876217418E+01  0.14866367496E+03  0.16212252746E+03  0.00000000000E+00 0. -1.
         22    1    3    3    0    0  0.10468570842E+03  0.16259249223E+02 -0.10843134670E+04  0.10894765511E+04  0.00000000000E+00 0. -1.
         22    1    3    3    0    0 -0.11720411793E+01 -0.15168116330E+02 -0.13718997655E+02  0.20485515131E+02  0.00000000000E+00 0. -1.
</event>
<event>
 7    1  0.5854318E-006  0.1487285E+03  0.7818608E-02  0.1280747E+00
          2   -1    0    0  502    0  0.00000000000E+00  0.00000000000E+00  0.11919981061E+04  0.11919981061E+04  0.00000000000E+00 0. -1.
          1   -1    0    0  501    0 -0.00000000000E+00 -0.00000000000E+00 -0.54178961659E+03  0.54178961659E+03  0.00000000000E+00 0. -1.
         25    2    1    2    0    0 -0.11109189459E+03 -0.17619115460E+03  0.92804610944E+02  0.26004180078E+03  0.12499724130E+03 0.  0.
          2    1    1    2  501    0  0.49951496733E+02  0.44575576913E+02 -0.45050018141E+03  0.45544763424E+03  0.00000000000E+00 0. -1.
          1    1    1    2  502    0  0.61140397861E+02  0.13161557769E+03  0.10079040600E+04  0.10182982877E+04  0.00000000000E+00 0. -1.
         22    1    3    3    0    0 -0.47155162916E+01  0.16548580753E+02 -0.66821206115E+01  0.18459207856E+02  0.00000000000E+00 0.  1.
         22    1    3    3    0    0 -0.10637637830E+03 -0.19273973536E+03  0.99486731556E+02  0.24158259292E+03  0.00000000000E+00 0.  1.
</event>
<event>
 7    1  0.5854318E-006  0.6240145E+02  0.7818608E-02  0.1402100E+00
          2   -1    0    0  502    0  0.00000000000E+00  0.00000000000E+00  0.14670834523E+03  0.14670834523E+03  0.00000000000E+00 0. -1.
          1   -1    0    0  501    0 -0.00000000000E+00 -0.00000000000E+00 -0.57177555840E+03  0.57177555840E+03  0.00000000000E+00 0. -1.
         25    2    1    2    0    0  0.21120551587E+01  0.95679843485E+01 -0.17948202848E+03  0.21894071918E+03  0.12500093145E+03 0.  0.
          2    1    1    2  501    0  0.58640237189E+02 -0.23819289183E+02 -0.36198232288E+03  0.36747413246E+03  0.00000000000E+00 0. -1.
          1    1    1    2  502    0 -0.60752292348E+02  0.14251304835E+02  0.11639713819E+03  0.13206905200E+03  0.00000000000E+00 0. -1.
         22    1    3    3    0    0 -0.22166493847E+02  0.50365662323E+02 -0.15709115677E+03  0.16645024760E+03  0.00000000000E+00 0.  1.
         22    1    3    3    0    0  0.24278549006E+02 -0.40797677975E+02 -0.22390871710E+02  0.52490471572E+02  0.00000000000E+00 0.  1.
</event>
<event>
 7    1  0.7023462E-006  0.4701252E+02  0.7818608E-02  0.1470267E+00
          2   -1    0    0  502    0  0.00000000000E+00  0.00000000000E+00  0.14278594972E+04  0.14278594972E+04  0.00000000000E+00 0. -1.
          1   -1    0    0  501    0 -0.00000000000E+00 -0.00000000000E+00 -0.35369484995E+03  0.35369484995E+03  0.00000000000E+00 0. -1.
         25    2    1    2    0    0 -0.12505787187E+01  0.25939373349E+02 -0.77476050176E+02  0.14933847029E+03  0.12500010129E+03 0.  0.
          2    1    1    2  501    0 -0.43168732570E+02 -0.10146234210E+02 -0.23783844464E+03  0.24193720526E+03  0.00000000000E+00 0. -1.
          1    1    1    2  502    0  0.44419311289E+02 -0.15793139139E+02  0.13894791421E+04  0.13902786716E+04  0.00000000000E+00 0. -1.
         22    1    3    3    0    0  0.37786207323E+02 -0.15648046459E+02  0.12535781857E+02  0.42776215922E+02  0.00000000000E+00 0.  1.
         22    1    3    3    0    0 -0.39036786041E+02  0.41587419808E+02 -0.90011832033E+02  0.10656225437E+03  0.00000000000E+00 0.  1.
</event>
<event>
 7    1  0.5854318E-006  0.4928119E+02  0.7818608E-02  0.1524137E+00
          2   -1    0    0  502    0  0.00000000000E+00  0.00000000000E+00  0.21948578101E+02  0.21948578101E+02  0.00000000000E+00 0. -1.
          1   -1    0    0  501    0 -0.00000000000E+00 -0.00000000000E+00 -0.90847613824E+03  0.90847613824E+03  0.00000000000E+00 0. -1.
         25    2    1    2    0    0  0.54101882672E+02 -0.38114201220E+02 -0.64182217185E+03  0.65722205409E+03  0.12500168822E+03 0.  0.
          2    1    1    2  501    0 -0.28978716163E+02 -0.33430161623E+01 -0.21365080151E+03  0.21563303720E+03  0.00000000000E+00 0. -1.
          1    1    1    2  502    0 -0.25123166509E+02  0.41457217383E+02 -0.31054586779E+02  0.57569625051E+02  0.00000000000E+00 0. -1.
         22    1    3    3    0    0 -0.13737007724E+02  0.34471115122E+02 -0.10704379066E+03  0.11329314312E+03  0.00000000000E+00 0.  1.
         22    1    3    3    0    0  0.67838890396E+02 -0.72585316342E+02 -0.53477838119E+03  0.54392891097E+03  0.00000000000E+00 0.  1.
</event>
<event>
 7    1  0.5854318E-006  0.5967264E+02  0.7818608E-02  0.1495170E+00
          2   -1    0    0  502    0  0.00000000000E+00  0.00000000000E+00  0.79001170370E+03  0.79001170370E+03  0.00000000000E+00 0. -1.
          1   -1    0    0  501    0 -0.00000000000E+00 -0.00000000000E+00 -0.11356511569E+04  0.11356511569E+04  0.00000000000E+00 0. -1.
         25    2    1    2    0    0 -0.43276324760E+02 -0.52482385589E+01  0.47196257591E+02  0.14054388343E+03  0.12499884858E+03 0.  0.
          2    1    1    2  501    0  0.55986639192E+02 -0.21174114912E+02 -0.10878454847E+04  0.10894910029E+04  0.00000000000E+00 0. -1.
          1    1    1    2  502    0 -0.12710314432E+02  0.26422353471E+02  0.69500977386E+03  0.69562797429E+03  0.00000000000E+00 0. -1.
         22    1    3    3    0    0 -0.61767931934E+02 -0.20830979204E+01 -0.24463822485E+02  0.66468754486E+02  0.00000000000E+00 0. -1.
         22    1    3    3    0    0  0.18491607174E+02 -0.31651406384E+01  0.71660080075E+02  0.74075128941E+02  0.00000000000E+00 0. -1.
</event>
<event>
 7    1  0.5854318E-006  0.1840646E+03  0.7818608E-02  0.1183734E+00
          2   -1    0    0  502    0  0.00000000000E+00  0.00000000000E+00  0.24852395070E+04  0.24852395070E+04  0.00000000000E+00 0. -1.
          1   -1    0    0  501    0 -0.00000000000E+00 -0.00000000000E+00 -0.11562070462E+04  0.11562070462E+04  0.00000000000E+00 0. -1.
         25    2    1    2    0    0 -0.48971259309E+02 -0.11134280816E+03 -0.15364525352E+02  0.17508929123E+03  0.12499914438E+03 0.  0.
          2    1    1    2  501    0 -0.13287726085E+03  0.62803401273E+02 -0.10521829077E+04  0.10623979974E+04  0.00000000000E+00 0. -1.
          1    1    1    2  502    0  0.18184852015E+03  0.48539406884E+02  0.23965798939E+04  0.24039592646E+04  0.00000000000E+00 0. -1.
         22    1    3    3    0    0  0.36192433765E+02 -0.18116141672E+02  0.18286092374E+02  0.44412476009E+02  0.00000000000E+00 0. -1.
         22    1    3    3    0    0 -0.85163693073E+02 -0.93226666485E+02 -0.33650617726E+02  0.13067681522E+03  0.00000000000E+00 0. -1.
</event>
<event>
 7    1  0.5854318E-006  0.9292122E+02  0.7818608E-02  0.1305495E+00
          2   -1    0    0  502    0  0.00000000000E+00  0.00000000000E+00  0.13819412284E+04  0.13819412284E+04  0.00000000000E+00 0. -1.
          1   -1    0    0  501    0 -0.00000000000E+00 -0.00000000000E+00 -0.22120115037E+03  0.22120115037E+03  0.00000000000E+00 0. -1.
         25    2    1    2    0    0  0.95245194088E+02  0.12782684399E+02 -0.23452294984E+02  0.15940209765E+03  0.12499589825E+03 0.  0.
          2    1    1    2  501    0 -0.51869861491E+02 -0.85982450157E+02 -0.10873897728E+03  0.14801226114E+03  0.00000000000E+00 0. -1.
          1    1    1    2  502    0 -0.43375332597E+02  0.73199765758E+02  0.12929313503E+04  0.12957280200E+04  0.00000000000E+00 0. -1.
         22    1    3    3    0    0  0.23827068576E+02 -0.31779378007E+02 -0.56417699031E+02  0.68997208838E+02  0.00000000000E+00 0. -1.
         22    1    3    3    0    0  0.71418125512E+02  0.44562062405E+02  0.32965404047E+02  0.90404888814E+02  0.00000000000E+00 0. -1.
</event>
<event>
 7    1  0.5854318E-006  0.9355370E+02  0.7818608E-02  0.1359147E+00
          2   -1    0    0  502    0  0.00000000000E+00  0.00000000000E+00  0.22176759123E+04  0.22176759123E+04  0.00000000000E+00 0. -1.
          1   -1    0    0  501    0 -0.00000000000E+00 -0.00000000000E+00 -0.36707317333E+03  0.36707317333E+03  0.00000000000E+00 0. -1.
         25    2    1    2    0    0  0.11525700879E+03 -0.61906078920E+02 -0.15341953685E+03  0.23722734158E+03  0.12499086616E+03 0.  0.
          2    1    1    2  501    0 -0.52314898520E+02 -0.70999995979E+01 -0.16666448634E+03  0.17482651289E+03  0.00000000000E+00 0. -1.
          1    1    1    2  502    0 -0.62942110272E+02  0.69006078518E+02  0.21706867622E+04  0.21726952312E+04  0.00000000000E+00 0. -1.
         22    1    3    3    0    0  0.14662122282E+02  0.35400965570E+02 -0.51036443540E+02  0.63819470088E+02  0.00000000000E+00 0.  1.
         22    1    3    3    0    0  0.10059488651E+03 -0.97307044490E+02 -0.10238309331E+03  0.17340787149E+03  0.00000000000E+00 0.  1.
</event>
<event>
 7    1  0.5854318E-006  0.1806335E+03  0.7818608E-02  0.1212685E+00
          2   -1    0    0  502    0  0.00000000000E+00  0.00000000000E+00  0.19805911801E+04  0.19805911801E+04  0.00000000000E+00 0. -1.
          1   -1    0    0  501    0 -0.00000000000E+00 -0.00000000000E+00 -0.91019349867E+03  0.91019349867E+03  0.00000000000E+00 0. -1.
         25    2    1    2    0    0 -0.17424609495E+01  0.13529289178E+03  0.65469912135E+03  0.68011948896E+03  0.12499750810E+03 0.  0.
          2    1    1    2  501    0  0.11064432761E+03 -0.14403647041E+03 -0.88598219780E+03  0.90440761101E+03  0.00000000000E+00 0. -1.
          1    1    1    2  502    0 -0.10890186666E+03  0.87435786302E+01  0.13016807579E+04  0.13062575788E+04  0.00000000000E+00 0. -1.
         22    1    3    3    0    0  0.43604107646E+02  0.75363462605E+02  0.18522921929E+03  0.20467250274E+03  0.00000000000E+00 0.  1.
         22    1    3    3    0    0 -0.45346568595E+02  0.59929429172E+02  0.46946990206E+03  0.47544698622E+03  0.00000000000E+00 0.  1.
</event>
<event>
 7    1  0.5854318E-006  0.2884746E+02  0.7818608E-02  0.1629013E+00
          2   -1    0    0  502    0  0.00000000000E+00  0.00000000000E+00  0.12844391661E+03  0.12844391661E+03  0.00000000000E+00 0. -1.
          1   -1    0    0  501    0 -0.00000000000E+00 -0.00000000000E+00 -0.10667328082E+04  0.10667328082E+04  0.00000000000E+00 0. -1.
         25    2    1    2    0    0 -0.57799327617E+01 -0.26272494701E+01 -0.47648695018E+03  0.49265134548E+03  0.12500089781E+03 0.  0.
          2    1    1    2  501    0 -0.18733238645E+02  0.18007446205E+02 -0.58012918643E+03  0.58071083621E+03  0.00000000000E+00 0. -1.
          1    1    1    2  502    0  0.24513171406E+02 -0.15380196735E+02  0.11832724497E+03  0.12181454316E+03  0.00000000000E+00 0. -1.
         22    1    3    3    0    0  0.49376891624E+02  0.84613968955E+00 -0.93909581671E+02  0.10610279407E+03  0.00000000000E+00 0. -1.
         22    1    3    3    0    0 -0.55156824386E+02 -0.34733891596E+01 -0.38257736851E+03  0.38654855142E+03  0.00000000000E+00 0. -1.
</event>
<event>
 7    1  0.5854318E-006  0.9543252E+02  0.7818608E-02  0.1365306E+00
          2   -1    0    0  502    0  0.00000000000E+00  0.00000000000E+00  0.85159395487E+03  0.85159395487E+03  0.00000000000E+00 0. -1.
          1   -1    0    0  501    0 -0.00000000000E+00 -0.00000000000E+00 -0.94369268351E+02  0.94369268351E+02  0.00000000000E+00 0. -1.
         25    2    1    2    0    0  0.26015094677E+02 -0.97483578543E+02  0.46544801412E+03  0.49238991507E+03  0.12500456546E+03 0.  0.
          2    1    1    2  501    0 -0.66237536602E+02  0.69231204778E+02 -0.50140696796E+02  0.10814092863E+03  0.00000000000E+00 0. -1.
          1    1    1    2  502    0  0.40222441925E+02  0.28252373765E+02  0.34191736920E+03  0.34543237952E+03  0.00000000000E+00 0. -1.
         22    1    3    3    0    0 -0.39048752010E+02 -0.77447155900E+02  0.19349701617E+03  0.21204707557E+03  0.00000000000E+00 0. -1.
         22    1    3    3    0    0  0.65063846687E+02 -0.20036422643E+02  0.27195099794E+03  0.28034283950E+03  0.00000000000E+00 0. -1.
</event>
<event>
 7    1  0.5854318E-006  0.7858165E+02  0.7818608E-02  0.1378618E+00
          2   -1    0    0  502    0  0.00000000000E+00  0.00000000000E+00  0.13666189943E+04  0.13666189943E+04  0.00000000000E+00 0. -1.
          1   -1    0    0  501    0 -0.00000000000E+00 -0.00000000000E+00 -0.17946291804E+03  0.17946291804E+03  0.00000000000E+00 0. -1.
         25    2    1    2    0    0  0.10224793968E+03  0.76200260654E+02  0.45963983204E+03  0.49309759574E+03  0.12496136538E+03 0.  0.
          2    1    1    2  501    0 -0.42239555244E+02 -0.32805181622E+02 -0.15674984765E+03  0.16562268777E+03  0.00000000000E+00 0. -1.
          1    1    1    2  502    0 -0.60008384434E+02 -0.43395079032E+02  0.88426609185E+03  0.88736162881E+03  0.00000000000E+00 0. -1.
         22    1    3    3    0    0  0.17817098488E+02  0.25282797358E+02  0.32365873112E+03  0.32513326971E+03  0.00000000000E+00 0. -1.
         22    1    3    3    0    0  0.84430841190E+02  0.50917463296E+02  0.13598110092E+03  0.16796432603E+03  0.00000000000E+00 0. -1.
</event>
<event>
 7    1  0.5854318E-006  0.1482749E+03  0.7818608E-02  0.1358853E+00
          2   -1    0    0  502    0  0.00000000000E+00  0.00000000000E+00  0.85654538054E+03  0.85654538054E+03  0.00000000000E+00 0. -1.
          1   -1    0    0  501    0 -0.00000000000E+00 -0.00000000000E+00 -0.54645787861E+03  0.54645787861E+03  0.00000000000E+00 0. -1.
         25    2    1    2    0    0 -0.94054327940E+02 -0.74076005221E+02  0.11594019910E+03  0.20832750084E+03  0.12499898674E+03 0.  0.
          2    1    1    2  501    0  0.10820358972E+03  0.10432324236E+03 -0.48855720467E+03  0.51115506254E+03  0.00000000000E+00 0. -1.
          1    1    1    2  502    0 -0.14149261775E+02 -0.30247237140E+02  0.68270450751E+03  0.68352069576E+03  0.00000000000E+00 0. -1.
         22    1    3    3    0    0 -0.64440779843E+02 -0.72552886275E+02  0.13986164359E+03  0.17022871309E+03  0.00000000000E+00 0.  1.
         22    1    3    3    0    0 -0.29613548098E+02 -0.15231189466E+01 -0.23921444482E+02  0.38098787755E+02  0.00000000000E+00 0.  1.
</event>
<event>
 7    1  0.5854318E-006  0.1013163E+03  0.7818608E-02  0.1338555E+00
          2   -1    0    0  502    0  0.00000000000E+00  0.00000000000E+00  0.23785736564E+03  0.23785736564E+03  0.00000000000E+00 0. -1.
          1   -1    0    0  501    0 -0.00000000000E+00 -0.00000000000E+00 -0.67999580151E+03  0.67999580151E+03  0.00000000000E+00 0. -1.
         25    2    1    2    0    0  0.73267652633E+02 -0.14124577897E+02 -0.23516652880E+03  0.27657885184E+03  0.12499964959E+03 0.  0.
          2    1    1    2  501    0  0.21984102065E+02  0.53813379969E+02 -0.40969559597E+03  0.41379905989E+03  0.00000000000E+00 0. -1.
          1    1    1    2  502    0 -0.95251754698E+02 -0.39688802072E+02  0.20272368891E+03  0.22747525542E+03  0.00000000000E+00 0. -1.
         22    1    3    3    0    0 -0.29129373946E+02  0.17818976907E+02 -0.88617589768E+02  0.94969013793E+02  0.00000000000E+00 0.  1.
         22    1    3    3    0    0  0.10239702658E+03 -0.31943554804E+02 -0.14654893903E+03  0.18160983805E+03  0.00000000000E+00 0.  1.
</event>
<event>
 7    1  0.6004502E-006  0.9501394E+02  0.7818608E-02  0.1351665E+00
          2   -1    0    0  502    0  0.00000000000E+00  0.00000000000E+00  0.73778189192E+03  0.73778189192E+03  0.00000000000E+00 0. -1.
          1   -1    0    0  501    0 -0.00000000000E+00 -0.00000000000E+00 -0.33278101477E+04  0.33278101477E+04  0.00000000000E+00 0. -1.
         25    2    1    2    0    0 -0.14610692411E+03 -0.25642285451E+02 -0.58521959659E+03  0.61653207489E+03  0.12500025224E+03 0.  0.
          2    1    1    2  501    0  0.51512362467E+02  0.20335403639E+02 -0.27235440035E+04  0.27241070080E+04  0.00000000000E+00 0. -1.
          1    1    1    2  502    0  0.94594561640E+02  0.53068818118E+01  0.71873534438E+03  0.72495295665E+03  0.00000000000E+00 0. -1.
         22    1    3    3    0    0 -0.16688283893E+03 -0.12229386752E+02 -0.47621473465E+03  0.50475728160E+03  0.00000000000E+00 0.  1.
         22    1    3    3    0    0  0.20775914824E+02 -0.13412898699E+02 -0.10900486194E+03  0.11177479329E+03  0.00000000000E+00 0.  1.
</event>
<event>
 7    1  0.5854318E-006  0.4938458E+02  0.7818608E-02  0.1481870E+00
          2   -1    0    0  502    0  0.00000000000E+00  0.00000000000E+00  0.16453634716E+04  0.16453634716E+04  0.00000000000E+00 0. -1.
          1   -1    0    0  501    0 -0.00000000000E+00 -0.00000000000E+00 -0.56048113762E+02  0.56048113762E+02  0.00000000000E+00 0. -1.
         25    2    1    2    0    0 -0.10059107071E+01 -0.22524268465E+02  0.59326684537E+03  0.60671151664E+03  0.12499984031E+03 0.  0.
          2    1    1    2  501    0  0.38768318075E+02  0.31760835101E+02 -0.36134388545E+02  0.61785331335E+02  0.00000000000E+00 0. -1.
          1    1    1    2  502    0 -0.37762407368E+02 -0.92365666360E+01  0.10321829010E+04  0.10329147373E+04  0.00000000000E+00 0. -1.
         22    1    3    3    0    0  0.41604881746E+01 -0.29215890005E+02  0.25849041454E+02  0.39230738391E+02  0.00000000000E+00 0. -1.
         22    1    3    3    0    0 -0.51663988817E+01  0.66916215404E+01  0.56741780392E+03  0.56748077825E+03  0.00000000000E+00 0. -1.
</event>
<event>
 7    1  0.5854318E-006  0.4278014E+02  0.7818608E-02  0.1597889E+00
          2   -1    0    0  502    0  0.00000000000E+00  0.00000000000E+00  0.11779742177E+04  0.11779742177E+04  0.00000000000E+00 0. -1.
          1   -1    0    0  501    0 -0.00000000000E+00 -0.00000000000E+00 -0.88449317422E+02  0.88449317422E+02  0.00000000000E+00 0. -1.
         25    2    1    2    0    0  0.25365995445E+02  0.22823229991E+01 -0.20115188287E+02  0.12914444252E+03  0.12500009404E+03 0.  0.
          2    1    1    2  501    0  0.15957590415E+02 -0.13748195590E+02 -0.51344769588E+01  0.21679954508E+02  0.00000000000E+00 0. -1.
          1    1    1    2  502    0 -0.41323585860E+02  0.11465872591E+02  0.11147745656E+04  0.11155991381E+04  0.00000000000E+00 0. -1.
         22    1    3    3    0    0  0.40792686335E+02  0.47709267047E+02  0.20762784444E+02  0.66115887943E+02  0.00000000000E+00 0.  1.
         22    1    3    3    0    0 -0.15426690890E+02 -0.45426944048E+02 -0.40877972731E+02  0.63028554576E+02  0.00000000000E+00 0.  1.
</event>
<event>
 7    1  0.5854318E-006  0.6561404E+02  0.7818608E-02  0.1509851E+00
          2   -1    0    0  502    0  0.00000000000E+00  0.00000000000E+00  0.17940915597E+02  0.17940915597E+02  0.00000000000E+00 0. -1.
          1   -1    0    0  501    0 -0.00000000000E+00 -0.00000000000E+00 -0.98578411803E+03  0.98578411803E+03  0.00000000000E+00 0. -1.
         25    2    1    2    0    0 -0.55703043998E+02  0.55925807041E+02 -0.37219116369E+03  0.40047610241E+03  0.12499728505E+03 0.  0.
          2    1    1    2  501    0  0.22371394564E+02 -0.90036659810E+01 -0.35467052867E+03  0.35548942206E+03  0.00000000000E+00 0. -1.
          1    1    1    2  502    0  0.33331649434E+02 -0.46922141060E+02 -0.24098151008E+03  0.24775950916E+03  0.00000000000E+00 0. -1.
         22    1    3    3    0    0 -0.33838800791E+01  0.85870121058E+02 -0.18897004144E+03  0.20759288258E+03  0.00000000000E+00 0.  1.
         22    1    3    3    0    0 -0.52319163919E+02 -0.29944314017E+02 -0.18322112225E+03  0.19288321983E+03  0.00000000000E+00 0.  1.
</event>
<event>
 7    1  0.5854318E-006  0.2243943E+03  0.7818608E-02  0.1150141E+00
          2   -1    0    0  502    0  0.00000000000E+00  0.00000000000E+00  0.75623497359E+03  0.75623497359E+03  0.00000000000E+00 0. -1.
          1   -1    0    0  501    0 -0.00000000000E+00 -0.00000000000E+00 -0.41908341028E+03  0.41908341028E+03  0.00000000000E+00 0. -1.
         25    2    1    2    0    0 -0.87796028202E+02 -0.12194708101E+03 -0.60394070436E+02  0.20457691176E+03  0.12500014378E+03 0.  0.
          2    1    1    2  501    0  0.15135369194E+03  0.28758114167E+03 -0.17656392475E+03  0.36984547128E+03  0.00000000000E+00 0. -1.
          1    1    1    2  502    0 -0.63557663734E+02 -0.16563406065E+03  0.57410955849E+03  0.60089600083E+03  0.00000000000E+00 0. -1.
         22    1    3    3    0    0 -0.74335615174E+02 -0.49743872603E+01 -0.41637887285E+02  0.85347770149E+02  0.00000000000E+00 0. -1.
         22    1    3    3    0    0 -0.13460413028E+02 -0.11697269375E+03 -0.18756183152E+02  0.11922914161E+03  0.00000000000E+00 0. -1.
</event>
<event>
 7    1  0.5854318E-006  0.7863496E+02  0.7818608E-02  0.1470262E+00
          2   -1    0    0  502    0  0.00000000000E+00  0.00000000000E+00  0.57550546844E+03  0.57550546844E+03  0.00000000000E+00 0. -1.
          1   -1    0    0  501    0 -0.00000000000E+00 -0.00000000000E+00 -0.32384517700E+03  0.32384517700E+03  0.00000000000E+00 0. -1.
         25    2    1    2    0    0 -0.30971029986E+02  0.69999780627E+02  0.62952332435E+02  0.15952111014E+03  0.12499925774E+03 0.  0.
          2    1    1    2  501    0  0.59374332601E+01 -0.78732275568E+02 -0.26951395768E+03  0.28084123222E+03  0.00000000000E+00 0. -1.
          1    1    1    2  502    0  0.25033596726E+02  0.87324949410E+01  0.45822191669E+03  0.45898830308E+03  0.00000000000E+00 0. -1.
         22    1    3    3    0    0 -0.15399912344E+02 -0.31805143521E+02 -0.56350378775E+01  0.35783768758E+02  0.00000000000E+00 0. -1.
         22    1    3    3    0    0 -0.15571117642E+02  0.10180492415E+03  0.68587370313E+02  0.12373734138E+03  0.00000000000E+00 0. -1.
</event>
<event>
 7    1  0.5854318E-006  0.9888787E+02  0.7818608E-02  0.1321073E+00
          2   -1    0    0  502    0  0.00000000000E+00  0.00000000000E+00  0.31983158644E+02  0.31983158644E+02  0.00000000000E+00 0. -1.
          1   -1    0    0  501    0 -0.00000000000E+00 -0.00000000000E+00 -0.21550769390E+04  0.21550769390E+04  0.00000000000E+00 0. -1.
         25    2    1    2    0    0  0.12669670780E+03 -0.23741300619E+01 -0.50536428138E+03  0.53579473823E+03  0.12500100943E+03 0.  0.
          2    1    1    2  501    0 -0.45528642266E+02  0.52461461150E+02 -0.14911871296E+04  0.14928041123E+04  0.00000000000E+00 0. -1.
          1    1    1    2  502    0 -0.81168065535E+02 -0.50087331088E+02 -0.12654236944E+03  0.15846124719E+03  0.00000000000E+00 0. -1.
         22    1    3    3    0    0  0.27981071353E+02 -0.28238472749E+02 -0.30545189261E+02  0.50133424820E+02  0.00000000000E+00 0. -1.
         22    1    3    3    0    0  0.98715636448E+02  0.25864342687E+02 -0.47481909212E+03  0.48566131341E+03  0.00000000000E+00 0. -1.
</event>
<event>
 7    1  0.6078699E-006  0.3294627E+02  0.7818608E-02  0.1594383E+00
          2   -1    0    0  502    0  0.00000000000E+00  0.00000000000E+00  0.11656669657E+04  0.11656669657E+04  0.00000000000E+00 0. -1.
          1   -1    0    0  501    0 -0.00000000000E+00 -0.00000000000E+00 -0.12872769162E+04  0.12872769162E+04  0.00000000000E+00 0. -1.
         25    2    1    2    0    0  0.19104254505E+01  0.18210825138E+02 -0.55996176727E+03  0.57403554254E+03  0.12499735763E+03 0.  0.
          2    1    1    2  501    0 -0.27856399371E+02  0.21090198600E+01 -0.71977289363E+03  0.72031482377E+03  0.00000000000E+00 0. -1.
          1    1    1    2  502    0  0.25945973920E+02 -0.20319844998E+02  0.11581247104E+04  0.11585935156E+04  0.00000000000E+00 0. -1.
         22    1    3    3    0    0  0.52054198753E+02 -0.81117434905E+01 -0.12860933975E+03  0.13898130184E+03  0.00000000000E+00 0.  1.
         22    1    3    3    0    0 -0.50143773302E+02  0.26322568629E+02 -0.43135242753E+03  0.43505424070E+03  0.00000000000E+00 0.  1.
</event>
<event>
 7    1  0.5854318E-006  0.2271235E+03  0.7818608E-02  0.1314743E+00
          2   -1    0    0  502    0  0.00000000000E+00  0.00000000000E+00  0.32640514263E+04  0.32640514263E+04  0.00000000000E+00 0. -1.
          1   -1    0    0  501    0 -0.00000000000E+00 -0.00000000000E+00 -0.25326131545E+03  0.25326131545E+03  0.00000000000E+00 0. -1.
         25    2    1    2    0    0 -0.11620678040E+03  0.18939113950E+03  0.10999124827E+03  0.27766139539E+03  0.12499902505E+03 0.  0.
          2    1    1    2  501    0  0.25573897923E+02  0.19249795007E+02 -0.16366021754E+03  0.16676104362E+03  0.00000000000E+00 0. -1.
          1    1    1    2  502    0  0.90632882476E+02 -0.20864093451E+03  0.30644590801E+04  0.30728903027E+04  0.00000000000E+00 0. -1.
         22    1    3    3    0    0 -0.11747751788E+03  0.20503017483E+03  0.11259615594E+03  0.26175605844E+03  0.00000000000E+00 0. -1.
         22    1    3    3    0    0  0.12707374833E+01 -0.15639035325E+02 -0.26049076671E+01  0.15905336953E+02  0.00000000000E+00 0. -1.
</event>
<event>
 7    1  0.5854318E-006  0.3434806E+02  0.7818608E-02  0.1596750E+00
          2   -1    0    0  502    0  0.00000000000E+00  0.00000000000E+00  0.92683703632E+03  0.92683703632E+03  0.00000000000E+00 0. -1.
          1   -1    0    0  501    0 -0.00000000000E+00 -0.00000000000E+00 -0.33486860406E+03  0.33486860406E+03  0.00000000000E+00 0. -1.
         25    2    1    2    0    0 -0.16095199614E+02 -0.12166049505E+02 -0.14864126972E+03  0.19525777876E+03  0.12499721953E+03 0.  0.
          2    1    1    2  501    0  0.14348295331E+02 -0.22178328018E+02 -0.16151861676E+03  0.16366433751E+03  0.00000000000E+00 0. -1.
          1    1    1    2  502    0  0.17469042830E+01  0.34344377524E+02  0.90212831874E+03  0.90278352412E+03  0.00000000000E+00 0. -1.
         22    1    3    3    0    0  0.29641386596E+02 -0.55686696024E+02 -0.82016608128E+02  0.10347146429E+03  0.00000000000E+00 0.  1.
         22    1    3    3    0    0 -0.45736586210E+02  0.43520646519E+02 -0.66624661594E+02  0.91786314471E+02  0.00000000000E+00 0.  1.
</event>
<event>
 7    1  0.5854318E-006  0.4682168E+02  0.7818608E-02  0.1473486E+00
          2   -1    0    0  502    0  0.00000000000E+00  0.00000000000E+00  0.20143122245E+03  0.20143122245E+03  0.00000000000E+00 0. -1.
          1   -1    0    0  501    0 -0.00000000000E+00 -0.00000000000E+00 -0.26759284839E+04  0.26759284839E+04  0.00000000000E+00 0. -1.
         25    2    1    2    0    0  0.44629679667E+02  0.39360577894E+02 -0.84173736429E+03  0.85304723875E+03  0.12500695060E+03 0.  0.
          2    1    1    2  501    0 -0.46899465579E+02  0.40937894832E+01 -0.18258111552E+04  0.18264179953E+04  0.00000000000E+00 0. -1.
          1    1    1    2  502    0  0.22697859120E+01 -0.43454367377E+02  0.19305125801E+03  0.19789447236E+03  0.00000000000E+00 0. -1.
         22    1    3    3    0    0  0.23099849899E+02 -0.24066293083E+02 -0.61709392630E+02  0.70148689701E+02  0.00000000000E+00 0. -1.
         22    1    3    3    0    0  0.21529829768E+02  0.63426870976E+02 -0.78002797166E+03  0.78289854905E+03  0.00000000000E+00 0. -1.
</event>
<event>
 7    1  0.5854318E-006  0.1309248E+03  0.7818608E-02  0.1323700E+00
          2   -1    0    0  502    0  0.00000000000E+00  0.00000000000E+00  0.12312092717E+04  0.12312092717E+04  0.00000000000E+00 0. -1.
          1   -1    0    0  501    0 -0.00000000000E+00 -0.00000000000E+00 -0.10106351059E+03  0.10106351059E+03  0.00000000000E+00 0. -1.
         25    2    1    2    0    0 -0.67357266314E+02 -0.58433357482E+02  0.43173416934E+03  0.45822575899E+03  0.12499997854E+03 0.  0.
          2    1    1    2  501    0  0.11761707516E+03  0.68473415610E+02 -0.33648570277E+02  0.14019490468E+03  0.00000000000E+00 0. -1.
          1    1    1    2  502    0 -0.50259808850E+02 -0.10040058129E+02  0.73206016208E+03  0.73385211866E+03  0.00000000000E+00 0. -1.
         22    1    3    3    0    0 -0.46468290280E+02 -0.74907578530E+02  0.14106961434E+03  0.16634627562E+03  0.00000000000E+00 0.  1.
         22    1    3    3    0    0 -0.20888976034E+02  0.16474221048E+02  0.29066455500E+03  0.29187948337E+03  0.00000000000E+00 0.  1.
</event>
<event>
 7    1  0.5854318E-006  0.3466769E+02  0.7818608E-02  0.1611110E+00
          2   -1    0    0  502    0  0.00000000000E+00  0.00000000000E+00  0.10133607819E+04  0.10133607819E+04  0.00000000000E+00 0. -1.
          1   -1    0    0  501    0 -0.00000000000E+00 -0.00000000000E+00 -0.12272346939E+03  0.12272346939E+03  0.00000000000E+00 0. -1.
         25    2    1    2    0    0 -0.26733791011E+02 -0.13388087634E+02  0.12773356960E+03  0.18120537217E+03  0.12500234249E+03 0.  0.
          2    1    1    2  501    0 -0.67334644017E+01  0.23052417113E+02 -0.94126028297E+02  0.97141457064E+02  0.00000000000E+00 0. -1.
          1    1    1    2  502    0  0.33467255413E+02 -0.96643294789E+01  0.85702977121E+03  0.85773742205E+03  0.00000000000E+00 0. -1.
         22    1    3    3    0    0 -0.15874257850E+02 -0.43318335376E+02 -0.34013002569E+01  0.46260556476E+02  0.00000000000E+00 0.  1.
         22    1    3    3    0    0 -0.10859533161E+02  0.29930247741E+02  0.13113486986E+03  0.13494481569E+03  0.00000000000E+00 0.  1.
</event>
<event>
 7    1  0.5854318E-006  0.2181892E+03  0.7818608E-02  0.1192652E+00
          2   -1    0    0  502    0  0.00000000000E+00  0.00000000000E+00  0.15878919784E+04  0.15878919784E+04  0.00000000000E+00 0. -1.
          1   -1    0    0  501    0 -0.00000000000E+00 -0.00000000000E+00 -0.40275591454E+03  0.40275591454E+03  0.00000000000E+00 0. -1.
         25    2    1    2    0    0  0.30576266791E+02  0.14915456765E+03 -0.64040047850E+02  0.20714163690E+03  0.12499814746E+03 0.  0.
          2    1    1    2  501    0 -0.91101947245E+02  0.65696593666E+02 -0.24670128196E+03  0.27106665183E+03  0.00000000000E+00 0. -1.
          1    1    1    2  502    0  0.60525680454E+02 -0.21485116131E+03  0.14958773937E+04  0.15124396042E+04  0.00000000000E+00 0. -1.
         22    1    3    3    0    0  0.35741312948E+02  0.16904835959E+02 -0.63484776666E+02  0.74789917759E+02  0.00000000000E+00 0.  1.
         22    1    3    3    0    0 -0.51650461575E+01  0.13224973169E+03 -0.55527118379E+00  0.13235171914E+03  0.00000000000E+00 0.  1.
</event>
<event>
 7    1  0.5854318E-006  0.1153358E+03  0.7818608E-02  0.1289939E+00
          2   -1    0    0  502    0  0.00000000000E+00  0.00000000000E+00  0.17700661731E+04  0.17700661731E+04  0.00000000000E+00 0. -1.
          1   -1    0    0  501    0 -0.00000000000E+00 -0.00000000000E+00 -0.24697513878E+03  0.24697513878E+03  0.00000000000E+00 0. -1.
         25    2    1    2    0    0  0.12155533568E+03  0.68881996925E+02 -0.67719742471E+02  0.19930894490E+03  0.12497064802E+03 0.  0.
          2    1    1    2  501    0 -0.49045217386E+02 -0.10064122971E+03 -0.84679289776E+02  0.14037333288E+03  0.00000000000E+00 0. -1.
          1    1    1    2  502    0 -0.72510118292E+02  0.31759232783E+02  0.16754900666E+04  0.16773590341E+04  0.00000000000E+00 0. -1.
         22    1    3    3    0    0  0.96362993050E+02  0.38865387971E+02 -0.10319955850E+03  0.14644621431E+03  0.00000000000E+00 0. -1.
         22    1    3    3    0    0  0.25192342627E+02  0.30016608954E+02  0.35479816027E+02  0.52862730591E+02  0.00000000000E+00 0. -1.
</event>
<event>
 7    1  0.5854318E-006  0.5526593E+02  0.7818608E-02  0.1495985E+00
          2   -1    0    0  502    0  0.00000000000E+00  0.00000000000E+00  0.48226320257E+03  0.48226320257E+03  0.00000000000E+00 0. -1.
          1   -1    0    0  501    0 -0.00000000000E+00 -0.00000000000E+00 -0.10037431915E+04  0.10037431915E+04  0.00000000000E+00 0. -1.
         25    2    1    2    0    0  0.47663952440E+02  0.35479131827E+02  0.49982107483E+02  0.14715241899E+03  0.12500000875E+03 0.  0.
          2    1    1    2  501    0 -0.27104833538E+02  0.16011248320E+02 -0.95289389626E+03  0.95341376621E+03  0.00000000000E+00 0. -1.
          1    1    1    2  502    0 -0.20559118903E+02 -0.51490380148E+02  0.38143179989E+03  0.38544020883E+03  0.00000000000E+00 0. -1.
         22    1    3    3    0    0  0.90236263124E+02  0.27811532759E+02  0.41153993961E+02  0.10300347448E+03  0.00000000000E+00 0. -1.
         22    1    3    3    0    0 -0.42572310684E+02  0.76675990685E+01  0.88281135227E+01  0.44148944504E+02  0.00000000000E+00 0. -1.
</event>
<event>
 7    1  0.5854318E-006  0.2632338E+02  0.7818608E-02  0.1673030E+00
          2   -1    0    0  502    0  0.00000000000E+00  0.00000000000E+00  0.12280374367E+03  0.12280374367E+03  0.00000000000E+00 0. -1.
          1   -1    0    0  501    0 -0.00000000000E+00 -0.00000000000E+00 -0.15843779843E+04  0.15843779843E+04  0.00000000000E+00 0. -1.
         25    2    1    2    0    0 -0.15629368035E+02 -0.12732951796E+02 -0.51233008856E+02  0.13658850435E+03  0.12500077246E+03 0.  0.
          2    1    1    2  501    0  0.25349183258E+02 -0.72435058644E+01 -0.14888084109E+04  0.14890418174E+04  0.00000000000E+00 0. -1.
          1    1    1    2  502    0 -0.97198152228E+01  0.19976457660E+02  0.78467179117E+02  0.81551406285E+02  0.00000000000E+00 0. -1.
         22    1    3    3    0    0 -0.19779480798E+00  0.21455973076E+02 -0.84052117045E+02  0.86747658661E+02  0.00000000000E+00 0.  1.
         22    1    3    3    0    0 -0.15431573227E+02 -0.34188924872E+02  0.32819108189E+02  0.49840845684E+02  0.00000000000E+00 0.  1.
</event>
<event>
 7    1  0.5854318E-006  0.1109257E+03  0.7818608E-02  0.1456855E+00
          2   -1    0    0  502    0  0.00000000000E+00  0.00000000000E+00  0.17113547653E+04  0.17113547653E+04  0.00000000000E+00 0. -1.
          1   -1    0    0  501    0 -0.00000000000E+00 -0.00000000000E+00 -0.18422581010E+03  0.18422581010E+03  0.00000000000E+00 0. -1.
         25    2    1    2    0    0  0.57318698362E+02  0.11520902495E+03  0.24038995078E+03  0.29995062614E+03  0.12499798827E+03 0.  0.
          2    1    1    2  501    0 -0.55507913664E+02 -0.94580900151E+02 -0.13489305144E+03  0.17384708936E+03  0.00000000000E+00 0. -1.
          1    1    1    2  502    0 -0.18107846987E+01 -0.20628124800E+02  0.14216320558E+04  0.14217828599E+04  0.00000000000E+00 0. -1.
         22    1    3    3    0    0  0.41227407455E+02  0.13009725335E+03  0.13377092846E+03  0.19110116629E+03  0.00000000000E+00 0. -1.
         22    1    3    3    0    0  0.16091290907E+02 -0.14888228404E+02  0.10661902233E+03  0.10884945985E+03  0.00000000000E+00 0. -1.
</event>
<event>
 7    1  0.5854318E-006  0.2778632E+02  0.7818608E-02  0.1680964E+00
          2   -1    0    0  502    0  0.00000000000E+00  0.00000000000E+00  0.69898196639E+03  0.69898196639E+03  0.00000000000E+00 0. -1.
          1   -1    0    0  501    0 -0.00000000000E+00 -0.00000000000E+00 -0.26860596218E+03  0.26860596218E+03  0.00000000000E+00 0. -1.
         25    2    1    2    0    0 -0.23986021866E+02 -0.55537954220E+01  0.15554561314E+03  0.20106498020E+03  0.12500605829E+03 0.  0.
          2    1    1    2  501    0  0.14868607149E+02  0.23527122628E+02 -0.24486264915E+03  0.24643927838E+03  0.00000000000E+00 0. -1.
          1    1    1    2  502    0  0.91174147171E+01 -0.17973327206E+02  0.51969304022E+03  0.52008366999E+03  0.00000000000E+00 0. -1.
         22    1    3    3    0    0  0.26483849541E+02 -0.32173072126E+02  0.13357078885E+03  0.13992017900E+03  0.00000000000E+00 0. -1.
         22    1    3    3    0    0 -0.50469871407E+02  0.26619276704E+02  0.21974824286E+02  0.61144801206E+02  0.00000000000E+00 0. -1.
</event>
<event>
 7    1  0.5854318E-006  0.9460646E+02  0.7818608E-02  0.1432299E+00
          2   -1    0    0  502    0  0.00000000000E+00  0.00000000000E+00  0.28996610358E+02  0.28996610358E+02  0.00000000000E+00 0. -1.
          1   -1    0    0  501    0 -0.00000000000E+00 -0.00000000000E+00 -0.19788584698E+04  0.19788584698E+04  0.00000000000E+00 0. -1.
         25    2    1    2    0    0  0.73645819835E+02  0.35114239197E+02 -0.29704600057E+03  0.33245229716E+03  0.12502594473E+03 0.  0.
          2    1    1    2  501    0 -0.94706812735E+02 -0.14982250209E+02 -0.16412616723E+04  0.16440601342E+04  0.00000000000E+00 0. -1.
          1    1    1    2  502    0  0.21060992900E+02 -0.20131988987E+02 -0.11554186609E+02  0.31342648751E+02  0.00000000000E+00 0. -1.
         22    1    3    3    0    0 -0.31880030902E+02  0.21271877899E+02 -0.46637763806E+02  0.60364809057E+02  0.00000000000E+00 0.  1.
         22    1    3    3    0    0  0.10552585074E+03  0.13842361298E+02 -0.25040823677E+03  0.27208748810E+03  0.00000000000E+00 0.  1.
</event>
<event>
 7    1  0.5854318E-006  0.1471080E+03  0.7818608E-02  0.1276587E+00
          2   -1    0    0  502    0  0.00000000000E+00  0.00000000000E+00  0.42432849042E+03  0.42432849042E+03  0.00000000000E+00 0. -1.
          1   -1    0    0  501    0 -0.00000000000E+00 -0.00000000000E+00 -0.24071948207E+03  0.24071948207E+03  0.00000000000E+00 0. -1.
         25    2    1    2    0    0 -0.14248672742E+03 -0.84488107745E+02 -0.10630915565E+03  0.23316638918E+03  0.12499688247E+03 0.  0.
          2    1    1    2  501    0  0.60019283499E+02 -0.36843653750E+02 -0.32569960912E+02  0.77592342195E+02  0.00000000000E+00 0. -1.
          1    1    1    2  502    0  0.82467443920E+02  0.12133176149E+03  0.32248812492E+03  0.35428924112E+03  0.00000000000E+00 0. -1.
         22    1    3    3    0    0  0.19075494255E+02 -0.15587990829E+02 -0.36773351361E+02  0.44262165666E+02  0.00000000000E+00 0. -1.
         22    1    3    3    0    0 -0.16156222167E+03 -0.68900116915E+02 -0.69535804291E+02  0.18890422351E+03  0.00000000000E+00 0. -1.
</event>
<event>
 7    1  0.5854318E-006  0.6868405E+02  0.7818608E-02  0.1389982E+00
          2   -1    0    0  502    0  0.00000000000E+00  0.00000000000E+00  0.15538978305E+04  0.15538978305E+04  0.00000000000E+00 0. -1.
          1   -1    0    0  501    0 -0.00000000000E+00 -0.00000000000E+00 -0.72484773877E+02  0.72484773877E+02  0.00000000000E+00 0. -1.
         25    2    1    2    0    0  0.35917877368E+02 -0.55122944482E+02  0.71048287036E+03  0.72438923651E+03  0.12500089589E+03 0.  0.
          2    1    1    2  501    0  0.18659409826E+02  0.66769272971E+02 -0.45973474325E+02  0.83185754367E+02  0.00000000000E+00 0. -1.
          1    1    1    2  502    0 -0.54577287195E+02 -0.11646328489E+02  0.81690366054E+03  0.81880761345E+03  0.00000000000E+00 0. -1.
         22    1    3    3    0    0  0.47707042012E+02  0.29611130455E+01  0.97896846712E+02  0.10894274939E+03  0.00000000000E+00 0. -1.
         22    1    3    3    0    0 -0.11789164644E+02 -0.58084057527E+02  0.61258602365E+03  0.61544648712E+03  0.00000000000E+00 0. -1.
</event>
<event>
 7    1  0.5854318E-006  0.8770387E+02  0.7818608E-02  0.1362405E+00
          2   -1    0    0  502    0  0.00000000000E+00  0.00000000000E+00  0.10869846678E+04  0.10869846678E+04  0.00000000000E+00 0. -1.
          1   -1    0    0  501    0 -0.00000000000E+00 -0.00000000000E+00 -0.53145563597E+02  0.53145563597E+02  0.00000000000E+00 0. -1.
         25    2    1    2    0    0  0.24201683508E+02 -0.83210501225E+02  0.18350570631E+03  0.23834616773E+03  0.12499936969E+03 0.  0.
          2    1    1    2  501    0  0.46520505260E+02  0.28957927456E+02  0.87472458425E+01  0.55490839623E+02  0.00000000000E+00 0. -1.
          1    1    1    2  502    0 -0.70722188768E+02  0.54252573768E+02  0.84158615201E+03  0.84629322400E+03  0.00000000000E+00 0. -1.
         22    1    3    3    0    0  0.68408247218E+02 -0.62624185424E+02  0.74608998792E+02  0.11902932239E+03  0.00000000000E+00 0. -1.
         22    1    3    3    0    0 -0.44206563710E+02 -0.20586315800E+02  0.10889670752E+03  0.11931684534E+03  0.00000000000E+00 0. -1.
</event>
<event>
 7    1  0.5854318E-006  0.1462308E+03  0.7818608E-02  0.1411229E+00
          2   -1    0    0  502    0  0.00000000000E+00  0.00000000000E+00  0.24435105961E+03  0.24435105961E+03  0.00000000000E+00 0. -1.
          1   -1    0    0  501    0 -0.00000000000E+00 -0.00000000000E+00 -0.37710455500E+03  0.37710455500E+03  0.00000000000E+00 0. -1.
         25    2    1    2    0    0 -0.14168257796E+03 -0.86174998824E+02  0.71097000700E+02  0.21949966802E+03  0.12500094973E+03 0.  0.
          2    1    1    2  501    0  0.12135144112E+03  0.77368941944E+02 -0.28422455936E+03  0.31858393805E+03  0.00000000000E+00 0. -1.
          1    1    1    2  502    0  0.20331136841E+02  0.88060568799E+01  0.80374063263E+02  0.83372008543E+02  0.00000000000E+00 0. -1.
         22    1    3    3    0    0 -0.14614065961E+03 -0.44580163603E+02  0.20987725969E+02  0.15422375958E+03  0.00000000000E+00 0.  1.
         22    1    3    3    0    0  0.44580816486E+01 -0.41594835221E+02  0.50109274731E+02  0.65275908443E+02  0.00000000000E+00 0.  1.
</event>
<event>
 7    1  0.5854318E-006  0.1031160E+03  0.7818608E-02  0.1289222E+00
          2   -1    0    0  502    0  0.00000000000E+00  0.00000000000E+00  0.49407552048E+03  0.49407552048E+03  0.00000000000E+00 0. -1.
          1   -1    0    0  501    0 -0.00000000000E+00 -0.00000000000E+00 -0.19291560548E+03  0.19291560548E+03  0.00000000000E+00 0. -1.
         25    2    1    2    0    0  0.45099751444E+02  0.46966843793E+01  0.13949980136E+03  0.19272481728E+03  0.12500645661E+03 0.  0.
          2    1    1    2  501    0  0.86821040473E+02  0.20194339584E+02 -0.13892553466E+03  0.16506365015E+03  0.00000000000E+00 0. -1.
          1    1    1    2  502    0 -0.13192079192E+03 -0.24891023963E+02  0.30058564830E+03  0.32920265853E+03  0.00000000000E+00 0. -1.
         22    1    3    3    0    0  0.80588861173E+01 -0.57903749242E+02  0.77967949284E+02  0.97451479914E+02  0.00000000000E+00 0.  1.
         22    1    3    3    0    0  0.37040865327E+02  0.62600433621E+02  0.61531852076E+02  0.95273337370E+02  0.00000000000E+00 0.  1.
</event>
<event>
 7    1  0.5854318E-006  0.1927764E+03  0.7818608E-02  0.1382821E+00
          2   -1    0    0  502    0  0.00000000000E+00  0.00000000000E+00  0.19624957391E+03  0.19624957391E+03  0.00000000000E+00 0. -1.
          1   -1    0    0  501    0 -0.00000000000E+00 -0.00000000000E+00 -0.16688605212E+04  0.16688605212E+04  0.00000000000E+00 0. -1.
         25    2    1    2    0    0  0.17518481336E+03  0.10521140180E+03 -0.97344927150E+02  0.25857701231E+03  0.12500751397E+03 0.  0.
          2    1    1    2  501    0 -0.20953141800E+02  0.21892359292E+01 -0.14144023493E+04  0.14145592362E+04  0.00000000000E+00 0. -1.
          1    1    1    2  502    0 -0.15423167156E+03 -0.10740063773E+03  0.39136329231E+02  0.19197384656E+03  0.00000000000E+00 0. -1.
         22    1    3    3    0    0  0.12021417892E+03  0.85285719186E+02 -0.12558804241E+03  0.19364260664E+03  0.00000000000E+00 0. -1.
         22    1    3    3    0    0  0.54970634444E+02  0.19925682618E+02  0.28243115263E+02  0.64934405662E+02  0.00000000000E+00 0. -1.
</event>
<event>
 7    1  0.5854318E-006  0.8982475E+02  0.7818608E-02  0.1372505E+00
          2   -1    0    0  502    0  0.00000000000E+00  0.00000000000E+00  0.89219715080E+03  0.89219715080E+03  0.00000000000E+00 0. -1.
          1   -1    0    0  501    0 -0.00000000000E+00 -0.00000000000E+00 -0.43319454068E+03  0.43319454068E+03  0.00000000000E+00 0. -1.
         25    2    1    2    0    0  0.17783308953E+02  0.83307786299E+02  0.66381535804E+03  0.68083153669E+03  0.12499727373E+03 0.  0.
          2    1    1    2  501    0  0.31402773405E+02 -0.84292832987E+02 -0.41707831529E+03  0.42666818132E+03  0.00000000000E+00 0. -1.
          1    1    1    2  502    0 -0.49186082358E+02  0.98504668792E+00  0.21226556737E+03  0.21789197348E+03  0.00000000000E+00 0. -1.
         22    1    3    3    0    0  0.11305888157E+02  0.98891259620E+02  0.65353383675E+03  0.66107017790E+03  0.00000000000E+00 0.  1.
         22    1    3    3    0    0  0.64774207951E+01 -0.15583473321E+02  0.10281521294E+02  0.19761358785E+02  0.00000000000E+00 0.  1.
</event>
<event>
 7    1  0.5854318E-006  0.2044783E+03  0.7818608E-02  0.1331750E+00
          2   -1    0    0  502    0  0.00000000000E+00  0.00000000000E+00  0.69541456237E+03  0.69541456237E+03  0.00000000000E+00 0. -1.
          1   -1    0    0  501    0 -0.00000000000E+00 -0.00000000000E+00 -0.61093052196E+03  0.61093052196E+03  0.00000000000E+00 0. -1.
         25    2    1    2    0    0 -0.30191195924E+02 -0.17500163402E+03 -0.41414905913E+02  0.22110276141E+03  0.12503662044E+03 0.  0.
          2    1    1    2  501    0 -0.58587440370E+01 -0.29998593555E+02 -0.46126504952E+03  0.46227663407E+03  0.00000000000E+00 0. -1.
          1    1    1    2  502    0  0.36049939961E+02  0.20500022757E+03  0.58716399584E+03  0.62296568886E+03  0.00000000000E+00 0. -1.
         22    1    3    3    0    0 -0.72809961948E+02 -0.73037452231E+02 -0.39901284889E+02  0.11057971117E+03  0.00000000000E+00 0.  1.
         22    1    3    3    0    0  0.42618766024E+02 -0.10196418179E+03 -0.15136210233E+01  0.11052305024E+03  0.00000000000E+00 0.  1.
</event>
<event>
 7    1  0.5854318E-006  0.1318548E+03  0.7818608E-02  0.1235975E+00
          2   -1    0    0  502    0  0.00000000000E+00  0.00000000000E+00  0.80990229804E+03  0.80990229804E+03  0.00000000000E+00 0. -1.
          1   -1    0    0  501    0 -0.00000000000E+00 -0.00000000000E+00 -0.11509396693E+03  0.11509396693E+03  0.00000000000E+00 0. -1.
         25    2    1    2    0    0 -0.40791599270E+02  0.58903456675E+02  0.25354860560E+03  0.29162352807E+03  0.12499525967E+03 0.  0.
          2    1    1    2  501    0  0.12942683510E+03  0.38715612524E+02 -0.34706695643E+02  0.13948031767E+03  0.00000000000E+00 0. -1.
          1    1    1    2  502    0 -0.88635235826E+02 -0.97619069199E+02  0.47596642116E+03  0.49389241923E+03  0.00000000000E+00 0. -1.
         22    1    3    3    0    0 -0.73751481877E+02  0.18354584543E+02  0.21089206001E+03  0.22416875971E+03  0.00000000000E+00 0.  1.
         22    1    3    3    0    0  0.32959882607E+02  0.40548872131E+02  0.42656545593E+02  0.67454768360E+02  0.00000000000E+00 0.  1.
</event>
<event>
 7    1  0.5854318E-006  0.5683839E+02  0.7818608E-02  0.1449088E+00
          2   -1    0    0  502    0  0.00000000000E+00  0.00000000000E+00  0.15826357075E+04  0.15826357075E+04  0.00000000000E+00 0. -1.
          1   -1    0    0  501    0 -0.00000000000E+00 -0.00000000000E+00 -0.22385884744E+03  0.22385884744E+03  0.00000000000E+00 0. -1.
         25    2    1    2    0    0 -0.55737143467E+02 -0.75562329384E+02  0.79991777927E+03  0.81505197848E+03  0.12499991701E+03 0.  0.
          2    1    1    2  501    0  0.45302741353E+02  0.34072051654E+02 -0.21197435885E+03  0.21942281533E+03  0.00000000000E+00 0. -1.
          1    1    1    2  502    0  0.10434402114E+02  0.41490277729E+02  0.77083343963E+03  0.77201976111E+03  0.00000000000E+00 0. -1.
         22    1    3    3    0    0 -0.48718880588E+02 -0.74415590814E+02  0.25462795668E+03  0.26971578709E+03  0.00000000000E+00 0.  1.
         22    1    3    3    0    0 -0.70182628792E+01 -0.11467385695E+01  0.54528982259E+03  0.54533619139E+03  0.00000000000E+00 0.  1.
</event>
<event>
 7    1  0.5854318E-006  0.7432921E+02  0.7818608E-02  0.1384155E+00
          2   -1    0    0  502    0  0.00000000000E+00  0.00000000000E+00  0.97483710057E+03  0.97483710057E+03  0.00000000000E+00 0. -1.
          1   -1    0    0  501    0 -0.00000000000E+00 -0.00000000000E+00 -0.95108220917E+03  0.95108220917E+03  0.00000000000E+00 0. -1.
         25    2    1    2    0    0 -0.33139915044E+02 -0.14138854173E+02  0.10452695835E+03  0.16688008987E+03  0.12499967282E+03 0.  0.
          2    1    1    2  501    0  0.30995906538E+02  0.68147121701E+02 -0.91750903186E+03  0.92055830884E+03  0.00000000000E+00 0. -1.
          1    1    1    2  502    0  0.21440085056E+01 -0.54008267528E+02  0.83673696491E+03  0.83848091104E+03  0.00000000000E+00 0. -1.
         22    1    3    3    0    0 -0.48931890926E+02  0.37635605656E+02  0.17105611261E+02  0.64057557706E+02  0.00000000000E+00 0.  1.
         22    1    3    3    0    0  0.15791975882E+02 -0.51774459829E+02  0.87421347092E+02  0.10282253216E+03  0.00000000000E+00 0.  1.
</event>
<event>
 7    1  0.5854318E-006  0.8306079E+02  0.7818608E-02  0.1411635E+00
          2   -1    0    0  502    0  0.00000000000E+00  0.00000000000E+00  0.48726743478E+03  0.48726743478E+03  0.00000000000E+00 0. -1.
          1   -1    0    0  501    0 -0.00000000000E+00 -0.00000000000E+00 -0.21062598475E+03  0.21062598475E+03  0.00000000000E+00 0. -1.
         25    2    1    2    0    0 -0.79744209588E+02  0.10426913838E+02  0.10783069827E+03  0.18363104730E+03  0.12500017018E+03 0.  0.
          2    1    1    2  501    0  0.10152383151E+02  0.37534919116E+02 -0.16520504644E+03  0.16971932243E+03  0.00000000000E+00 0. -1.
          1    1    1    2  502    0  0.69591826436E+02 -0.47961832954E+02  0.33401579819E+03  0.34454304981E+03  0.00000000000E+00 0. -1.
         22    1    3    3    0    0 -0.76676280563E+02  0.56372910526E+02  0.97880166340E+02  0.13651990333E+03  0.00000000000E+00 0. -1.
         22    1    3    3    0    0 -0.30679290244E+01 -0.45945996688E+02  0.99505319343E+01  0.47111143968E+02  0.00000000000E+00 0. -1.
</event>
<event>
 7    1  0.5854318E-006  0.9490953E+02  0.7818608E-02  0.1324561E+00
          2   -1    0    0  502    0  0.00000000000E+00  0.00000000000E+00  0.39649417648E+03  0.39649417648E+03  0.00000000000E+00 0. -1.
          1   -1    0    0  501    0 -0.00000000000E+00 -0.00000000000E+00 -0.12300574841E+04  0.12300574841E+04  0.00000000000E+00 0. -1.
         25    2    1    2    0    0 -0.13096262927E+02 -0.54795947414E+02  0.69300015351E+02  0.15362968352E+03  0.12500191829E+03 0.  0.
          2    1    1    2  501    0  0.82940510978E+02  0.48110597008E+02 -0.11816031330E+04  0.11854871243E+04  0.00000000000E+00 0. -1.
          1    1    1    2  502    0 -0.69844248051E+02  0.66853504060E+01  0.27873981004E+03  0.28743485278E+03  0.00000000000E+00 0. -1.
         22    1    3    3    0    0  0.34548329293E+02  0.18346557625E+02  0.51281308333E+02  0.64497719479E+02  0.00000000000E+00 0.  1.
         22    1    3    3    0    0 -0.47644592220E+02 -0.73142505039E+02  0.18018707018E+02  0.89131964041E+02  0.00000000000E+00 0.  1.
</event>
<event>
 7    1  0.5854318E-006  0.5340181E+02  0.7818608E-02  0.1494280E+00
          2   -1    0    0  502    0  0.00000000000E+00  0.00000000000E+00  0.16561438261E+03  0.16561438261E+03  0.00000000000E+00 0. -1.
          1   -1    0    0  501    0 -0.00000000000E+00 -0.00000000000E+00 -0.91181520116E+02  0.91181520116E+02  0.00000000000E+00 0. -1.
         25    2    1    2    0    0 -0.26257914953E+02  0.35666940021E+02  0.31351545605E+02  0.13628309361E+03  0.12501421313E+03 0.  0.
          2    1    1    2  501    0  0.54754135655E+02 -0.19091885414E+02 -0.91933616378E+01  0.58711441459E+02  0.00000000000E+00 0. -1.
          1    1    1    2  502    0 -0.28496220702E+02 -0.16575054607E+02  0.52274678530E+02  0.61801367662E+02  0.00000000000E+00 0. -1.
         22    1    3    3    0    0  0.36952712976E+02  0.15579758875E+02  0.53046642361E+02  0.66499459762E+02  0.00000000000E+00 0. -1.
         22    1    3    3    0    0 -0.63210627929E+02  0.20087181146E+02 -0.21695096756E+02  0.69783633847E+02  0.00000000000E+00 0. -1.
</event>
<event>
 7    1  0.5854318E-006  0.1525632E+03  0.7818608E-02  0.1274131E+00
          2   -1    0    0  502    0  0.00000000000E+00  0.00000000000E+00  0.21054537451E+03  0.21054537451E+03  0.00000000000E+00 0. -1.
          1   -1    0    0  501    0 -0.00000000000E+00 -0.00000000000E+00 -0.11139472826E+04  0.11139472826E+04  0.00000000000E+00 0. -1.
         25    2    1    2    0    0  0.20061488953E+03 -0.67438484906E+00  0.57703290718E+02  0.24331577165E+03  0.12500442503E+03 0.  0.
          2    1    1    2  501    0 -0.14496543133E+03  0.42349900405E+02 -0.99318920850E+03  0.10046060393E+04  0.00000000000E+00 0. -1.
          1    1    1    2  502    0 -0.55649458197E+02 -0.41675515556E+02  0.32084009724E+02  0.76570846113E+02  0.00000000000E+00 0. -1.
         22    1    3    3    0    0  0.51411170388E+02 -0.54090802713E+02  0.37618506774E+02  0.83570780963E+02  0.00000000000E+00 0.  1.
         22    1    3    3    0    0  0.14920371914E+03  0.53416417864E+02  0.20084783943E+02  0.15974499069E+03  0.00000000000E+00 0.  1.
</event>
<event>
 7    1  0.5854318E-006  0.1651553E+03  0.7818608E-02  0.1282970E+00
          2   -1    0    0  502    0  0.00000000000E+00  0.00000000000E+00  0.50817455829E+03  0.50817455829E+03  0.00000000000E+00 0. -1.
          1   -1    0    0  501    0 -0.00000000000E+00 -0.00000000000E+00 -0.43120143347E+03  0.43120143347E+03  0.00000000000E+00 0. -1.
         25    2    1    2    0    0  0.37417502315E+02  0.10917393257E+03 -0.14990588269E+03  0.22675037572E+03  0.12499976877E+03 0.  0.
          2    1    1    2  501    0 -0.10691916998E+02  0.58055703077E+02 -0.22365478678E+03  0.23131417034E+03  0.00000000000E+00 0. -1.
          1    1    1    2  502    0 -0.26725585317E+02 -0.16722963565E+03  0.45053379430E+03  0.48131144570E+03  0.00000000000E+00 0. -1.
         22    1    3    3    0    0  0.77161705985E+02  0.10342516680E+03 -0.10378003840E+03  0.16559284516E+03  0.00000000000E+00 0.  1.
         22    1    3    3    0    0 -0.39744203670E+02  0.57487657763E+01 -0.46125844288E+02  0.61157530563E+02  0.00000000000E+00 0.  1.
</event>
<event>
 7    1  0.5854318E-006  0.1530668E+03  0.7818608E-02  0.1375769E+00
          2   -1    0    0  502    0  0.00000000000E+00  0.00000000000E+00  0.61600510010E+03  0.61600510010E+03  0.00000000000E+00 0. -1.
          1   -1    0    0  501    0 -0.00000000000E+00 -0.00000000000E+00 -0.26031720215E+04  0.26031720215E+04  0.00000000000E+00 0. -1.
         25    2    1    2    0    0  0.17185589495E+03 -0.56063015850E+02 -0.13201393329E+04  0.13383087913E+04  0.12500020846E+03 0.  0.
          2    1    1    2  501    0 -0.27516525743E+02  0.57212140205E+01 -0.12641635857E+04  0.12644759638E+04  0.00000000000E+00 0. -1.
          1    1    1    2  502    0 -0.14433936920E+03  0.50341801829E+02  0.59713599717E+03  0.61639236663E+03  0.00000000000E+00 0. -1.
         22    1    3    3    0    0  0.71739336816E+02 -0.59455379771E+02 -0.95956389112E+03  0.96407693457E+03  0.00000000000E+00 0.  1.
         22    1    3    3    0    0  0.10011655813E+03  0.33923639213E+01 -0.36057544179E+03  0.37423185670E+03  0.00000000000E+00 0.  1.
</event>
<event>
 7    1  0.5854318E-006  0.1333238E+03  0.7818608E-02  0.1396564E+00
          2   -1    0    0  502    0  0.00000000000E+00  0.00000000000E+00  0.80683195843E+03  0.80683195843E+03  0.00000000000E+00 0. -1.
          1   -1    0    0  501    0 -0.00000000000E+00 -0.00000000000E+00 -0.73467426204E+03  0.73467426204E+03  0.00000000000E+00 0. -1.
         25    2    1    2    0    0 -0.14389531215E+03 -0.57513995376E+02  0.42047499784E+01  0.19913873076E+03  0.12499933458E+03 0.  0.
          2    1    1    2  501    0  0.27007325662E+02 -0.38149115573E+01 -0.63073261894E+03  0.63132209353E+03  0.00000000000E+00 0. -1.
          1    1    1    2  502    0  0.11688798649E+03  0.61328906933E+02  0.69868556534E+03  0.71104539618E+03  0.00000000000E+00 0. -1.
         22    1    3    3    0    0 -0.96087343914E+02 -0.60794391515E+02  0.57542712583E+02  0.12743586415E+03  0.00000000000E+00 0. -1.
         22    1    3    3    0    0 -0.47807968235E+02  0.32803961387E+01 -0.53337962604E+02  0.71702866612E+02  0.00000000000E+00 0. -1.
</event>
<event>
 7    1  0.5854318E-006  0.8625753E+02  0.7818608E-02  0.1481703E+00
          2   -1    0    0  502    0  0.00000000000E+00  0.00000000000E+00  0.63421162818E+02  0.63421162818E+02  0.00000000000E+00 0. -1.
          1   -1    0    0  501    0 -0.00000000000E+00 -0.00000000000E+00 -0.52105180309E+03  0.52105180309E+03  0.00000000000E+00 0. -1.
         25    2    1    2    0    0  0.25822370364E+00 -0.90861901223E+02 -0.22516362594E+03  0.27309219862E+03  0.12499895490E+03 0.  0.
          2    1    1    2  501    0  0.20912249816E+02  0.76963504114E+01 -0.22404527283E+03  0.22515070570E+03  0.00000000000E+00 0. -1.
          1    1    1    2  502    0 -0.21170473519E+02  0.83165550812E+02 -0.84217415020E+01  0.86230061584E+02  0.00000000000E+00 0. -1.
         22    1    3    3    0    0  0.12371769994E+01 -0.98761059120E+02 -0.23817335945E+03  0.25784069996E+03  0.00000000000E+00 0. -1.
         22    1    3    3    0    0 -0.97895329575E+00  0.78991578961E+01  0.13009733515E+02  0.15251498652E+02  0.00000000000E+00 0. -1.
</event>
<event>
 7    1  0.5854318E-006  0.2307492E+03  0.7818608E-02  0.1267276E+00
          2   -1    0    0  502    0  0.00000000000E+00  0.00000000000E+00  0.19077027225E+03  0.19077027225E+03  0.00000000000E+00 0. -1.
          1   -1    0    0  501    0 -0.00000000000E+00 -0.00000000000E+00 -0.93919098367E+03  0.93919098367E+03  0.00000000000E+00 0. -1.
         25    2    1    2    0    0  0.15610479370E+03  0.17458535177E+03 -0.25269580106E+03  0.36650731322E+03  0.12499476428E+03 0.  0.
          2    1    1    2  501    0 -0.11440441607E+03 -0.20053260901E+03 -0.60288287472E+03  0.64557684154E+03  0.00000000000E+00 0. -1.
          1    1    1    2  502    0 -0.41700377632E+02  0.25947257239E+02  0.10715796437E+03  0.11787710117E+03  0.00000000000E+00 0. -1.
         22    1    3    3    0    0  0.10795465681E+03  0.29402059179E+02 -0.94479123859E+02  0.14644109347E+03  0.00000000000E+00 0. -1.
         22    1    3    3    0    0  0.48150136895E+02  0.14518329259E+03 -0.15821667720E+03  0.22006621975E+03  0.00000000000E+00 0. -1.
</event>
<event>
 7    1  0.5854318E-006  0.9719901E+02  0.7818608E-02  0.1441436E+00
          2   -1    0    0  502    0  0.00000000000E+00  0.00000000000E+00  0.15671011180E+03  0.15671011180E+03  0.00000000000E+00 0. -1.
          1   -1    0    0  501    0 -0.00000000000E+00 -0.00000000000E+00 -0.45565500564E+03  0.45565500564E+03  0.00000000000E+00 0. -1.
         25    2    1    2    0    0 -0.46924638049E+02 -0.67494913640E+02 -0.12929682943E+03  0.19773838958E+03  0.12500126236E+03 0.  0.
          2    1    1    2  501    0  0.98121736458E+01 -0.24593292422E+02 -0.27126709854E+03  0.27255631994E+03  0.00000000000E+00 0. -1.
          1    1    1    2  502    0  0.37112464403E+02  0.92088206062E+02  0.10161903413E+03  0.14207040792E+03  0.00000000000E+00 0. -1.
         22    1    3    3    0    0  0.18211724113E+01 -0.78777647178E+02 -0.12467707130E+03  0.14749103862E+03  0.00000000000E+00 0. -1.
         22    1    3    3    0    0 -0.48745810460E+02  0.11282733539E+02 -0.46197581234E+01  0.50247350962E+02  0.00000000000E+00 0. -1.
</event>
<event>
 7    1  0.5854318E-006  0.1267924E+03  0.7818608E-02  0.1373657E+00
          2   -1    0    0  502    0  0.00000000000E+00  0.00000000000E+00  0.18596703883E+04  0.18596703883E+04  0.00000000000E+00 0. -1.
          1   -1    0    0  501    0 -0.00000000000E+00 -0.00000000000E+00 -0.56068705145E+03  0.56068705145E+03  0.00000000000E+00 0. -1.
         25    2    1    2    0    0  0.12543646891E+03  0.59909341093E+02  0.12494474484E+04  0.12633584025E+04  0.12502835722E+03 0.  0.
          2    1    1    2  501    0 -0.10591000645E+02 -0.32858294619E+02 -0.54741350628E+03  0.54850103344E+03  0.00000000000E+00 0. -1.
          1    1    1    2  502    0 -0.11484546827E+03 -0.27051046475E+02  0.59694939473E+03  0.60849800375E+03  0.00000000000E+00 0. -1.
         22    1    3    3    0    0  0.65919986995E+02 -0.34693140741E+02  0.44693581588E+03  0.45310118320E+03  0.00000000000E+00 0.  1.
         22    1    3    3    0    0  0.59516481920E+02  0.94602481835E+02  0.80251163250E+03  0.81025721934E+03  0.00000000000E+00 0.  1.
</event>
<event>
 7    1  0.5854318E-006  0.1278350E+03  0.7818608E-02  0.1294766E+00
          2   -1    0    0  502    0  0.00000000000E+00  0.00000000000E+00  0.32256739939E+03  0.32256739939E+03  0.00000000000E+00 0. -1.
          1   -1    0    0  501    0 -0.00000000000E+00 -0.00000000000E+00 -0.16680312442E+03  0.16680312442E+03  0.00000000000E+00 0. -1.
         25    2    1    2    0    0 -0.94716490561E+02 -0.80544888366E+02  0.11775453289E+03  0.21201107100E+03  0.12499548626E+03 0.  0.
          2    1    1    2  501    0 -0.40257466554E+02  0.55144421953E+02 -0.73595094571E+02  0.10038829031E+03  0.00000000000E+00 0. -1.
          1    1    1    2  502    0  0.13497395712E+03  0.25400466413E+02  0.11160483666E+03  0.17697116251E+03  0.00000000000E+00 0. -1.
         22    1    3    3    0    0 -0.43432253252E+02 -0.92392507023E+02  0.24598441833E+02  0.10501342446E+03  0.00000000000E+00 0.  1.
         22    1    3    3    0    0 -0.51284237309E+02  0.11847618657E+02  0.93156091052E+02  0.10699764654E+03  0.00000000000E+00 0.  1.
</event>
<event>
 7    1  0.5854318E-006  0.1574260E+03  0.7818608E-02  0.1227825E+00
          2   -1    0    0  502    0  0.00000000000E+00  0.00000000000E+00  0.71644638264E+03  0.71644638264E+03  0.00000000000E+00 0. -1.
          1   -1    0    0  501    0 -0.00000000000E+00 -0.00000000000E+00 -0.14227427507E+04  0.14227427507E+04  0.00000000000E+00 0. -1.
         25    2    1    2    0    0 -0.94192023150E+02  0.11882478597E+02 -0.22953919615E+02  0.15861923400E+03  0.12497939208E+03 0.  0.
          2    1    1    2  501    0 -0.51223600172E+02 -0.93875701686E+02 -0.13190145445E+04  0.13233426892E+04  0.00000000000E+00 0. -1.
          1    1    1    2  502    0  0.14541562332E+03  0.81993223089E+02  0.63567209600E+03  0.65722721016E+03  0.00000000000E+00 0. -1.
         22    1    3    3    0    0 -0.30906235081E+02 -0.71140387221E+00  0.51517653901E+02  0.60081362549E+02  0.00000000000E+00 0. -1.
         22    1    3    3    0    0 -0.63285788069E+02  0.12593882469E+02 -0.74471573516E+02  0.98537871446E+02  0.00000000000E+00 0. -1.
</event>
<event>
 7    1  0.5854318E-006  0.9847614E+02  0.7818608E-02  0.1421577E+00
          2   -1    0    0  502    0  0.00000000000E+00  0.00000000000E+00  0.10925053215E+04  0.10925053215E+04  0.00000000000E+00 0. -1.
          1   -1    0    0  501    0 -0.00000000000E+00 -0.00000000000E+00 -0.58027567105E+02  0.58027567105E+02  0.00000000000E+00 0. -1.
         25    2    1    2    0    0  0.10534055547E+03 -0.39839058653E+02  0.22419593337E+03  0.28030982703E+03  0.12500399740E+03 0.  0.
          2    1    1    2  501    0 -0.25705633320E+02 -0.16175332275E+02 -0.18618703799E+02  0.35624108266E+02  0.00000000000E+00 0. -1.
          1    1    1    2  502    0 -0.79634922154E+02  0.56014390928E+02  0.82890052486E+03  0.83459895335E+03  0.00000000000E+00 0. -1.
         22    1    3    3    0    0 -0.12099496278E+02  0.29353112921E+02  0.37185860772E+02  0.48895718521E+02  0.00000000000E+00 0. -1.
         22    1    3    3    0    0  0.11744005175E+03 -0.69192171574E+02  0.18701007260E+03  0.23141410851E+03  0.00000000000E+00 0. -1.
</event>
<event>
 7    1  0.5854318E-006  0.3044731E+02  0.7818608E-02  0.1594813E+00
          2   -1    0    0  502    0  0.00000000000E+00  0.00000000000E+00  0.38964558708E+04  0.38964558708E+04  0.00000000000E+00 0. -1.
          1   -1    0    0  501    0 -0.00000000000E+00 -0.00000000000E+00 -0.16914476757E+03  0.16914476757E+03  0.00000000000E+00 0. -1.
         25    2    1    2    0    0 -0.98768362458E+00 -0.58124887938E+00  0.21050981931E+04  0.21088063679E+04  0.12499832586E+03 0.  0.
          2    1    1    2  501    0  0.22485110758E+02 -0.20558868333E+02 -0.16577535302E+03  0.16855181678E+03  0.00000000000E+00 0. -1.
          1    1    1    2  502    0 -0.21497427133E+02  0.21140117212E+02  0.17879882631E+04  0.17882424536E+04  0.00000000000E+00 0. -1.
         22    1    3    3    0    0 -0.73405606789E+01  0.23754159479E+02  0.85247695318E+02  0.88799287614E+02  0.00000000000E+00 0. -1.
         22    1    3    3    0    0  0.63528770543E+01 -0.24335408359E+02  0.20198504978E+04  0.20200070803E+04  0.00000000000E+00 0. -1.
</event>
<event>
 7    1  0.5854318E-006  0.3578115E+03  0.7818608E-02  0.1194328E+00
          2   -1    0    0  502    0  0.00000000000E+00  0.00000000000E+00  0.10994996415E+04  0.10994996415E+04  0.00000000000E+00 0. -1.
          1   -1    0    0  501    0 -0.00000000000E+00 -0.00000000000E+00 -0.32795994049E+03  0.32795994049E+03  0.00000000000E+00 0. -1.
         25    2    1    2    0    0 -0.32936458378E+03 -0.12359270386E+03  0.37435049811E+03  0.52869536789E+03  0.12499724434E+03 0.  0.
          2    1    1    2  501    0  0.35563934141E+03  0.61696734436E+02 -0.11758187816E+03  0.37961997613E+03  0.00000000000E+00 0. -1.
          1    1    1    2  502    0 -0.26274757634E+02  0.61895969421E+02  0.51477108111E+03  0.51914423801E+03  0.00000000000E+00 0. -1.
         22    1    3    3    0    0 -0.11935950253E+03 -0.31585220373E+02  0.54021704828E+02  0.13476891920E+03  0.00000000000E+00 0. -1.
         22    1    3    3    0    0 -0.21000508125E+03 -0.92007483484E+02  0.32032879329E+03  0.39392644869E+03  0.00000000000E+00 0. -1.
</event>
<event>
 7    1  0.5854318E-006  0.6632773E+02  0.7818608E-02  0.1467473E+00
          2   -1    0    0  502    0  0.00000000000E+00  0.00000000000E+00  0.10052052522E+03  0.10052052522E+03  0.00000000000E+00 0. -1.
          1   -1    0    0  501    0 -0.00000000000E+00 -0.00000000000E+00 -0.15378132269E+04  0.15378132269E+04  0.00000000000E+00 0. -1.
         25    2    1    2    0    0 -0.42677201469E+02  0.63848823290E+02 -0.50590480361E+03  0.52674536962E+03  0.12499199314E+03 0.  0.
          2    1    1    2  501    0  0.56019828129E+02 -0.34688594655E+02 -0.10175350972E+04  0.10196662168E+04  0.00000000000E+00 0. -1.
          1    1    1    2  502    0 -0.13342626660E+02 -0.29160228635E+02  0.86147199127E+02  0.91922165649E+02  0.00000000000E+00 0. -1.
         22    1    3    3    0    0  0.30578538384E+02  0.64114985192E+02 -0.29672612537E+03  0.30511009786E+03  0.00000000000E+00 0. -1.
         22    1    3    3    0    0 -0.73255739853E+02 -0.26616190178E+00 -0.20917867823E+03  0.22163527176E+03  0.00000000000E+00 0. -1.
</event>
<event>
 7    1  0.5854318E-006  0.1298582E+03  0.7818608E-02  0.1317491E+00
          2   -1    0    0  502    0  0.00000000000E+00  0.00000000000E+00  0.80522149790E+03  0.80522149790E+03  0.00000000000E+00 0. -1.
          1   -1    0    0  501    0 -0.00000000000E+00 -0.00000000000E+00 -0.13262876730E+04  0.13262876730E+04  0.00000000000E+00 0. -1.
         25    2    1    2    0    0  0.12713623946E+03  0.10251978436E+03 -0.82334449812E+02  0.22153411250E+03  0.12499788720E+03 0.  0.
          2    1    1    2  501    0 -0.72628770969E+02 -0.10599928561E+03 -0.11698167743E+04  0.11768526129E+04  0.00000000000E+00 0. -1.
          1    1    1    2  502    0 -0.54507468489E+02  0.34795012523E+01  0.73108504910E+03  0.73312244548E+03  0.00000000000E+00 0. -1.
         22    1    3    3    0    0  0.63294727869E+02  0.20237573019E+01 -0.80547868800E+02  0.10246110158E+03  0.00000000000E+00 0.  1.
         22    1    3    3    0    0  0.63841511588E+02  0.10049602706E+03 -0.17865810114E+01  0.11907301091E+03  0.00000000000E+00 0.  1.
</event>
<event>
 7    1  0.5854318E-006  0.1220013E+03  0.7818608E-02  0.1391912E+00
          2   -1    0    0  502    0  0.00000000000E+00  0.00000000000E+00  0.44778011858E+04  0.44778011858E+04  0.00000000000E+00 0. -1.
          1   -1    0    0  501    0 -0.00000000000E+00 -0.00000000000E+00 -0.11766212594E+03  0.11766212594E+03  0.00000000000E+00 0. -1.
         25    2    1    2    0    0 -0.68282961731E+02  0.98345996272E+02  0.60527909024E+03  0.62954138484E+03  0.12500032121E+03 0.  0.
          2    1    1    2  501    0 -0.24695007899E+02 -0.18631207298E+02 -0.10227094248E+03  0.10684713836E+03  0.00000000000E+00 0. -1.
          1    1    1    2  502    0  0.92977969630E+02 -0.79714788975E+02  0.38571309121E+04  0.38590747885E+04  0.00000000000E+00 0. -1.
         22    1    3    3    0    0 -0.50508305767E+02  0.12242670723E+02  0.70511308651E+02  0.87594615049E+02  0.00000000000E+00 0. -1.
         22    1    3    3    0    0 -0.17774655964E+02  0.86103325549E+02  0.53476778159E+03  0.54194676980E+03  0.00000000000E+00 0. -1.
</event>
<event>
 7    1  0.5854318E-006  0.8647650E+02  0.7818608E-02  0.1317817E+00
          2   -1    0    0  502    0  0.00000000000E+00  0.00000000000E+00  0.81927824150E+03  0.81927824150E+03  0.00000000000E+00 0. -1.
          1   -1    0    0  501    0 -0.00000000000E+00 -0.00000000000E+00 -0.24988771822E+03  0.24988771822E+03  0.00000000000E+00 0. -1.
         25    2    1    2    0    0  0.16069746421E+03 -0.42123527143E+02  0.31021883252E+03  0.37344501941E+03  0.12500956736E+03 0.  0.
          2    1    1    2  501    0 -0.82703167095E+02  0.17535413133E+02 -0.20638868784E+03  0.22303272188E+03  0.00000000000E+00 0. -1.
          1    1    1    2  502    0 -0.77994297111E+02  0.24588114011E+02  0.46556037860E+03  0.47268821844E+03  0.00000000000E+00 0. -1.
         22    1    3    3    0    0  0.57168648518E+02 -0.27173080914E+02  0.23815099451E+03  0.24641941256E+03  0.00000000000E+00 0.  1.
         22    1    3    3    0    0  0.10352881569E+03 -0.14950446229E+02  0.72067838007E+02  0.12702560685E+03  0.00000000000E+00 0.  1.
</event>
<event>
 7    1  0.5854318E-006  0.1883659E+03  0.7818608E-02  0.1211317E+00
          2   -1    0    0  502    0  0.00000000000E+00  0.00000000000E+00  0.46374728324E+03  0.46374728324E+03  0.00000000000E+00 0. -1.
          1   -1    0    0  501    0 -0.00000000000E+00 -0.00000000000E+00 -0.14118482282E+04  0.14118482282E+04  0.00000000000E+00 0. -1.
         25    2    1    2    0    0 -0.18521597537E+03 -0.71229784792E+02 -0.10090936331E+03  0.25531898271E+03  0.12500577409E+03 0.  0.
          2    1    1    2  501    0  0.69712754453E+02 -0.80252301720E+02 -0.12077874231E+04  0.12124564980E+04  0.00000000000E+00 0. -1.
          1    1    1    2  502    0  0.11550322092E+03  0.15148208651E+03  0.36059584147E+03  0.40782003073E+03  0.00000000000E+00 0. -1.
         22    1    3    3    0    0 -0.16033651341E+03 -0.76549168120E+02 -0.12737042452E+03  0.21861106494E+03  0.00000000000E+00 0.  1.
         22    1    3    3    0    0 -0.24879461968E+02  0.53193833282E+01  0.26461061216E+02  0.36707917776E+02  0.00000000000E+00 0.  1.
</event>
<event>
 7    1  0.5854318E-006  0.4615128E+02  0.7818608E-02  0.1504742E+00
          2   -1    0    0  502    0  0.00000000000E+00  0.00000000000E+00  0.15610457598E+03  0.15610457598E+03  0.00000000000E+00 0. -1.
          1   -1    0    0  501    0 -0.00000000000E+00 -0.00000000000E+00 -0.53270075600E+03  0.53270075600E+03  0.00000000000E+00 0. -1.
         25    2    1    2    0    0  0.27893169821E+02  0.14119053272E+02 -0.13857083353E+03  0.18921903452E+03  0.12499836211E+03 0.  0.
          2    1    1    2  501    0  0.15367922296E+02 -0.31998550069E+02 -0.36372522731E+03  0.36545330923E+03  0.00000000000E+00 0. -1.
          1    1    1    2  502    0 -0.43261092117E+02  0.17879496796E+02  0.12569988082E+03  0.13413298824E+03  0.00000000000E+00 0. -1.
         22    1    3    3    0    0 -0.23796071122E+02 -0.44305997193E+02 -0.62962332554E+02  0.80582440449E+02  0.00000000000E+00 0. -1.
         22    1    3    3    0    0  0.51689240943E+02  0.58425050466E+02 -0.75608500975E+02  0.10863659407E+03  0.00000000000E+00 0. -1.
</event>
<event>
 7    1  0.5854318E-006  0.7967546E+02  0.7818608E-02  0.1479667E+00
          2   -1    0    0  502    0  0.00000000000E+00  0.00000000000E+00  0.48324080228E+03  0.48324080228E+03  0.00000000000E+00 0. -1.
          1   -1    0    0  501    0 -0.00000000000E+00 -0.00000000000E+00 -0.78502661656E+03  0.78502661656E+03  0.00000000000E+00 0. -1.
         25    2    1    2    0    0  0.12284542488E+02 -0.54620908481E+02  0.46449189120E+01  0.13704063073E+03  0.12499682225E+03 0.  0.
          2    1    1    2  501    0 -0.19070555059E+02  0.78134825663E+02 -0.71621278348E+03  0.72071456782E+03  0.00000000000E+00 0. -1.
          1    1    1    2  502    0  0.67860125716E+01 -0.23513917183E+02  0.40978205029E+03  0.41051222029E+03  0.00000000000E+00 0. -1.
         22    1    3    3    0    0  0.35560023480E+02 -0.64578143216E+02  0.47191331308E+02  0.87532128968E+02  0.00000000000E+00 0.  1.
         22    1    3    3    0    0 -0.23275480992E+02  0.99572347352E+01 -0.42546412396E+02  0.49508501762E+02  0.00000000000E+00 0.  1.
</event>
<event>
 7    1  0.5854318E-006  0.6739343E+02  0.7818608E-02  0.1373486E+00
          2   -1    0    0  502    0  0.00000000000E+00  0.00000000000E+00  0.38048993861E+03  0.38048993861E+03  0.00000000000E+00 0. -1.
          1   -1    0    0  501    0 -0.00000000000E+00 -0.00000000000E+00 -0.42262027862E+03  0.42262027862E+03  0.00000000000E+00 0. -1.
         25    2    1    2    0    0 -0.22206215672E+02 -0.70643617302E+01 -0.22716034213E+03  0.26032649757E+03  0.12500017232E+03 0.  0.
          2    1    1    2  501    0 -0.17192137585E+02  0.62729352620E+02 -0.16960601458E+03  0.18165005218E+03  0.00000000000E+00 0. -1.
          1    1    1    2  502    0  0.39398353256E+02 -0.55664990890E+02  0.35463601670E+03  0.36113366749E+03  0.00000000000E+00 0. -1.
         22    1    3    3    0    0 -0.60039505723E+02  0.23023402267E+02 -0.66302368023E+02  0.92362456144E+02  0.00000000000E+00 0.  1.
         22    1    3    3    0    0  0.37833290051E+02 -0.30087763997E+02 -0.16085797411E+03  0.16796404143E+03  0.00000000000E+00 0.  1.
</event>
<event>
 7    1  0.5854318E-006  0.1307014E+03  0.7818608E-02  0.1330957E+00
          2   -1    0    0  502    0  0.00000000000E+00  0.00000000000E+00  0.25708212992E+03  0.25708212992E+03  0.00000000000E+00 0. -1.
          1   -1    0    0  501    0 -0.00000000000E+00 -0.00000000000E+00 -0.47673534264E+03  0.47673534264E+03  0.00000000000E+00 0. -1.
         25    2    1    2    0    0  0.85191759831E+02 -0.22483027793E+02 -0.22958346879E+03  0.27585662773E+03  0.12500074975E+03 0.  0.
          2    1    1    2  501    0  0.38709204263E+02 -0.28640638878E+02 -0.20174855339E+03  0.20741544660E+03  0.00000000000E+00 0. -1.
          1    1    1    2  502    0 -0.12390096409E+03  0.51123666671E+02  0.21167880947E+03  0.25054539823E+03  0.00000000000E+00 0. -1.
         22    1    3    3    0    0 -0.32396640376E+02 -0.12822434811E+02 -0.56735296239E+02  0.66579658917E+02  0.00000000000E+00 0. -1.
         22    1    3    3    0    0  0.11758840021E+03 -0.96605929823E+01 -0.17284817255E+03  0.20927696881E+03  0.00000000000E+00 0. -1.
</event>
<event>
 7    1  0.5854318E-006  0.5424380E+02  0.7818608E-02  0.1425411E+00
          2   -1    0    0  502    0  0.00000000000E+00  0.00000000000E+00  0.29638965897E+04  0.29638965897E+04  0.00000000000E+00 0. -1.
          1   -1    0    0  501    0 -0.00000000000E+00 -0.00000000000E+00 -0.98324820828E+02  0.98324820828E+02  0.00000000000E+00 0. -1.
         25    2    1    2    0    0 -0.15245476511E+02  0.73226657079E+02  0.10559958984E+03  0.17991970651E+03  0.12500103822E+03 0.  0.
          2    1    1    2  501    0 -0.30259768827E+02 -0.45010949415E+02 -0.48835831883E+02  0.72983406692E+02  0.00000000000E+00 0. -1.
          1    1    1    2  502    0  0.45505245338E+02 -0.28215707665E+02  0.28088080109E+04  0.28093182973E+04  0.00000000000E+00 0. -1.
         22    1    3    3    0    0  0.25742879932E+02  0.74231413495E+02  0.14331091516E+02  0.79864753181E+02  0.00000000000E+00 0. -1.
         22    1    3    3    0    0 -0.40988356443E+02 -0.10047564154E+01  0.91268498328E+02  0.10005495333E+03  0.00000000000E+00 0. -1.
</event>
<event>
 7    1  0.6121957E-006  0.9566016E+02  0.7818608E-02  0.1348175E+00
          2   -1    0    0  502    0  0.00000000000E+00  0.00000000000E+00  0.78025781167E+03  0.78025781167E+03  0.00000000000E+00 0. -1.
          1   -1    0    0  501    0 -0.00000000000E+00 -0.00000000000E+00 -0.20818728830E+04  0.20818728830E+04  0.00000000000E+00 0. -1.
         25    2    1    2    0    0  0.33461984606E+02 -0.69458597795E+02 -0.17886108760E+03  0.23143323043E+03  0.12500340103E+03 0.  0.
          2    1    1    2  501    0 -0.50796047139E+02 -0.25122890799E+02 -0.18732296805E+04  0.18740866666E+04  0.00000000000E+00 0. -1.
          1    1    1    2  502    0  0.17334062533E+02  0.94581488594E+02  0.75047569675E+03  0.75661079765E+03  0.00000000000E+00 0. -1.
         22    1    3    3    0    0  0.52852488560E+02  0.19092511675E+02 -0.70440842991E+02  0.90110054436E+02  0.00000000000E+00 0.  1.
         22    1    3    3    0    0 -0.19390503954E+02 -0.88551109470E+02 -0.10842024461E+03  0.14132317600E+03  0.00000000000E+00 0.  1.
</event>
<event>
 7    1  0.5854318E-006  0.3256457E+03  0.7818608E-02  0.1120415E+00
          2   -1    0    0  502    0  0.00000000000E+00  0.00000000000E+00  0.16767648626E+03  0.16767648626E+03  0.00000000000E+00 0. -1.
          1   -1    0    0  501    0 -0.00000000000E+00 -0.00000000000E+00 -0.18321423329E+04  0.18321423329E+04  0.00000000000E+00 0. -1.
         25    2    1    2    0    0  0.51712591941E+02  0.36850586599E+03 -0.77812052770E+03  0.87153121888E+03  0.12499737770E+03 0.  0.
          2    1    1    2  501    0 -0.18481560293E+03 -0.25410828113E+03 -0.89899547706E+03  0.95232383852E+03  0.00000000000E+00 0. -1.
          1    1    1    2  502    0  0.13310301099E+03 -0.11439758486E+03  0.12650158103E+02  0.17596376177E+03  0.00000000000E+00 0. -1.
         22    1    3    3    0    0  0.77754044504E+02  0.13202298210E+03 -0.26927442054E+03  0.30981360976E+03  0.00000000000E+00 0. -1.
         22    1    3    3    0    0 -0.26041452563E+02  0.23648288389E+03 -0.50884610716E+03  0.56171760912E+03  0.00000000000E+00 0. -1.
</event>
<event>
 7    1  0.5854318E-006  0.1591935E+03  0.7818608E-02  0.1264528E+00
          2   -1    0    0  502    0  0.00000000000E+00  0.00000000000E+00  0.52304763810E+04  0.52304763810E+04  0.00000000000E+00 0. -1.
          1   -1    0    0  501    0 -0.00000000000E+00 -0.00000000000E+00 -0.68320218789E+02  0.68320218789E+02  0.00000000000E+00 0. -1.
         25    2    1    2    0    0 -0.58343973401E+02  0.77165655024E+02  0.39300432719E+04  0.39332207752E+04  0.12500796216E+03 0.  0.
          2    1    1    2  501    0  0.12895732809E+03 -0.96146327212E+02  0.32960906162E+02  0.16419662006E+03  0.00000000000E+00 0. -1.
          1    1    1    2  502    0 -0.70613354687E+02  0.18980672188E+02  0.11991519842E+04  0.12013792045E+04  0.00000000000E+00 0. -1.
         22    1    3    3    0    0 -0.95802297819E+02  0.72352155145E+02  0.30804017708E+04  0.30827403368E+04  0.00000000000E+00 0.  1.
         22    1    3    3    0    0  0.37458324418E+02  0.48134998793E+01  0.84964150110E+03  0.85048043849E+03  0.00000000000E+00 0.  1.
</event>
<event>
 7    1  0.5854318E-006  0.1131758E+03  0.7818608E-02  0.1361291E+00
          2   -1    0    0  502    0  0.00000000000E+00  0.00000000000E+00  0.62738420836E+03  0.62738420836E+03  0.00000000000E+00 0. -1.
          1   -1    0    0  501    0 -0.00000000000E+00 -0.00000000000E+00 -0.19788684333E+03  0.19788684333E+03  0.00000000000E+00 0. -1.
         25    2    1    2    0    0  0.82317905814E+01 -0.92535485865E+02  0.36421091494E+03  0.39611217011E+03  0.12499872892E+03 0.  0.
          2    1    1    2  501    0 -0.49791515773E+02  0.10302134968E+03 -0.16173970840E+03  0.19812199981E+03  0.00000000000E+00 0. -1.
          1    1    1    2  502    0  0.41559725191E+02 -0.10485863817E+02  0.22702615850E+03  0.23103688177E+03  0.00000000000E+00 0. -1.
         22    1    3    3    0    0  0.63755306526E+01  0.31055245826E+02  0.86865935271E+02  0.92470354141E+02  0.00000000000E+00 0.  1.
         22    1    3    3    0    0  0.18562599288E+01 -0.12359073169E+03  0.27734497967E+03  0.30364181597E+03  0.00000000000E+00 0.  1.
</event>
<event>
 7    1  0.5854318E-006  0.4408178E+02  0.7818608E-02  0.1582333E+00
          2   -1    0    0  502    0  0.00000000000E+00  0.00000000000E+00  0.59793538721E+03  0.59793538721E+03  0.00000000000E+00 0. -1.
          1   -1    0    0  501    0 -0.00000000000E+00 -0.00000000000E+00 -0.45220101269E+03  0.45220101269E+03  0.00000000000E+00 0. -1.
         25    2    1    2    0    0 -0.20437279391E+02  0.25480238959E+02  0.33973026376E+03  0.36346725992E+03  0.12499948781E+03 0.  0.
          2    1    1    2  501    0  0.70862002717E+01 -0.43558392996E+02 -0.43871059848E+03  0.44092463874E+03  0.00000000000E+00 0. -1.
          1    1    1    2  502    0  0.13351079119E+02  0.18078154037E+02  0.24471470924E+03  0.24574450123E+03  0.00000000000E+00 0. -1.
         22    1    3    3    0    0 -0.48497414227E+02 -0.36767327992E+02  0.15468672339E+03  0.16622821056E+03  0.00000000000E+00 0.  1.
         22    1    3    3    0    0  0.28060134836E+02  0.62247566950E+02  0.18504354037E+03  0.19723904936E+03  0.00000000000E+00 0.  1.
</event>
<event>
 7    1  0.5854318E-006  0.7544006E+02  0.7818608E-02  0.1506359E+00
          2   -1    0    0  502    0  0.00000000000E+00  0.00000000000E+00  0.25935242673E+02  0.25935242673E+02  0.00000000000E+00 0. -1.
          1   -1    0    0  501    0 -0.00000000000E+00 -0.00000000000E+00 -0.25358698903E+04  0.25358698903E+04  0.00000000000E+00 0. -1.
         25    2    1    2    0    0 -0.42972335865E+02 -0.69150968486E+02 -0.27814750594E+03  0.31562601335E+03  0.12500106859E+03 0.  0.
          2    1    1    2  501    0  0.55066451164E+02  0.51401841436E+02 -0.22207574796E+04  0.22220347087E+04  0.00000000000E+00 0. -1.
          1    1    1    2  502    0 -0.12094115299E+02  0.17749127051E+02 -0.11029662141E+02  0.24144411007E+02  0.00000000000E+00 0. -1.
         22    1    3    3    0    0  0.30920706885E+02 -0.66552700649E+02 -0.11376600933E+03  0.13538115436E+03  0.00000000000E+00 0. -1.
         22    1    3    3    0    0 -0.73893042750E+02 -0.25982678376E+01 -0.16438149661E+03  0.18024485899E+03  0.00000000000E+00 0. -1.
</event>
<event>
 7    1  0.5854318E-006  0.2063921E+03  0.7818608E-02  0.1240666E+00
          2   -1    0    0  502    0  0.00000000000E+00  0.00000000000E+00  0.11253506567E+04  0.11253506567E+04  0.00000000000E+00 0. -1.
          1   -1    0    0  501    0 -0.00000000000E+00 -0.00000000000E+00 -0.31154321535E+04  0.31154321535E+04  0.00000000000E+00 0. -1.
         25    2    1    2    0    0  0.15158054825E+03  0.17792920270E+03 -0.16894641645E+04  0.17101315164E+04  0.12500070590E+03 0.  0.
          2    1    1    2  501    0 -0.80142082235E+02 -0.17476987922E+03 -0.14079473476E+04  0.14210147774E+04  0.00000000000E+00 0. -1.
          1    1    1    2  502    0 -0.71438466014E+02 -0.31593234813E+01  0.11073300153E+04  0.11096365164E+04  0.00000000000E+00 0. -1.
         22    1    3    3    0    0  0.42891543189E+02 -0.70414920690E+01 -0.46381907546E+03  0.46585126580E+03  0.00000000000E+00 0. -1.
         22    1    3    3    0    0  0.10868900506E+03  0.18497069477E+03 -0.12256450890E+04  0.12442802506E+04  0.00000000000E+00 0. -1.
</event>
<event>
 7    1  0.5854318E-006  0.1394952E+03  0.7818608E-02  0.1283926E+00
          2   -1    0    0  502    0  0.00000000000E+00  0.00000000000E+00  0.84954382653E+03  0.84954382653E+03  0.00000000000E+00 0. -1.
          1   -1    0    0  501    0 -0.00000000000E+00 -0.00000000000E+00 -0.10334412526E+04  0.10334412526E+04  0.00000000000E+00 0. -1.
         25    2    1    2    0    0  0.11731204379E+03  0.72380419045E+02  0.59222680751E+03  0.62077290401E+03  0.12500146454E+03 0.  0.
          2    1    1    2  501    0 -0.38079446945E+02  0.57853859474E+02 -0.99394008183E+03  0.99635033980E+03  0.00000000000E+00 0. -1.
          1    1    1    2  502    0 -0.79232596841E+02 -0.13023427852E+03  0.21781584828E+03  0.26586183529E+03  0.00000000000E+00 0. -1.
         22    1    3    3    0    0  0.36230229172E+02  0.14985803948E+02  0.28780986553E+02  0.48636909984E+02  0.00000000000E+00 0.  1.
         22    1    3    3    0    0  0.81081814615E+02  0.57394615097E+02  0.56344582096E+03  0.57213599403E+03  0.00000000000E+00 0.  1.
</event>
<event>
 7    1  0.5854318E-006  0.9736129E+02  0.7818608E-02  0.1316637E+00
          2   -1    0    0  502    0  0.00000000000E+00  0.00000000000E+00  0.13250904421E+04  0.13250904421E+04  0.00000000000E+00 0. -1.
          1   -1    0    0  501    0 -0.00000000000E+00 -0.00000000000E+00 -0.47684851018E+03  0.47684851018E+03  0.00000000000E+00 0. -1.
         25    2    1    2    0    0  0.42274054408E+02  0.37561787635E+02  0.41533597422E+03  0.43740912235E+03  0.12499914106E+03 0.  0.
          2    1    1    2  501    0  0.69984804070E+02 -0.22159328896E+02 -0.45931412605E+03  0.46514339192E+03  0.00000000000E+00 0. -1.
          1    1    1    2  502    0 -0.11225885848E+03 -0.15402458739E+02  0.89222008376E+03  0.89938643802E+03  0.00000000000E+00 0. -1.
         22    1    3    3    0    0  0.78789565011E+02  0.46228304648E+02  0.35317050765E+03  0.36479344728E+03  0.00000000000E+00 0. -1.
         22    1    3    3    0    0 -0.36515510603E+02 -0.86665170135E+01  0.62165466569E+02  0.72615675068E+02  0.00000000000E+00 0. -1.
</event>
<event>
 7    1  0.5854318E-006  0.1285250E+03  0.7818608E-02  0.1346352E+00
          2   -1    0    0  502    0  0.00000000000E+00  0.00000000000E+00  0.58026369521E+03  0.58026369521E+03  0.00000000000E+00 0. -1.
          1   -1    0    0  501    0 -0.00000000000E+00 -0.00000000000E+00 -0.46583384658E+03  0.46583384658E+03  0.00000000000E+00 0. -1.
         25    2    1    2    0    0 -0.51729868259E+02  0.10475672094E+03 -0.15053419211E+03  0.22789366535E+03  0.12500011944E+03 0.  0.
          2    1    1    2  501    0 -0.40443269251E+02 -0.14135597160E+02 -0.26717636831E+03  0.27058951369E+03  0.00000000000E+00 0. -1.
          1    1    1    2  502    0  0.92173137510E+02 -0.90621123783E+02  0.53214040904E+03  0.54761436275E+03  0.00000000000E+00 0. -1.
         22    1    3    3    0    0 -0.84198351458E+01  0.97179855197E+02 -0.33931986190E+02  0.10327728485E+03  0.00000000000E+00 0. -1.
         22    1    3    3    0    0 -0.43310033113E+02  0.75768657455E+01 -0.11660220592E+03  0.12461638050E+03  0.00000000000E+00 0. -1.
</event>
<event>
 7    1  0.5854318E-006  0.7675741E+02  0.7818608E-02  0.1344071E+00
          2   -1    0    0  502    0  0.00000000000E+00  0.00000000000E+00  0.30855031928E+03  0.30855031928E+03  0.00000000000E+00 0. -1.
          1   -1    0    0  501    0 -0.00000000000E+00 -0.00000000000E+00 -0.12971049814E+03  0.12971049814E+03  0.00000000000E+00 0. -1.
         25    2    1    2    0    0  0.16695432207E+02  0.88442798294E+01  0.33403164627E+02  0.13075916468E+03  0.12500091599E+03 0.  0.
          2    1    1    2  501    0 -0.93290861332E+02 -0.38602580987E+01 -0.43916077017E+02  0.10318288725E+03  0.00000000000E+00 0. -1.
          1    1    1    2  502    0  0.76595429125E+02 -0.49840217307E+01  0.18935273353E+03  0.20431876549E+03  0.00000000000E+00 0. -1.
         22    1    3    3    0    0 -0.36388183279E+02 -0.15826595026E+02  0.55469597908E+02  0.68201592977E+02  0.00000000000E+00 0.  1.
         22    1    3    3    0    0  0.53083615486E+02  0.24670874856E+02 -0.22066433282E+02  0.62557571700E+02  0.00000000000E+00 0.  1.
</event>
<event>
 7    1  0.5854318E-006  0.6877157E+02  0.7818608E-02  0.1378875E+00
          2   -1    0    0  502    0  0.00000000000E+00  0.00000000000E+00  0.78332132534E+03  0.78332132534E+03  0.00000000000E+00 0. -1.
          1   -1    0    0  501    0 -0.00000000000E+00 -0.00000000000E+00 -0.26285822783E+04  0.26285822783E+04  0.00000000000E+00 0. -1.
         25    2    1    2    0    0  0.35596974490E+02  0.55435366984E+02 -0.40142111403E+01  0.14140373636E+03  0.12505470107E+03 0.  0.
          2    1    1    2  501    0  0.24725294942E+02 -0.64388367180E+02 -0.25541058932E+04  0.25550370087E+04  0.00000000000E+00 0. -1.
          1    1    1    2  502    0 -0.60322269432E+02  0.89530001958E+01  0.71285915135E+03  0.71546285863E+03  0.00000000000E+00 0. -1.
         22    1    3    3    0    0  0.78042664839E+02  0.24069800757E+02 -0.23756022770E+02  0.85055049594E+02  0.00000000000E+00 0.  1.
         22    1    3    3    0    0 -0.42445690348E+02  0.31365566227E+02  0.19741811630E+02  0.56348686766E+02  0.00000000000E+00 0.  1.
</event>
<event>
 7    1  0.5854318E-006  0.1035811E+03  0.7818608E-02  0.1421005E+00
          2   -1    0    0  502    0  0.00000000000E+00  0.00000000000E+00  0.84858151953E+03  0.84858151953E+03  0.00000000000E+00 0. -1.
          1   -1    0    0  501    0 -0.00000000000E+00 -0.00000000000E+00 -0.10102467057E+03  0.10102467057E+03  0.00000000000E+00 0. -1.
         25    2    1    2    0    0  0.46498117777E+02 -0.10307129053E+03  0.36694870112E+02  0.17249924756E+03  0.12499484400E+03 0.  0.
          2    1    1    2  501    0  0.18189528335E+02  0.22588165394E+02 -0.22378483352E+02  0.36631689479E+02  0.00000000000E+00 0. -1.
          1    1    1    2  502    0 -0.64687646113E+02  0.80483125136E+02  0.73324046220E+03  0.74047525306E+03  0.00000000000E+00 0. -1.
         22    1    3    3    0    0  0.30594820362E+02 -0.12453232629E+03  0.55604650880E+02  0.13977203055E+03  0.00000000000E+00 0.  1.
         22    1    3    3    0    0  0.15903297415E+02  0.21461035760E+02 -0.18909780768E+02  0.32727217011E+02  0.00000000000E+00 0.  1.
</event>
<event>
 7    1  0.5854318E-006  0.1694042E+03  0.7818608E-02  0.1389724E+00
          2   -1    0    0  502    0  0.00000000000E+00  0.00000000000E+00  0.90263810261E+03  0.90263810261E+03  0.00000000000E+00 0. -1.
          1   -1    0    0  501    0 -0.00000000000E+00 -0.00000000000E+00 -0.39979254128E+03  0.39979254128E+03  0.00000000000E+00 0. -1.
         25    2    1    2    0    0 -0.14910367999E+03  0.46406333959E+02  0.71518541596E+03  0.74263105958E+03  0.12500102496E+03 0.  0.
          2    1    1    2  501    0  0.15548313515E+03 -0.68163613692E+02 -0.36653727930E+03  0.40394413062E+03  0.00000000000E+00 0. -1.
          1    1    1    2  502    0 -0.63794551538E+01  0.21757279733E+02  0.15419742467E+03  0.15585545368E+03  0.00000000000E+00 0. -1.
         22    1    3    3    0    0 -0.68871925949E+02 -0.86549694405E+01  0.51918383965E+03  0.52380350326E+03  0.00000000000E+00 0. -1.
         22    1    3    3    0    0 -0.80231754044E+02  0.55061303399E+02  0.19600157631E+03  0.21882755632E+03  0.00000000000E+00 0. -1.
</event>
<event>
 7    1  0.5854318E-006  0.8002965E+02  0.7818608E-02  0.1396214E+00
          2   -1    0    0  502    0  0.00000000000E+00  0.00000000000E+00  0.18270310555E+04  0.18270310555E+04  0.00000000000E+00 0. -1.
          1   -1    0    0  501    0 -0.00000000000E+00 -0.00000000000E+00 -0.19920791635E+03  0.19920791635E+03  0.00000000000E+00 0. -1.
         25    2    1    2    0    0  0.35801089502E+02  0.83414856429E+01  0.17189661766E+03  0.21569660994E+03  0.12500112793E+03 0.  0.
          2    1    1    2  501    0 -0.81128386103E+02 -0.12998084676E+02 -0.16745262889E+03  0.18652385412E+03  0.00000000000E+00 0. -1.
          1    1    1    2  502    0  0.45327296600E+02  0.46565990331E+01  0.16233791504E+04  0.16240185078E+04  0.00000000000E+00 0. -1.
         22    1    3    3    0    0  0.79548838845E+01 -0.57707622216E+02  0.69128205531E+02  0.90399992474E+02  0.00000000000E+00 0.  1.
         22    1    3    3    0    0  0.27846205618E+02  0.66049107859E+02  0.10276841213E+03  0.12529661746E+03  0.00000000000E+00 0.  1.
</event>
<event>
 7    1  0.5854318E-006  0.8912694E+02  0.7818608E-02  0.1442357E+00
          2   -1    0    0  502    0  0.00000000000E+00  0.00000000000E+00  0.10553272821E+04  0.10553272821E+04  0.00000000000E+00 0. -1.
          1   -1    0    0  501    0 -0.00000000000E+00 -0.00000000000E+00 -0.13697189401E+04  0.13697189401E+04  0.00000000000E+00 0. -1.
         25    2    1    2    0    0 -0.19561059935E+02  0.64783190469E+02 -0.40995712977E+03  0.43390048530E+03  0.12500114424E+03 0.  0.
          2    1    1    2  501    0  0.12440847872E+02 -0.92564259452E+02 -0.94529128380E+03  0.94989395622E+03  0.00000000000E+00 0. -1.
          1    1    1    2  502    0  0.71202120638E+01  0.27781068983E+02  0.10408567556E+04  0.10412517807E+04  0.00000000000E+00 0. -1.
         22    1    3    3    0    0  0.19277552582E+02  0.86750281896E+02 -0.19404763136E+03  0.21342848610E+03  0.00000000000E+00 0.  1.
         22    1    3    3    0    0 -0.38838612518E+02 -0.21967091427E+02 -0.21590949841E+03  0.22047199920E+03  0.00000000000E+00 0.  1.
</event>
<event>
 7    1  0.5854318E-006  0.4449874E+02  0.7818608E-02  0.1561594E+00
          2   -1    0    0  502    0  0.00000000000E+00  0.00000000000E+00  0.65088201645E+02  0.65088201645E+02  0.00000000000E+00 0. -1.
          1   -1    0    0  501    0 -0.00000000000E+00 -0.00000000000E+00 -0.36194704444E+03  0.36194704444E+03  0.00000000000E+00 0. -1.
         25    2    1    2    0    0  0.22070818567E+02 -0.24117980299E+02 -0.78712351440E+02  0.15129018233E+03  0.12499714795E+03 0.  0.
          2    1    1    2  501    0 -0.44027248738E+02  0.11469996514E+02 -0.23877509108E+03  0.24307098463E+03  0.00000000000E+00 0. -1.
          1    1    1    2  502    0  0.21956430171E+02  0.12647983785E+02  0.20628599723E+02  0.32674079118E+02  0.00000000000E+00 0. -1.
         22    1    3    3    0    0 -0.40442150480E+02 -0.29337162746E+02  0.85359856276E+00  0.49969643624E+02  0.00000000000E+00 0.  1.
         22    1    3    3    0    0  0.62512969047E+02  0.52191824473E+01 -0.79565950003E+02  0.10132053871E+03  0.00000000000E+00 0.  1.
</event>
<event>
 7    1  0.5854318E-006  0.1285030E+03  0.7818608E-02  0.1308641E+00
          2   -1    0    0  502    0  0.00000000000E+00  0.00000000000E+00  0.17948969280E+03  0.17948969280E+03  0.00000000000E+00 0. -1.
          1   -1    0    0  501    0 -0.00000000000E+00 -0.00000000000E+00 -0.15770207448E+04  0.15770207448E+04  0.00000000000E+00 0. -1.
         25    2    1    2    0    0  0.54233331106E+02 -0.65691000272E+02 -0.83714591002E+02  0.17288230592E+03  0.12499438880E+03 0.  0.
          2    1    1    2  501    0 -0.43274531223E+02  0.12446483527E+03 -0.14389365693E+04  0.14449576571E+04  0.00000000000E+00 0. -1.
          1    1    1    2  502    0 -0.10958799883E+02 -0.58773834996E+02  0.12512010840E+03  0.13867047451E+03  0.00000000000E+00 0. -1.
         22    1    3    3    0    0  0.42522693127E+02 -0.30293524202E+02  0.25047315046E+02  0.57907210521E+02  0.00000000000E+00 0. -1.
         22    1    3    3    0    0  0.11710637980E+02 -0.35397476070E+02 -0.10876190605E+03  0.11497509540E+03  0.00000000000E+00 0. -1.
</event>
<event>
 7    1  0.5854318E-006  0.3650830E+02  0.7818608E-02  0.1571177E+00
          2   -1    0    0  502    0  0.00000000000E+00  0.00000000000E+00  0.24079121347E+02  0.24079121347E+02  0.00000000000E+00 0. -1.
          1   -1    0    0  501    0 -0.00000000000E+00 -0.00000000000E+00 -0.47965280909E+03  0.47965280909E+03  0.00000000000E+00 0. -1.
         25    2    1    2    0    0  0.17201266049E+02 -0.19819179949E+02 -0.38165804423E+03  0.40246191382E+03  0.12499618357E+03 0.  0.
          2    1    1    2  501    0 -0.21954146739E+02 -0.19069040031E+02 -0.23294341384E+02  0.37259081943E+02  0.00000000000E+00 0. -1.
          1    1    1    2  502    0  0.47528806895E+01  0.38888219981E+02 -0.50621302131E+02  0.64010934671E+02  0.00000000000E+00 0. -1.
         22    1    3    3    0    0 -0.52983281144E+02 -0.13289471423E+02 -0.20776531356E+03  0.21482612422E+03  0.00000000000E+00 0.  1.
         22    1    3    3    0    0  0.70184547193E+02 -0.65297085263E+01 -0.17389273067E+03  0.18763578960E+03  0.00000000000E+00 0.  1.
</event>
<event>
 7    1  0.5854318E-006  0.9703880E+02  0.7818608E-02  0.1415350E+00
          2   -1    0    0  502    0  0.00000000000E+00  0.00000000000E+00  0.70539867893E+02  0.70539867893E+02  0.00000000000E+00 0. -1.
          1   -1    0    0  501    0 -0.00000000000E+00 -0.00000000000E+00 -0.38354357214E+03  0.38354357214E+03  0.00000000000E+00 0. -1.
         25    2    1    2    0    0 -0.43949461836E+02 -0.10274097667E+03 -0.22065022328E+03  0.27712408242E+03  0.12499589010E+03 0.  0.
          2    1    1    2  501    0  0.14954175287E+02  0.88425743530E+02 -0.10854104449E+03  0.14079736438E+03  0.00000000000E+00 0. -1.
          1    1    1    2  502    0  0.28995286548E+02  0.14315233138E+02  0.16187563521E+02  0.36161993233E+02  0.00000000000E+00 0. -1.
         22    1    3    3    0    0 -0.61343179452E+02 -0.66813770062E+02 -0.53568848674E+02  0.10534081395E+03  0.00000000000E+00 0.  1.
         22    1    3    3    0    0  0.17393717617E+02 -0.35927206606E+02 -0.16708137461E+03  0.17178326848E+03  0.00000000000E+00 0.  1.
</event>
<event>
 7    1  0.5854318E-006  0.3698885E+03  0.7818608E-02  0.1242690E+00
          2   -1    0    0  502    0  0.00000000000E+00  0.00000000000E+00  0.20844641463E+04  0.20844641463E+04  0.00000000000E+00 0. -1.
          1   -1    0    0  501    0 -0.00000000000E+00 -0.00000000000E+00 -0.12908853475E+04  0.12908853475E+04  0.00000000000E+00 0. -1.
         25    2    1    2    0    0  0.15957156749E+03  0.37555931356E+03 -0.80495314223E+03  0.91108866039E+03  0.12500041103E+03 0.  0.
          2    1    1    2  501    0 -0.11944318736E+02 -0.37221526140E+02 -0.41516869640E+03  0.41700498225E+03  0.00000000000E+00 0. -1.
          1    1    1    2  502    0 -0.14762724876E+03 -0.33833778742E+03  0.20137006374E+04  0.20472558512E+04  0.00000000000E+00 0. -1.
         22    1    3    3    0    0  0.17350865544E+03  0.35663505558E+03 -0.70990907229E+03  0.81318184147E+03  0.00000000000E+00 0. -1.
         22    1    3    3    0    0 -0.13937087944E+02  0.18924257978E+02 -0.95044069940E+02  0.97906818921E+02  0.00000000000E+00 0. -1.
</event>
<event>
 7    1  0.5854318E-006  0.8556196E+02  0.7818608E-02  0.1441195E+00
          2   -1    0    0  502    0  0.00000000000E+00  0.00000000000E+00  0.60654544204E+03  0.60654544204E+03  0.00000000000E+00 0. -1.
          1   -1    0    0  501    0 -0.00000000000E+00 -0.00000000000E+00 -0.94872460887E+02  0.94872460887E+02  0.00000000000E+00 0. -1.
         25    2    1    2    0    0 -0.16468082733E+02 -0.77853796527E+02  0.37739608571E+03  0.40544161854E+03  0.12499075628E+03 0.  0.
          2    1    1    2  501    0 -0.12742562133E+02  0.85255005271E+02 -0.56347647174E+02  0.10298468894E+03  0.00000000000E+00 0. -1.
          1    1    1    2  502    0  0.29210644866E+02 -0.74012087437E+01  0.19062454262E+03  0.19299159545E+03  0.00000000000E+00 0. -1.
         22    1    3    3    0    0 -0.63240389035E+02 -0.54398422820E+02  0.14550604590E+03  0.16772162831E+03  0.00000000000E+00 0. -1.
         22    1    3    3    0    0  0.46772306301E+02 -0.23455373707E+02  0.23189003981E+03  0.23771999023E+03  0.00000000000E+00 0. -1.
</event>
<event>
 7    1  0.5854318E-006  0.2749141E+03  0.7818608E-02  0.1285414E+00
          2   -1    0    0  502    0  0.00000000000E+00  0.00000000000E+00  0.18576359766E+04  0.18576359766E+04  0.00000000000E+00 0. -1.
          1   -1    0    0  501    0 -0.00000000000E+00 -0.00000000000E+00 -0.64509053284E+03  0.64509053284E+03  0.00000000000E+00 0. -1.
         25    2    1    2    0    0 -0.16594525725E+03  0.24053219344E+03  0.33679828619E+03  0.46308949004E+03  0.12500090287E+03 0.  0.
          2    1    1    2  501    0  0.17782630058E+03 -0.20797900272E+03 -0.54955578221E+03  0.61391287372E+03  0.00000000000E+00 0. -1.
          1    1    1    2  502    0 -0.11881043338E+02 -0.32553190722E+02  0.14253029397E+04  0.14257241456E+04  0.00000000000E+00 0. -1.
         22    1    3    3    0    0  0.47209019118E+01 -0.94236686089E+01  0.36023285749E+00  0.10546194225E+02  0.00000000000E+00 0.  1.
         22    1    3    3    0    0 -0.17066615916E+03  0.24995586205E+03  0.33643805333E+03  0.45254329581E+03  0.00000000000E+00 0.  1.
</event>
<event>
 7    1  0.5854318E-006  0.1392246E+03  0.7818608E-02  0.1315793E+00
          2   -1    0    0  502    0  0.00000000000E+00  0.00000000000E+00  0.15321542748E+04  0.15321542748E+04  0.00000000000E+00 0. -1.
          1   -1    0    0  501    0 -0.00000000000E+00 -0.00000000000E+00 -0.76603827614E+03  0.76603827614E+03  0.00000000000E+00 0. -1.
         25    2    1    2    0    0 -0.77817027365E+02 -0.14343709023E+03  0.47468132980E+03  0.51727804414E+03  0.12499808595E+03 0.  0.
          2    1    1    2  501    0  0.26565042833E+02  0.13644593858E+03 -0.73759806953E+03  0.75058251234E+03  0.00000000000E+00 0. -1.
          1    1    1    2  502    0  0.51251984532E+02  0.69911516529E+01  0.10290327384E+04  0.10303319945E+04  0.00000000000E+00 0. -1.
         22    1    3    3    0    0 -0.91111720169E+02 -0.15116789181E+03  0.35339299657E+03  0.39501859082E+03  0.00000000000E+00 0.  1.
         22    1    3    3    0    0  0.13294692805E+02  0.77308015802E+01  0.12128833322E+03  0.12225945332E+03  0.00000000000E+00 0.  1.
</event>
<event>
 7    1  0.5854318E-006  0.1150475E+03  0.7818608E-02  0.1393283E+00
          2   -1    0    0  502    0  0.00000000000E+00  0.00000000000E+00  0.44350600862E+03  0.44350600862E+03  0.00000000000E+00 0. -1.
          1   -1    0    0  501    0 -0.00000000000E+00 -0.00000000000E+00 -0.68034165798E+03  0.68034165798E+03  0.00000000000E+00 0. -1.
         25    2    1    2    0    0  0.38455890156E+02 -0.14046455136E+03 -0.38939417862E+03  0.43412204529E+03  0.12499991274E+03 0.  0.
          2    1    1    2  501    0 -0.56707101475E+00  0.32441713281E+02 -0.25977647223E+03  0.26179496147E+03  0.00000000000E+00 0. -1.
          1    1    1    2  502    0 -0.37888819142E+02  0.10802283808E+03  0.41233500149E+03  0.42793065982E+03  0.00000000000E+00 0. -1.
         22    1    3    3    0    0  0.81537053922E+01 -0.15455111766E+03 -0.28236683036E+03  0.32199931330E+03  0.00000000000E+00 0. -1.
         22    1    3    3    0    0  0.30302184764E+02  0.14086566298E+02 -0.10702734827E+03  0.11212273199E+03  0.00000000000E+00 0. -1.
</event>
<event>
 7    1  0.5854318E-006  0.7246788E+02  0.7818608E-02  0.1450131E+00
          2   -1    0    0  502    0  0.00000000000E+00  0.00000000000E+00  0.42192791493E+02  0.42192791493E+02  0.00000000000E+00 0. -1.
          1   -1    0    0  501    0 -0.00000000000E+00 -0.00000000000E+00 -0.10613042163E+04  0.10613042163E+04  0.00000000000E+00 0. -1.
         25    2    1    2    0    0 -0.93555261122E+02 -0.24662069010E+02 -0.66182085280E+03  0.68043582016E+03  0.12500103849E+03 0.  0.
          2    1    1    2  501    0  0.22341794304E+02  0.24690435830E+02 -0.34988251422E+03  0.35146343644E+03  0.00000000000E+00 0. -1.
          1    1    1    2  502    0  0.71213466818E+02 -0.28366820266E-01 -0.74080578219E+01  0.71597751233E+02  0.00000000000E+00 0. -1.
         22    1    3    3    0    0 -0.59513635562E+02  0.47233971153E+02 -0.26280553512E+03  0.27356840120E+03  0.00000000000E+00 0.  1.
         22    1    3    3    0    0 -0.34041625561E+02 -0.71896040163E+02 -0.39901531768E+03  0.40686741895E+03  0.00000000000E+00 0.  1.
</event>
<event>
 7    1  0.5854318E-006  0.6228329E+02  0.7818608E-02  0.1413839E+00
          2   -1    0    0  502    0  0.00000000000E+00  0.00000000000E+00  0.21513045641E+03  0.21513045641E+03  0.00000000000E+00 0. -1.
          1   -1    0    0  501    0 -0.00000000000E+00 -0.00000000000E+00 -0.76844082593E+03  0.76844082593E+03  0.00000000000E+00 0. -1.
         25    2    1    2    0    0  0.17224161702E+02  0.14731489227E+02 -0.32761626844E+03  0.35138569192E+03  0.12500318641E+03 0.  0.
          2    1    1    2  501    0 -0.64563665875E+02 -0.33636469433E+02 -0.42258148110E+03  0.42880646823E+03  0.00000000000E+00 0. -1.
          1    1    1    2  502    0  0.47339504173E+02  0.18904980206E+02  0.19688738003E+03  0.20337912220E+03  0.00000000000E+00 0. -1.
         22    1    3    3    0    0  0.51865118770E+02  0.32584922966E+02 -0.80178399655E+02  0.10089768838E+03  0.00000000000E+00 0.  1.
         22    1    3    3    0    0 -0.34640957068E+02 -0.17853433739E+02 -0.24743786879E+03  0.25048800353E+03  0.00000000000E+00 0.  1.
</event>
<event>
 7    1  0.5854318E-006  0.5061180E+02  0.7818608E-02  0.1494102E+00
          2   -1    0    0  502    0  0.00000000000E+00  0.00000000000E+00  0.42944720950E+02  0.42944720950E+02  0.00000000000E+00 0. -1.
          1   -1    0    0  501    0 -0.00000000000E+00 -0.00000000000E+00 -0.11837393332E+04  0.11837393332E+04  0.00000000000E+00 0. -1.
         25    2    1    2    0    0  0.33777821043E+02  0.22460928370E+02 -0.39106426283E+03  0.41255250295E+03  0.12499150183E+03 0.  0.
          2    1    1    2  501    0  0.17304017091E+02 -0.30223080982E+02 -0.76054641951E+03  0.76134336529E+03  0.00000000000E+00 0. -1.
          1    1    1    2  502    0 -0.51081838135E+02  0.77621526124E+01  0.10816070090E+02  0.52788185919E+02  0.00000000000E+00 0. -1.
         22    1    3    3    0    0 -0.40709845990E+02  0.72969821709E+01 -0.60000336973E+02  0.72873712312E+02  0.00000000000E+00 0. -1.
         22    1    3    3    0    0  0.74487667033E+02  0.15163946199E+02 -0.33106392586E+03  0.33967879064E+03  0.00000000000E+00 0. -1.
</event>
<event>
 7    1  0.5854318E-006  0.7418141E+02  0.7818608E-02  0.1481163E+00
          2   -1    0    0  502    0  0.00000000000E+00  0.00000000000E+00  0.15296057104E+04  0.15296057104E+04  0.00000000000E+00 0. -1.
          1   -1    0    0  501    0 -0.00000000000E+00 -0.00000000000E+00 -0.11631519041E+03  0.11631519041E+03  0.00000000000E+00 0. -1.
         25    2    1    2    0    0 -0.62602669173E+02 -0.24584737941E+02  0.13534906425E+04  0.13609125481E+04  0.12499016208E+03 0.  0.
          2    1    1    2  501    0  0.74270601963E+02  0.13386820935E+01 -0.99180676703E+02  0.12391416794E+03  0.00000000000E+00 0. -1.
          1    1    1    2  502    0 -0.11667932790E+02  0.23246055847E+02  0.15898055415E+03  0.16109418476E+03  0.00000000000E+00 0. -1.
         22    1    3    3    0    0 -0.73479837796E+02  0.31552044014E+02  0.60874658343E+03  0.61397656379E+03  0.00000000000E+00 0. -1.
         22    1    3    3    0    0  0.10877168623E+02 -0.56136781955E+02  0.74474405906E+03  0.74693598427E+03  0.00000000000E+00 0. -1.
</event>
<event>
 7    1  0.5854318E-006  0.1052739E+03  0.7818608E-02  0.1277009E+00
          2   -1    0    0  502    0  0.00000000000E+00  0.00000000000E+00  0.68458484780E+03  0.68458484780E+03  0.00000000000E+00 0. -1.
          1   -1    0    0  501    0 -0.00000000000E+00 -0.00000000000E+00 -0.10559372948E+04  0.10559372948E+04  0.00000000000E+00 0. -1.
         25    2    1    2    0    0  0.12941785933E+03 -0.42638861547E+02 -0.24984997724E+03  0.31083997313E+03  0.12501769052E+03 0.  0.
          2    1    1    2  501    0 -0.94003202702E+02 -0.48754688098E+02 -0.76826810467E+03  0.77553175459E+03  0.00000000000E+00 0. -1.
          1    1    1    2  502    0 -0.35414656623E+02  0.91393549645E+02  0.64676563489E+03  0.65415041489E+03  0.00000000000E+00 0. -1.
         22    1    3    3    0    0  0.78836809733E+02 -0.22574524532E+02 -0.34923337929E+02  0.89131875661E+02  0.00000000000E+00 0. -1.
         22    1    3    3    0    0  0.50581049592E+02 -0.20064337016E+02 -0.21492663931E+03  0.22170809747E+03  0.00000000000E+00 0. -1.
</event>
<event>
 7    1  0.5854318E-006  0.7390630E+02  0.7818608E-02  0.1349589E+00
          2   -1    0    0  502    0  0.00000000000E+00  0.00000000000E+00  0.13656987915E+04  0.13656987915E+04  0.00000000000E+00 0. -1.
          1   -1    0    0  501    0 -0.00000000000E+00 -0.00000000000E+00 -0.31610481853E+03  0.31610481853E+03  0.00000000000E+00 0. -1.
         25    2    1    2    0    0 -0.13032157694E+03 -0.59428709185E+02 -0.19406820023E+03  0.27166728600E+03  0.12500065220E+03 0.  0.
          2    1    1    2  501    0  0.58677007622E+02  0.42529040167E+02 -0.66232104061E+02  0.98175363963E+02  0.00000000000E+00 0. -1.
          1    1    1    2  502    0  0.71644569316E+02  0.16899669018E+02  0.13098942773E+04  0.13119609601E+04  0.00000000000E+00 0. -1.
         22    1    3    3    0    0 -0.26678283667E+02  0.63059589960E+01  0.13478519355E+02  0.30547772787E+02  0.00000000000E+00 0.  1.
         22    1    3    3    0    0 -0.10364329327E+03 -0.65734668181E+02 -0.20754671959E+03  0.24111951321E+03  0.00000000000E+00 0.  1.
</event>
<event>
 7    1  0.5854318E-006  0.1392538E+03  0.7818608E-02  0.1305496E+00
          2   -1    0    0  502    0  0.00000000000E+00  0.00000000000E+00  0.82537160931E+02  0.82537160931E+02  0.00000000000E+00 0. -1.
          1   -1    0    0  501    0 -0.00000000000E+00 -0.00000000000E+00 -0.12916577367E+04  0.12916577367E+04  0.00000000000E+00 0. -1.
         25    2    1    2    0    0  0.10442712165E+03  0.79398277872E+02 -0.92615695706E+03  0.94371684391E+03  0.12500264835E+03 0.  0.
          2    1    1    2  501    0 -0.91075713053E+02 -0.13458186911E+03 -0.32261252321E+03  0.36122832825E+03  0.00000000000E+00 0. -1.
          1    1    1    2  502    0 -0.13351408602E+02  0.55183591238E+02  0.39648904483E+02  0.69249725489E+02  0.00000000000E+00 0. -1.
         22    1    3    3    0    0  0.28904487104E+02 -0.33344736160E+02 -0.18078110971E+03  0.18608909273E+03  0.00000000000E+00 0. -1.
         22    1    3    3    0    0  0.75522634551E+02  0.11274301403E+03 -0.74537584735E+03  0.75762775118E+03  0.00000000000E+00 0. -1.
</event>
<event>
 7    1  0.5854318E-006  0.1300494E+03  0.7818608E-02  0.1260028E+00
          2   -1    0    0  502    0  0.00000000000E+00  0.00000000000E+00  0.28181688167E+03  0.28181688167E+03  0.00000000000E+00 0. -1.
          1   -1    0    0  501    0 -0.00000000000E+00 -0.00000000000E+00 -0.22060578282E+04  0.22060578282E+04  0.00000000000E+00 0. -1.
         25    2    1    2    0    0 -0.12810607523E+03  0.12192106469E+03 -0.31715544169E+03  0.38403711992E+03  0.12498409002E+03 0.  0.
          2    1    1    2  501    0  0.34585124485E+02 -0.12371371241E+03 -0.18443409996E+04  0.18488090589E+04  0.00000000000E+00 0. -1.
          1    1    1    2  502    0  0.93520950742E+02  0.17926477113E+01  0.23725549480E+03  0.25502853101E+03  0.00000000000E+00 0. -1.
         22    1    3    3    0    0 -0.94293096775E+02  0.56532877935E+01 -0.15755571998E+03  0.18370343672E+03  0.00000000000E+00 0. -1.
         22    1    3    3    0    0 -0.33812978452E+02  0.11626777690E+03 -0.15959972171E+03  0.20033368320E+03  0.00000000000E+00 0. -1.
</event>
<event>
 7    1  0.5854318E-006  0.2425329E+03  0.7818608E-02  0.1196908E+00
          2   -1    0    0  502    0  0.00000000000E+00  0.00000000000E+00  0.12673393405E+04  0.12673393405E+04  0.00000000000E+00 0. -1.
          1   -1    0    0  501    0 -0.00000000000E+00 -0.00000000000E+00 -0.19491819502E+04  0.19491819502E+04  0.00000000000E+00 0. -1.
         25    2    1    2    0    0 -0.23484644489E+03 -0.14061239062E+02  0.27145973539E+03  0.38035058961E+03  0.12500244779E+03 0.  0.
          2    1    1    2  501    0  0.22883922820E+03 -0.82193207921E+02 -0.18844347197E+04  0.19000571908E+04  0.00000000000E+00 0. -1.
          1    1    1    2  502    0  0.60072166960E+01  0.96254446984E+02  0.93113237455E+03  0.93611351029E+03  0.00000000000E+00 0. -1.
         22    1    3    3    0    0 -0.16648856767E+03  0.36227346900E+02  0.12587716005E+03  0.21183938078E+03  0.00000000000E+00 0. -1.
         22    1    3    3    0    0 -0.68357877225E+02 -0.50288585963E+02  0.14558257535E+03  0.16851120883E+03  0.00000000000E+00 0. -1.
</event>
<event>
 7    1  0.5854318E-006  0.4545431E+02  0.7818608E-02  0.1498491E+00
          2   -1    0    0  502    0  0.00000000000E+00  0.00000000000E+00  0.14671152049E+04  0.14671152049E+04  0.00000000000E+00 0. -1.
          1   -1    0    0  501    0 -0.00000000000E+00 -0.00000000000E+00 -0.41202852265E+02  0.41202852265E+02  0.00000000000E+00 0. -1.
         25    2    1    2    0    0  0.28488360587E+02 -0.26893197270E+02  0.34084535235E+03  0.36515168759E+03  0.12500147990E+03 0.  0.
          2    1    1    2  501    0  0.17332593762E+02  0.33389274901E+02 -0.16176781833E+02  0.40950589195E+02  0.00000000000E+00 0. -1.
          1    1    1    2  502    0 -0.45820954349E+02 -0.64960776315E+01  0.11012437821E+04  0.11022157803E+04  0.00000000000E+00 0. -1.
         22    1    3    3    0    0 -0.94187509912E+01 -0.22678245265E+02  0.32140608407E+03  0.32234280907E+03  0.00000000000E+00 0.  1.
         22    1    3    3    0    0  0.37907111579E+02 -0.42149520045E+01  0.19439268280E+02  0.42808878517E+02  0.00000000000E+00 0.  1.
</event>
<event>
 7    1  0.5854318E-006  0.9407275E+02  0.7818608E-02  0.1378359E+00
          2   -1    0    0  502    0  0.00000000000E+00  0.00000000000E+00  0.24535231579E+03  0.24535231579E+03  0.00000000000E+00 0. -1.
          1   -1    0    0  501    0 -0.00000000000E+00 -0.00000000000E+00 -0.12019282248E+04  0.12019282248E+04  0.00000000000E+00 0. -1.
         25    2    1    2    0    0 -0.61370058439E+02 -0.25724959580E+02 -0.32215449988E+03  0.35190404842E+03  0.12499951954E+03 0.  0.
          2    1    1    2  501    0 -0.24689409218E+01 -0.44701956262E+02 -0.85448724377E+03  0.85565928402E+03  0.00000000000E+00 0. -1.
          1    1    1    2  502    0  0.63838999361E+02  0.70426915842E+02  0.22006583463E+03  0.23971720815E+03  0.00000000000E+00 0. -1.
         22    1    3    3    0    0 -0.56897293678E+02  0.42462345563E+02 -0.13262085981E+03  0.15042820638E+03  0.00000000000E+00 0.  1.
         22    1    3    3    0    0 -0.44727647612E+01 -0.68187305144E+02 -0.18953364007E+03  0.20147584204E+03  0.00000000000E+00 0.  1.
</event>
<event>
 7    1  0.5854318E-006  0.2412010E+03  0.7818608E-02  0.1356540E+00
          2   -1    0    0  502    0  0.00000000000E+00  0.00000000000E+00  0.15876586947E+04  0.15876586947E+04  0.00000000000E+00 0. -1.
          1   -1    0    0  501    0 -0.00000000000E+00 -0.00000000000E+00 -0.80730742995E+03  0.80730742995E+03  0.00000000000E+00 0. -1.
         25    2    1    2    0    0  0.66587033087E+02  0.24240378338E+03  0.90776932064E+03  0.95019129719E+03  0.12499973835E+03 0.  0.
          2    1    1    2  501    0  0.70118259176E+00 -0.20920601053E+02 -0.76561184751E+03  0.76589794637E+03  0.00000000000E+00 0. -1.
          1    1    1    2  502    0 -0.67288215679E+02 -0.22148318233E+03  0.63819379160E+03  0.67887688108E+03  0.00000000000E+00 0. -1.
         22    1    3    3    0    0  0.25481922165E+02  0.68535610365E+02  0.49561623101E+03  0.50098094443E+03  0.00000000000E+00 0. -1.
         22    1    3    3    0    0  0.41105110922E+02  0.17386817301E+03  0.41215308964E+03  0.44921035276E+03  0.00000000000E+00 0. -1.
</event>
<event>
 7    1  0.5854318E-006  0.1053909E+03  0.7818608E-02  0.1361357E+00
          2   -1    0    0  502    0  0.00000000000E+00  0.00000000000E+00  0.97450913150E+02  0.97450913150E+02  0.00000000000E+00 0. -1.
          1   -1    0    0  501    0 -0.00000000000E+00 -0.00000000000E+00 -0.60613003234E+03  0.60613003234E+03  0.00000000000E+00 0. -1.
         25    2    1    2    0    0  0.45844357406E+02  0.46983437043E+02 -0.23237661846E+02  0.14308791807E+03  0.12500005962E+03 0.  0.
          2    1    1    2  501    0 -0.88410671709E+02 -0.64430093106E+02 -0.50032264768E+03  0.51214298350E+03  0.00000000000E+00 0. -1.
          1    1    1    2  502    0  0.42566314303E+02  0.17446656063E+02  0.14881190338E+02  0.48350043920E+02  0.00000000000E+00 0. -1.
         22    1    3    3    0    0  0.17657007551E+02  0.47466435943E+02  0.45946364489E+02  0.68380559127E+02  0.00000000000E+00 0. -1.
         22    1    3    3    0    0  0.28187349855E+02 -0.48299889993E+00 -0.69184026335E+02  0.74707358939E+02  0.00000000000E+00 0. -1.
</event>
<event>
 7    1  0.5854318E-006  0.1125395E+03  0.7818608E-02  0.1371287E+00
          2   -1    0    0  502    0  0.00000000000E+00  0.00000000000E+00  0.13428166494E+04  0.13428166494E+04  0.00000000000E+00 0. -1.
          1   -1    0    0  501    0 -0.00000000000E+00 -0.00000000000E+00 -0.55270657517E+02  0.55270657517E+02  0.00000000000E+00 0. -1.
         25    2    1    2    0    0 -0.10783400078E+03 -0.92246367989E+01  0.55612094008E+03  0.58017888549E+03  0.12499509400E+03 0.  0.
          2    1    1    2  501    0 -0.40573453642E+01  0.39454994866E+02 -0.28725470231E+02  0.48972556715E+02  0.00000000000E+00 0. -1.
          1    1    1    2  502    0  0.11189134614E+03 -0.30230358067E+02  0.76015052199E+03  0.76893586467E+03  0.00000000000E+00 0. -1.
         22    1    3    3    0    0 -0.47054499121E+02 -0.65883796734E+02  0.31059333682E+03  0.32097199479E+03  0.00000000000E+00 0.  1.
         22    1    3    3    0    0 -0.60779501655E+02  0.56659159935E+02  0.24552760326E+03  0.25920689070E+03  0.00000000000E+00 0.  1.
</event>
<event>
 7    1  0.5854318E-006  0.4361875E+02  0.7818608E-02  0.1556582E+00
          2   -1    0    0  502    0  0.00000000000E+00  0.00000000000E+00  0.18475695258E+02  0.18475695258E+02  0.00000000000E+00 0. -1.
          1   -1    0    0  501    0 -0.00000000000E+00 -0.00000000000E+00 -0.21161277264E+04  0.21161277264E+04  0.00000000000E+00 0. -1.
         25    2    1    2    0    0 -0.13253429418E+02  0.22923378989E+02 -0.34421326469E+03  0.36716307202E+03  0.12499926068E+03 0.  0.
          2    1    1    2  501    0 -0.30600504849E+01 -0.44041763748E+02 -0.17336652724E+04  0.17342272970E+04  0.00000000000E+00 0. -1.
          1    1    1    2  502    0  0.16313479903E+02  0.21118384758E+02 -0.19773494103E+02  0.33213052711E+02  0.00000000000E+00 0. -1.
         22    1    3    3    0    0 -0.46347191367E+02  0.36983801064E+02 -0.75236032739E+02  0.95793132901E+02  0.00000000000E+00 0.  1.
         22    1    3    3    0    0  0.33093761950E+02 -0.14060422075E+02 -0.26897723196E+03  0.27136993912E+03  0.00000000000E+00 0.  1.
</event>
<event>
 7    1  0.5854318E-006  0.7618157E+02  0.7818608E-02  0.1435215E+00
          2   -1    0    0  502    0  0.00000000000E+00  0.00000000000E+00  0.40203891578E+03  0.40203891578E+03  0.00000000000E+00 0. -1.
          1   -1    0    0  501    0 -0.00000000000E+00 -0.00000000000E+00 -0.53856900201E+03  0.53856900201E+03  0.00000000000E+00 0. -1.
         25    2    1    2    0    0  0.94601667029E+02 -0.14711440106E+02 -0.41453814377E+02  0.16281720807E+03  0.12500049056E+03 0.  0.
          2    1    1    2  501    0 -0.66288401395E+02  0.35952166275E+02 -0.43224269211E+03  0.43877152973E+03  0.00000000000E+00 0. -1.
          1    1    1    2  502    0 -0.28313265635E+02 -0.21240726169E+02  0.33716642025E+03  0.33901917999E+03  0.00000000000E+00 0. -1.
         22    1    3    3    0    0  0.12199712284E+02  0.98931620507E+01  0.40860061751E+02  0.43775018921E+02  0.00000000000E+00 0.  1.
         22    1    3    3    0    0  0.82401954746E+02 -0.24604602157E+02 -0.82313876128E+02  0.11904218915E+03  0.00000000000E+00 0.  1.
</event>
<event>
 7    1  0.5854318E-006  0.1081712E+03  0.7818608E-02  0.1397890E+00
          2   -1    0    0  502    0  0.00000000000E+00  0.00000000000E+00  0.63145246071E+03  0.63145246071E+03  0.00000000000E+00 0. -1.
          1   -1    0    0  501    0 -0.00000000000E+00 -0.00000000000E+00 -0.20987189555E+03  0.20987189555E+03  0.00000000000E+00 0. -1.
         25    2    1    2    0    0 -0.11796119369E+03  0.36833732321E+02  0.42523776243E+01  0.17582541480E+03  0.12499970689E+03 0.  0.
          2    1    1    2  501    0  0.89790800399E+02 -0.54525501045E+02 -0.10122301085E+03  0.14588185640E+03  0.00000000000E+00 0. -1.
          1    1    1    2  502    0  0.28170393289E+02  0.17691768724E+02  0.51855119838E+03  0.51961708506E+03  0.00000000000E+00 0. -1.
         22    1    3    3    0    0 -0.86213382945E+02  0.64726601350E+02 -0.39669914083E+02  0.11487376726E+03  0.00000000000E+00 0. -1.
         22    1    3    3    0    0 -0.31747810744E+02 -0.27892869028E+02  0.43922291707E+02  0.60951647545E+02  0.00000000000E+00 0. -1.
</event>
<event>
 7    1  0.7263981E-006  0.7806978E+02  0.7818608E-02  0.1339465E+00
          2   -1    0    0  502    0  0.00000000000E+00  0.00000000000E+00  0.16319927582E+04  0.16319927582E+04  0.00000000000E+00 0. -1.
          1   -1    0    0  501    0 -0.00000000000E+00 -0.00000000000E+00 -0.42787871715E+03  0.42787871715E+03  0.00000000000E+00 0. -1.
         25    2    1    2    0    0  0.96036571976E+02 -0.77628301784E+02 -0.41455767360E+02  0.18053395551E+03  0.12499900819E+03 0.  0.
          2    1    1    2  501    0 -0.18333870304E+02  0.72566906040E+02 -0.31147765386E+03  0.32034421410E+03  0.00000000000E+00 0. -1.
          1    1    1    2  502    0 -0.77702701672E+02  0.50613957445E+01  0.15570474623E+04  0.15589933057E+04  0.00000000000E+00 0. -1.
         22    1    3    3    0    0  0.23513614726E+02 -0.97231005458E+02 -0.16589561639E+02  0.10140005944E+03  0.00000000000E+00 0. -1.
         22    1    3    3    0    0  0.72522957250E+02  0.19602703674E+02 -0.24866205721E+02  0.79133896066E+02  0.00000000000E+00 0. -1.
</event>
<event>
 7    1  0.5854318E-006  0.1016423E+03  0.7818608E-02  0.1349904E+00
          2   -1    0    0  502    0  0.00000000000E+00  0.00000000000E+00  0.97898560414E+03  0.97898560414E+03  0.00000000000E+00 0. -1.
          1   -1    0    0  501    0 -0.00000000000E+00 -0.00000000000E+00 -0.51756857600E+03  0.51756857600E+03  0.00000000000E+00 0. -1.
         25    2    1    2    0    0 -0.10442690439E+03 -0.36337393281E+02  0.31730379566E+03  0.35851351463E+03  0.12499942768E+03 0.  0.
          2    1    1    2  501    0  0.68763969214E+02  0.74936003154E+02 -0.49066297105E+03  0.50109284488E+03  0.00000000000E+00 0. -1.
          1    1    1    2  502    0  0.35662935180E+02 -0.38598609874E+02  0.63477620353E+03  0.63694782063E+03  0.00000000000E+00 0. -1.
         22    1    3    3    0    0 -0.13245019415E+03 -0.35120118199E+02  0.24120850864E+03  0.27741308779E+03  0.00000000000E+00 0.  1.
         22    1    3    3    0    0  0.28023289760E+02 -0.12172750817E+01  0.76095287020E+02  0.81100426844E+02  0.00000000000E+00 0.  1.
</event>
<event>
 7    1  0.5854318E-006  0.9831377E+02  0.7818608E-02  0.1291640E+00
          2   -1    0    0  502    0  0.00000000000E+00  0.00000000000E+00  0.15470387438E+04  0.15470387438E+04  0.00000000000E+00 0. -1.
          1   -1    0    0  501    0 -0.00000000000E+00 -0.00000000000E+00 -0.20914365646E+04  0.20914365646E+04  0.00000000000E+00 0. -1.
         25    2    1    2    0    0 -0.72747465974E+02 -0.10098420041E+03 -0.51799875122E+02  0.18383108384E+03  0.12498254992E+03 0.  0.
          2    1    1    2  501    0  0.97671306294E+02  0.13047159254E+02 -0.19709788762E+04  0.19734405597E+04  0.00000000000E+00 0. -1.
          1    1    1    2  502    0 -0.24923840320E+02  0.87937041158E+02  0.14783809305E+04  0.14812036648E+04  0.00000000000E+00 0. -1.
         22    1    3    3    0    0 -0.83708779369E+02 -0.50563086306E+02  0.15512408031E+02  0.99017272449E+02  0.00000000000E+00 0. -1.
         22    1    3    3    0    0  0.10961313395E+02 -0.50421114106E+02 -0.67312283153E+02  0.84813811389E+02  0.00000000000E+00 0. -1.
</event>
<event>
 7    1  0.5854318E-006  0.1041870E+03  0.7818608E-02  0.1335957E+00
          2   -1    0    0  502    0  0.00000000000E+00  0.00000000000E+00  0.29528151284E+02  0.29528151284E+02  0.00000000000E+00 0. -1.
          1   -1    0    0  501    0 -0.00000000000E+00 -0.00000000000E+00 -0.13973162740E+04  0.13973162740E+04  0.00000000000E+00 0. -1.
         25    2    1    2    0    0 -0.34847082097E+02  0.10877525499E+03 -0.11561630832E+04  0.11684966145E+04  0.12499955164E+03 0.  0.
          2    1    1    2  501    0  0.66944773005E+02 -0.60681649662E+02 -0.13041318136E+03  0.15865517045E+03  0.00000000000E+00 0. -1.
          1    1    1    2  502    0 -0.32097690908E+02 -0.48093605325E+02 -0.81211858237E+02  0.99692640416E+02  0.00000000000E+00 0. -1.
         22    1    3    3    0    0 -0.16571282207E+02  0.59171954639E+02 -0.10283317348E+04  0.10301660470E+04  0.00000000000E+00 0.  1.
         22    1    3    3    0    0 -0.18275799889E+02  0.49603300348E+02 -0.12783134832E+03  0.13833056741E+03  0.00000000000E+00 0.  1.
</event>
<event>
 7    1  0.5854318E-006  0.1499341E+03  0.7818608E-02  0.1404744E+00
          2   -1    0    0  502    0  0.00000000000E+00  0.00000000000E+00  0.10296876377E+04  0.10296876377E+04  0.00000000000E+00 0. -1.
          1   -1    0    0  501    0 -0.00000000000E+00 -0.00000000000E+00 -0.39037352494E+03  0.39037352494E+03  0.00000000000E+00 0. -1.
         25    2    1    2    0    0  0.12177622847E+03  0.11879281559E+03 -0.15476082515E+03  0.26175618023E+03  0.12499680808E+03 0.  0.
          2    1    1    2  501    0 -0.21123791914E+02 -0.84040246435E+01 -0.17566299629E+03  0.17712800592E+03  0.00000000000E+00 0. -1.
          1    1    1    2  502    0 -0.10065243656E+03 -0.11038879095E+03  0.96973793423E+03  0.98117697652E+03  0.00000000000E+00 0. -1.
         22    1    3    3    0    0  0.61676217476E+02 -0.94424241681E+01 -0.80491541808E+02  0.10184303353E+03  0.00000000000E+00 0.  1.
         22    1    3    3    0    0  0.60100010994E+02  0.12823523976E+03 -0.74269283345E+02  0.15991314670E+03  0.00000000000E+00 0.  1.
</event>
<event>
 7    1  0.5854318E-006  0.3437292E+02  0.7818608E-02  0.1577482E+00
          2   -1    0    0  502    0  0.00000000000E+00  0.00000000000E+00  0.13207904168E+03  0.13207904168E+03  0.00000000000E+00 0. -1.
          1   -1    0    0  501    0 -0.00000000000E+00 -0.00000000000E+00 -0.12291207747E+04  0.12291207747E+04  0.00000000000E+00 0. -1.
         25    2    1    2    0    0 -0.32026757415E+00  0.60240655800E+01 -0.42653949329E+03  0.44452013858E+03  0.12500328927E+03 0.  0.
          2    1    1    2  501    0 -0.37230382089E+01 -0.35445537742E+02 -0.79139270402E+03  0.79219483660E+03  0.00000000000E+00 0. -1.
          1    1    1    2  502    0  0.40433057831E+01  0.29421472162E+02  0.12089046427E+03  0.12448484123E+03  0.00000000000E+00 0. -1.
         22    1    3    3    0    0  0.13768023535E+02 -0.57980710482E+02 -0.19928789337E+03  0.20800717705E+03  0.00000000000E+00 0.  1.
         22    1    3    3    0    0 -0.14088291109E+02  0.64004776062E+02 -0.22725159992E+03  0.23651296153E+03  0.00000000000E+00 0.  1.
</event>
<event>
 7    1  0.5854318E-006  0.6653179E+02  0.7818608E-02  0.1396890E+00
          2   -1    0    0  502    0  0.00000000000E+00  0.00000000000E+00  0.11620225095E+04  0.11620225095E+04  0.00000000000E+00 0. -1.
          1   -1    0    0  501    0 -0.00000000000E+00 -0.00000000000E+00 -0.31688979956E+02  0.31688979956E+02  0.00000000000E+00 0. -1.
         25    2    1    2    0    0  0.14217360151E+02 -0.93396036154E+01  0.23838478767E+03  0.26971079501E+03  0.12500897739E+03 0.  0.
          2    1    1    2  501    0  0.38208573703E+02 -0.38885475243E+02  0.36534757065E+02  0.65625938189E+02  0.00000000000E+00 0. -1.
          1    1    1    2  502    0 -0.52425933854E+02  0.48225078859E+02  0.85541398482E+03  0.85837475627E+03  0.00000000000E+00 0. -1.
         22    1    3    3    0    0  0.36197610804E+02  0.31411315540E+02  0.21000515944E+03  0.21540451425E+03  0.00000000000E+00 0.  1.
         22    1    3    3    0    0 -0.21980250654E+02 -0.40750919156E+02  0.28379628236E+02  0.54306280757E+02  0.00000000000E+00 0.  1.
</event>
<event>
 7    1  0.5854318E-006  0.2708902E+03  0.7818608E-02  0.1275974E+00
          2   -1    0    0  502    0  0.00000000000E+00  0.00000000000E+00  0.30804373733E+03  0.30804373733E+03  0.00000000000E+00 0. -1.
          1   -1    0    0  501    0 -0.00000000000E+00 -0.00000000000E+00 -0.10318861008E+04  0.10318861008E+04  0.00000000000E+00 0. -1.
         25    2    1    2    0    0  0.26361090827E+03  0.83845854538E+02 -0.28675225419E+03  0.41758014029E+03  0.12500191998E+03 0.  0.
          2    1    1    2  501    0 -0.26545149010E+03 -0.45420089320E+02 -0.65126319851E+03  0.70474905594E+03  0.00000000000E+00 0. -1.
          1    1    1    2  502    0  0.18405818318E+01 -0.38425765217E+02  0.21417308926E+03  0.21760064186E+03  0.00000000000E+00 0. -1.
         22    1    3    3    0    0  0.18438419673E+03  0.80423461066E+02 -0.12339201259E+03  0.23598952067E+03  0.00000000000E+00 0. -1.
         22    1    3    3    0    0  0.79226711537E+02  0.34223934714E+01 -0.16336024160E+03  0.18159061962E+03  0.00000000000E+00 0. -1.
</event>
<event>
 7    1  0.5854318E-006  0.2323395E+03  0.7818608E-02  0.1240715E+00
          2   -1    0    0  502    0  0.00000000000E+00  0.00000000000E+00  0.11908968282E+04  0.11908968282E+04  0.00000000000E+00 0. -1.
          1   -1    0    0  501    0 -0.00000000000E+00 -0.00000000000E+00 -0.44181150323E+03  0.44181150323E+03  0.00000000000E+00 0. -1.
         25    2    1    2    0    0  0.17080169633E+03  0.21562026686E+03  0.52307719105E+03  0.60406945265E+03  0.12499934753E+03 0.  0.
          2    1    1    2  501    0 -0.48650365530E+02 -0.40794682980E+02 -0.38048198865E+03  0.38574292983E+03  0.00000000000E+00 0. -1.
          1    1    1    2  502    0 -0.12215133080E+03 -0.17482558388E+03  0.60649012257E+03  0.64289594895E+03  0.00000000000E+00 0. -1.
         22    1    3    3    0    0  0.47146460535E+02  0.14379055286E+03  0.33678219711E+03  0.36921641367E+03  0.00000000000E+00 0. -1.
         22    1    3    3    0    0  0.12365523580E+03  0.71829713999E+02  0.18629499394E+03  0.23485303899E+03  0.00000000000E+00 0. -1.
</event>
<event>
 7    1  0.5854318E-006  0.5612215E+02  0.7818608E-02  0.1489870E+00
          2   -1    0    0  502    0  0.00000000000E+00  0.00000000000E+00  0.10568954495E+04  0.10568954495E+04  0.00000000000E+00 0. -1.
          1   -1    0    0  501    0 -0.00000000000E+00 -0.00000000000E+00 -0.63674894662E+02  0.63674894662E+02  0.00000000000E+00 0. -1.
         25    2    1    2    0    0  0.68090472602E+02 -0.49575625579E+01  0.14864641163E+03  0.20586912018E+03  0.12500179627E+03 0.  0.
          2    1    1    2  501    0 -0.50767381630E+02 -0.22356278064E+02 -0.12626362530E+02  0.56890730679E+02  0.00000000000E+00 0. -1.
          1    1    1    2  502    0 -0.17323090972E+02  0.27313840622E+02  0.85720050576E+03  0.85781049332E+03  0.00000000000E+00 0. -1.
         22    1    3    3    0    0 -0.18192420811E+02  0.39612417127E+02  0.31928592812E+02  0.54032793788E+02  0.00000000000E+00 0. -1.
         22    1    3    3    0    0  0.86282893413E+02 -0.44569979685E+02  0.11671781881E+03  0.15183632640E+03  0.00000000000E+00 0. -1.
</event>
<event>
 7    1  0.5854318E-006  0.9232750E+02  0.7818608E-02  0.1425742E+00
          2   -1    0    0  502    0  0.00000000000E+00  0.00000000000E+00  0.10577591447E+03  0.10577591447E+03  0.00000000000E+00 0. -1.
          1   -1    0    0  501    0 -0.00000000000E+00 -0.00000000000E+00 -0.77413383702E+03  0.77413383702E+03  0.00000000000E+00 0. -1.
         25    2    1    2    0    0  0.36365290277E+02 -0.55184098563E+02 -0.20049392191E+03  0.24533697947E+03  0.12499880681E+03 0.  0.
          2    1    1    2  501    0 -0.51417156049E+02  0.82716376818E+02 -0.54377709654E+03  0.55243031565E+03  0.00000000000E+00 0. -1.
          1    1    1    2  502    0  0.15051865773E+02 -0.27532278254E+02  0.75913095895E+02  0.82142456363E+02  0.00000000000E+00 0. -1.
         22    1    3    3    0    0 -0.27793979862E+02 -0.13456171936E+02 -0.15922249209E+00  0.30880402062E+02  0.00000000000E+00 0. -1.
         22    1    3    3    0    0  0.64159270138E+02 -0.41727926628E+02 -0.20033469942E+03  0.21445657741E+03  0.00000000000E+00 0. -1.
</event>
<event>
 7    1  0.5854318E-006  0.5640862E+02  0.7818608E-02  0.1428936E+00
          2   -1    0    0  502    0  0.00000000000E+00  0.00000000000E+00  0.30336155073E+03  0.30336155073E+03  0.00000000000E+00 0. -1.
          1   -1    0    0  501    0 -0.00000000000E+00 -0.00000000000E+00 -0.52028659447E+03  0.52028659447E+03  0.00000000000E+00 0. -1.
         25    2    1    2    0    0 -0.12844504866E+02  0.23817620826E+02  0.33059292413E+02  0.13209032612E+03  0.12499070794E+03 0.  0.
          2    1    1    2  501    0 -0.46681908650E+02 -0.18257063986E+02 -0.46535310770E+03  0.46804490792E+03  0.00000000000E+00 0. -1.
          1    1    1    2  502    0  0.59526413517E+02 -0.55605568406E+01  0.21536877154E+03  0.22351291116E+03  0.00000000000E+00 0. -1.
         22    1    3    3    0    0  0.18271940159E+02 -0.39144228946E+02 -0.16382997266E+02  0.46201050382E+02  0.00000000000E+00 0.  1.
         22    1    3    3    0    0 -0.31116445026E+02  0.62961849773E+02  0.49442289679E+02  0.85889275737E+02  0.00000000000E+00 0.  1.
</event>
<event>
 7    1  0.5854318E-006  0.9116063E+02  0.7818608E-02  0.1356639E+00
          2   -1    0    0  502    0  0.00000000000E+00  0.00000000000E+00  0.93651228000E+03  0.93651228000E+03  0.00000000000E+00 0. -1.
          1   -1    0    0  501    0 -0.00000000000E+00 -0.00000000000E+00 -0.14663254375E+04  0.14663254375E+04  0.00000000000E+00 0. -1.
         25    2    1    2    0    0  0.82954306380E+02 -0.10130597390E+03  0.53416963283E+02  0.18874404599E+03  0.12500650238E+03 0.  0.
          2    1    1    2  501    0 -0.52809472436E+02  0.16537216623E+02 -0.13956302402E+04  0.13967269194E+04  0.00000000000E+00 0. -1.
          1    1    1    2  502    0 -0.30144833943E+02  0.84768757277E+02  0.81240011949E+03  0.81736675206E+03  0.00000000000E+00 0. -1.
         22    1    3    3    0    0  0.74716028797E+02 -0.51073139228E+02  0.88767001897E+02  0.12676959863E+03  0.00000000000E+00 0. -1.
         22    1    3    3    0    0  0.82382775823E+01 -0.50232834672E+02 -0.35350038614E+02  0.61974447369E+02  0.00000000000E+00 0. -1.
</event>
<event>
 7    1  0.5854318E-006  0.1342518E+03  0.7818608E-02  0.1253652E+00
          2   -1    0    0  502    0  0.00000000000E+00  0.00000000000E+00  0.22449630285E+04  0.22449630285E+04  0.00000000000E+00 0. -1.
          1   -1    0    0  501    0 -0.00000000000E+00 -0.00000000000E+00 -0.12967107759E+03  0.12967107759E+03  0.00000000000E+00 0. -1.
         25    2    1    2    0    0  0.74162191140E+02  0.74620354145E+02  0.81118104322E+03  0.82747056744E+03  0.12499850897E+03 0.  0.
          2    1    1    2  501    0 -0.50584025017E+02  0.82180215156E+02 -0.97166170219E+02  0.13694376943E+03  0.00000000000E+00 0. -1.
          1    1    1    2  502    0 -0.23578166123E+02 -0.15680056930E+03  0.14012770779E+04  0.14102197692E+04  0.00000000000E+00 0. -1.
         22    1    3    3    0    0  0.47175098076E+02  0.10152674372E+03  0.42800531102E+03  0.44240447086E+03  0.00000000000E+00 0. -1.
         22    1    3    3    0    0  0.26987093064E+02 -0.26906389571E+02  0.38317573220E+03  0.38506609658E+03  0.00000000000E+00 0. -1.
</event>
<event>
 7    1  0.5854318E-006  0.2727799E+03  0.7818608E-02  0.1271689E+00
          2   -1    0    0  502    0  0.00000000000E+00  0.00000000000E+00  0.13929834755E+04  0.13929834755E+04  0.00000000000E+00 0. -1.
          1   -1    0    0  501    0 -0.00000000000E+00 -0.00000000000E+00 -0.30993754782E+04  0.30993754782E+04  0.00000000000E+00 0. -1.
         25    2    1    2    0    0  0.21853268016E+03  0.98422006213E+02 -0.36072400956E+03  0.45076684433E+03  0.12500205305E+03 0.  0.
          2    1    1    2  501    0 -0.25797219631E+03 -0.10383663592E+03 -0.26861564906E+04  0.27005126167E+04  0.00000000000E+00 0. -1.
          1    1    1    2  502    0  0.39439516147E+02  0.54146297038E+01  0.13404884975E+04  0.13410794926E+04  0.00000000000E+00 0. -1.
         22    1    3    3    0    0  0.18071366343E+03  0.12512616265E+03 -0.32471713005E+03  0.39211630835E+03  0.00000000000E+00 0.  1.
         22    1    3    3    0    0  0.37819016733E+02 -0.26704156441E+02 -0.36006879515E+02  0.58650535976E+02  0.00000000000E+00 0.  1.
</event>
<event>
 7    1  0.5854318E-006  0.1116804E+03  0.7818608E-02  0.1314648E+00
          2   -1    0    0  502    0  0.00000000000E+00  0.00000000000E+00  0.91343190691E+03  0.91343190691E+03  0.00000000000E+00 0. -1.
          1   -1    0    0  501    0 -0.00000000000E+00 -0.00000000000E+00 -0.55514112410E+03  0.55514112410E+03  0.00000000000E+00 0. -1.
         25    2    1    2    0    0 -0.20035256829E+02  0.12471736479E+03  0.30208792756E+02  0.18025941365E+03  0.12500020981E+03 0.  0.
          2    1    1    2  501    0  0.72065432737E+02 -0.85504008880E+02 -0.47226294720E+03  0.48532118585E+03  0.00000000000E+00 0. -1.
          1    1    1    2  502    0 -0.52030175908E+02 -0.39213355911E+02  0.80034493726E+03  0.80299243152E+03  0.00000000000E+00 0. -1.
         22    1    3    3    0    0  0.10379771727E+02  0.81847708147E+02  0.74774635876E+02  0.11134645554E+03  0.00000000000E+00 0.  1.
         22    1    3    3    0    0 -0.30415028556E+02  0.42869656644E+02 -0.44565843120E+02  0.68912958113E+02  0.00000000000E+00 0.  1.
</event>
<event>
 7    1  0.5854318E-006  0.6915630E+02  0.7818608E-02  0.1375552E+00
          2   -1    0    0  502    0  0.00000000000E+00  0.00000000000E+00  0.22089453325E+03  0.22089453325E+03  0.00000000000E+00 0. -1.
          1   -1    0    0  501    0 -0.00000000000E+00 -0.00000000000E+00 -0.55634974669E+03  0.55634974669E+03  0.00000000000E+00 0. -1.
         25    2    1    2    0    0 -0.55916155426E+02 -0.74305036294E+01  0.10864196755E+02  0.13756775634E+03  0.12500011196E+03 0.  0.
          2    1    1    2  501    0  0.54472321909E+01  0.62078309918E+02 -0.48142749393E+03  0.48544394198E+03  0.00000000000E+00 0. -1.
          1    1    1    2  502    0  0.50468923235E+02 -0.54647806288E+02  0.13510808373E+03  0.15423258162E+03  0.00000000000E+00 0. -1.
         22    1    3    3    0    0 -0.91974057290E+02 -0.14051692736E+02 -0.12822422362E+02  0.93920667578E+02  0.00000000000E+00 0. -1.
         22    1    3    3    0    0  0.36057901864E+02  0.66211891070E+01  0.23686619117E+02  0.43647088760E+02  0.00000000000E+00 0. -1.
</event>
<event>
 7    1  0.5854318E-006  0.2044463E+03  0.7818608E-02  0.1199837E+00
          2   -1    0    0  502    0  0.00000000000E+00  0.00000000000E+00  0.61982147276E+03  0.61982147276E+03  0.00000000000E+00 0. -1.
          1   -1    0    0  501    0 -0.00000000000E+00 -0.00000000000E+00 -0.18314505894E+04  0.18314505894E+04  0.00000000000E+00 0. -1.
         25    2    1    2    0    0  0.94088833058E+02  0.41226457633E+02  0.48465970678E+01  0.16186628703E+03  0.12499950423E+03 0.  0.
          2    1    1    2  501    0 -0.18409371203E+03 -0.10587364298E+03 -0.17406950215E+04  0.17536016883E+04  0.00000000000E+00 0. -1.
          1    1    1    2  502    0  0.90004878968E+02  0.64647185348E+02  0.52421930782E+03  0.53580408687E+03  0.00000000000E+00 0. -1.
         22    1    3    3    0    0  0.21590233480E+01 -0.32844388887E+02  0.25978924756E+02  0.41932323984E+02  0.00000000000E+00 0. -1.
         22    1    3    3    0    0  0.91929809710E+02  0.74070846521E+02 -0.21132327689E+02  0.11993396304E+03  0.00000000000E+00 0. -1.
</event>
<event>
 7    1  0.5854318E-006  0.8885593E+02  0.7818608E-02  0.1328202E+00
          2   -1    0    0  502    0  0.00000000000E+00  0.00000000000E+00  0.96955463914E+03  0.96955463914E+03  0.00000000000E+00 0. -1.
          1   -1    0    0  501    0 -0.00000000000E+00 -0.00000000000E+00 -0.30220608688E+02  0.30220608688E+02  0.00000000000E+00 0. -1.
         25    2    1    2    0    0  0.81277245320E+02 -0.52329943580E+02  0.33301647047E+03  0.36860456382E+03  0.12499976505E+03 0.  0.
          2    1    1    2  501    0 -0.93225599426E+02 -0.19247923295E+02  0.24936940462E+03  0.26692057789E+03  0.00000000000E+00 0. -1.
          1    1    1    2  502    0  0.11948354106E+02  0.71577866876E+02  0.35694815536E+03  0.36425010612E+03  0.00000000000E+00 0. -1.
         22    1    3    3    0    0  0.75736415303E+02 -0.79834348640E+02  0.31858265828E+03  0.33705257451E+03  0.00000000000E+00 0.  1.
         22    1    3    3    0    0  0.55408300170E+01  0.27504405059E+02  0.14433812182E+02  0.31551989304E+02  0.00000000000E+00 0.  1.
</event>
<event>
 7    1  0.5854318E-006  0.8146518E+02  0.7818608E-02  0.1404878E+00
          2   -1    0    0  502    0  0.00000000000E+00  0.00000000000E+00  0.18627121894E+04  0.18627121894E+04  0.00000000000E+00 0. -1.
          1   -1    0    0  501    0 -0.00000000000E+00 -0.00000000000E+00 -0.27040853365E+03  0.27040853365E+03  0.00000000000E+00 0. -1.
         25    2    1    2    0    0 -0.11125972228E+02  0.11975948850E+03  0.25353684393E+03  0.30720059853E+03  0.12500061664E+03 0.  0.
          2    1    1    2  501    0 -0.32213472846E+01 -0.80501770534E+02 -0.23662979762E+03  0.24996914462E+03  0.00000000000E+00 0. -1.
          1    1    1    2  502    0  0.14347319513E+02 -0.39257717968E+02  0.15753966094E+04  0.15759509799E+04  0.00000000000E+00 0. -1.
         22    1    3    3    0    0 -0.88278609426E+01  0.10443408116E+03  0.77165152338E+02  0.13014941095E+03  0.00000000000E+00 0. -1.
         22    1    3    3    0    0 -0.22981112858E+01  0.15325407346E+02  0.17637169159E+03  0.17705118757E+03  0.00000000000E+00 0. -1.
</event>
<event>
 7    1  0.5854318E-006  0.4698636E+03  0.7818608E-02  0.1203840E+00
          2   -1    0    0  502    0  0.00000000000E+00  0.00000000000E+00  0.49644206417E+03  0.49644206417E+03  0.00000000000E+00 0. -1.
          1   -1    0    0  501    0 -0.00000000000E+00 -0.00000000000E+00 -0.19264247447E+04  0.19264247447E+04  0.00000000000E+00 0. -1.
         25    2    1    2    0    0  0.30815500417E+03 -0.37676545052E+03 -0.59921360368E+03  0.78204442413E+03  0.12499930870E+03 0.  0.
          2    1    1    2  501    0 -0.45274262659E+02 -0.90654056663E+01 -0.11006090972E+04  0.11015771990E+04  0.00000000000E+00 0. -1.
          1    1    1    2  502    0 -0.26288074151E+03  0.38583085619E+03  0.26984002032E+03  0.53924518580E+03  0.00000000000E+00 0. -1.
         22    1    3    3    0    0  0.13860185250E+03 -0.86579575356E+02 -0.23747566834E+03  0.28827276916E+03  0.00000000000E+00 0. -1.
         22    1    3    3    0    0  0.16955315167E+03 -0.29018587517E+03 -0.36173793534E+03  0.49377165497E+03  0.00000000000E+00 0. -1.
</event>
<event>
 7    1  0.5854318E-006  0.1091380E+03  0.7818608E-02  0.1300079E+00
          2   -1    0    0  502    0  0.00000000000E+00  0.00000000000E+00  0.28925138012E+04  0.28925138012E+04  0.00000000000E+00 0. -1.
          1   -1    0    0  501    0 -0.00000000000E+00 -0.00000000000E+00 -0.14681215603E+03  0.14681215603E+03  0.00000000000E+00 0. -1.
         25    2    1    2    0    0  0.11823715184E+03 -0.89141858312E+01  0.60726463910E+03  0.63123050080E+03  0.12498846527E+03 0.  0.
          2    1    1    2  501    0 -0.37145490020E+02 -0.66458674351E+02 -0.12261781707E+03  0.14433181177E+03  0.00000000000E+00 0. -1.
          1    1    1    2  502    0 -0.81091661815E+02  0.75372860182E+02  0.22610548231E+04  0.22637636446E+04  0.00000000000E+00 0. -1.
         22    1    3    3    0    0  0.99971501070E+01  0.36933168104E+02  0.57691738675E+02  0.69226719031E+02  0.00000000000E+00 0.  1.
         22    1    3    3    0    0  0.10824000173E+03 -0.45847353936E+02  0.54957290043E+03  0.56200378177E+03  0.00000000000E+00 0.  1.
</event>
<event>
 7    1  0.5854318E-006  0.6216412E+02  0.7818608E-02  0.1425171E+00
          2   -1    0    0  502    0  0.00000000000E+00  0.00000000000E+00  0.30950821607E+04  0.30950821607E+04  0.00000000000E+00 0. -1.
          1   -1    0    0  501    0 -0.00000000000E+00 -0.00000000000E+00 -0.22496756378E+03  0.22496756378E+03  0.00000000000E+00 0. -1.
         25    2    1    2    0    0  0.22052730678E+02  0.79356704717E+02 -0.13271775054E+03  0.20005535092E+03  0.12499733042E+03 0.  0.
          2    1    1    2  501    0 -0.43276372300E+02 -0.37638046627E+02 -0.44319959857E+02  0.72482589600E+02  0.00000000000E+00 0. -1.
          1    1    1    2  502    0  0.21223641622E+02 -0.41718658090E+02  0.30471523073E+04  0.30475117839E+04  0.00000000000E+00 0. -1.
         22    1    3    3    0    0  0.52483952917E+02  0.98753386057E+02 -0.86302191185E+02  0.14126168898E+03  0.00000000000E+00 0. -1.
         22    1    3    3    0    0 -0.30431222240E+02 -0.19396681340E+02 -0.46415559354E+02  0.58793661939E+02  0.00000000000E+00 0. -1.
</event>
<event>
 7    1  0.5854318E-006  0.6673255E+02  0.7818608E-02  0.1371964E+00
          2   -1    0    0  502    0  0.00000000000E+00  0.00000000000E+00  0.66003728340E+03  0.66003728340E+03  0.00000000000E+00 0. -1.
          1   -1    0    0  501    0 -0.00000000000E+00 -0.00000000000E+00 -0.14245298443E+04  0.14245298443E+04  0.00000000000E+00 0. -1.
         25    2    1    2    0    0  0.38426109256E+00  0.43523023983E+01  0.47931323025E+02  0.13394577010E+03  0.12499986963E+03 0.  0.
          2    1    1    2  501    0 -0.67077039178E+02 -0.20488178288E+01 -0.13787474315E+04  0.13803796604E+04  0.00000000000E+00 0. -1.
          1    1    1    2  502    0  0.66692778086E+02 -0.23034845695E+01  0.56632354760E+03  0.57024169722E+03  0.00000000000E+00 0. -1.
         22    1    3    3    0    0 -0.26683511247E+02 -0.10349365113E+01  0.84221443619E+02  0.88353451722E+02  0.00000000000E+00 0.  1.
         22    1    3    3    0    0  0.27067772339E+02  0.53872389095E+01 -0.36290120594E+02  0.45592318380E+02  0.00000000000E+00 0.  1.
</event>
<event>
 7    1  0.5854318E-006  0.6829174E+02  0.7818608E-02  0.1503145E+00
          2   -1    0    0  502    0  0.00000000000E+00  0.00000000000E+00  0.14631364912E+03  0.14631364912E+03  0.00000000000E+00 0. -1.
          1   -1    0    0  501    0 -0.00000000000E+00 -0.00000000000E+00 -0.71794596213E+03  0.71794596213E+03  0.00000000000E+00 0. -1.
         25    2    1    2    0    0  0.63344089715E+02 -0.47909677695E+02  0.27505023518E+02  0.15062964763E+03  0.12499981403E+03 0.  0.
          2    1    1    2  501    0 -0.40163587127E+02  0.55039727957E+02 -0.65195745700E+03  0.65550820828E+03  0.00000000000E+00 0. -1.
          1    1    1    2  502    0 -0.23180502589E+02 -0.71300502617E+01  0.52820120477E+02  0.58121755343E+02  0.00000000000E+00 0. -1.
         22    1    3    3    0    0 -0.17742058929E+02 -0.51504135932E+02  0.41221514076E+02  0.68313028742E+02  0.00000000000E+00 0. -1.
         22    1    3    3    0    0  0.81086148644E+02  0.35944582375E+01 -0.13716490559E+02  0.82316618888E+02  0.00000000000E+00 0. -1.
</event>
<event>
 7    1  0.5854318E-006  0.1954297E+03  0.7818608E-02  0.1215375E+00
          2   -1    0    0  502    0  0.00000000000E+00  0.00000000000E+00  0.11900586737E+04  0.11900586737E+04  0.00000000000E+00 0. -1.
          1   -1    0    0  501    0 -0.00000000000E+00 -0.00000000000E+00 -0.93946164857E+02  0.93946164857E+02  0.00000000000E+00 0. -1.
         25    2    1    2    0    0 -0.27275196398E+02 -0.99666538171E+00  0.11429554145E+03  0.17156000639E+03  0.12499774125E+03 0.  0.
          2    1    1    2  501    0  0.14282051346E+03  0.15861023216E+03  0.15744338079E+03  0.26522315692E+03  0.00000000000E+00 0. -1.
          1    1    1    2  502    0 -0.11554531706E+03 -0.15761356678E+03  0.82437358665E+03  0.84722167530E+03  0.00000000000E+00 0. -1.
         22    1    3    3    0    0 -0.75953466310E+01  0.35425855239E+02  0.12387687386E+03  0.12906649599E+03  0.00000000000E+00 0.  1.
         22    1    3    3    0    0 -0.19679849767E+02 -0.36422520620E+02 -0.95813324117E+01  0.42493510399E+02  0.00000000000E+00 0.  1.
</event>
<event>
 7    1  0.5854318E-006  0.1217050E+03  0.7818608E-02  0.1317826E+00
          2   -1    0    0  502    0  0.00000000000E+00  0.00000000000E+00  0.10925748361E+04  0.10925748361E+04  0.00000000000E+00 0. -1.
          1   -1    0    0  501    0 -0.00000000000E+00 -0.00000000000E+00 -0.42161507443E+03  0.42161507443E+03  0.00000000000E+00 0. -1.
         25    2    1    2    0    0 -0.17605418425E+03  0.29020521601E+02 -0.12732351404E+03  0.25234026493E+03  0.12500826217E+03 0.  0.
          2    1    1    2  501    0  0.57930114525E+02 -0.44702636470E+01 -0.22453990298E+03  0.23193544243E+03  0.00000000000E+00 0. -1.
          1    1    1    2  502    0  0.11812406973E+03 -0.24550257954E+02  0.10228231787E+04  0.10299142032E+04  0.00000000000E+00 0. -1.
         22    1    3    3    0    0  0.10567080118E+02 -0.21802734923E+02 -0.10728313232E+02  0.26497530775E+02  0.00000000000E+00 0.  1.
         22    1    3    3    0    0 -0.18662126437E+03  0.50823256524E+02 -0.11659520081E+03  0.22584273416E+03  0.00000000000E+00 0.  1.
</event>
<event>
 7    1  0.5854318E-006  0.1747618E+03  0.7818608E-02  0.1327066E+00
          2   -1    0    0  502    0  0.00000000000E+00  0.00000000000E+00  0.20156574476E+04  0.20156574476E+04  0.00000000000E+00 0. -1.
          1   -1    0    0  501    0 -0.00000000000E+00 -0.00000000000E+00 -0.30037432070E+04  0.30037432070E+04  0.00000000000E+00 0. -1.
         25    2    1    2    0    0  0.79988717881E+02  0.13094570069E+03 -0.88934835623E+01  0.19811424320E+03  0.12500075116E+03 0.  0.
          2    1    1    2  501    0 -0.11725443458E+03 -0.13048818924E+03 -0.28974053100E+04  0.29027113705E+04  0.00000000000E+00 0. -1.
          1    1    1    2  502    0  0.37265716699E+02 -0.45751145047E+00  0.19182130342E+04  0.19185750409E+04  0.00000000000E+00 0. -1.
         22    1    3    3    0    0  0.85019957115E+01 -0.23917520116E+02  0.82440009767E+01  0.26688860067E+02  0.00000000000E+00 0. -1.
         22    1    3    3    0    0  0.71486722169E+02  0.15486322081E+03 -0.17137484539E+02  0.17142538313E+03  0.00000000000E+00 0. -1.
</event>
<event>
 7    1  0.5854318E-006  0.9977464E+02  0.7818608E-02  0.1320295E+00
          2   -1    0    0  502    0  0.00000000000E+00  0.00000000000E+00  0.18668625187E+04  0.18668625187E+04  0.00000000000E+00 0. -1.
          1   -1    0    0  501    0 -0.00000000000E+00 -0.00000000000E+00 -0.24220744733E+03  0.24220744733E+03  0.00000000000E+00 0. -1.
         25    2    1    2    0    0  0.14640556841E+03  0.80441465607E+02  0.10007494146E+03  0.23139972410E+03  0.12500167420E+03 0.  0.
          2    1    1    2  501    0 -0.57097336260E+02 -0.39316714220E+02 -0.16825765942E+03  0.18197953121E+03  0.00000000000E+00 0. -1.
          1    1    1    2  502    0 -0.89308232148E+02 -0.41124751386E+02  0.16928377894E+04  0.16956907108E+04  0.00000000000E+00 0. -1.
         22    1    3    3    0    0  0.81369079018E+02  0.53858536162E+02  0.12344614379E+03  0.15735507413E+03  0.00000000000E+00 0.  1.
         22    1    3    3    0    0  0.65036489390E+02  0.26582929445E+02 -0.23371202329E+02  0.74044649965E+02  0.00000000000E+00 0.  1.
</event>
<event>
 7    1  0.5854318E-006  0.8647120E+02  0.7818608E-02  0.1315166E+00
          2   -1    0    0  502    0  0.00000000000E+00  0.00000000000E+00  0.29388859322E+04  0.29388859322E+04  0.00000000000E+00 0. -1.
          1   -1    0    0  501    0 -0.00000000000E+00 -0.00000000000E+00 -0.21554863688E+03  0.21554863688E+03  0.00000000000E+00 0. -1.
         25    2    1    2    0    0  0.75916729205E+02  0.13555560708E+03  0.17039460297E+03  0.26229342110E+03  0.12499938258E+03 0.  0.
          2    1    1    2  501    0 -0.80162419196E+01 -0.83369665497E+02 -0.15854162962E+03  0.17930479520E+03  0.00000000000E+00 0. -1.
          1    1    1    2  502    0 -0.67900487286E+02 -0.52185941586E+02  0.27114843219E+04  0.27128363528E+04  0.00000000000E+00 0. -1.
         22    1    3    3    0    0  0.34326674532E+02  0.79792468572E+02  0.99671766771E+01  0.87432849869E+02  0.00000000000E+00 0. -1.
         22    1    3    3    0    0  0.41590054673E+02  0.55763138510E+02  0.16042742629E+03  0.17486057123E+03  0.00000000000E+00 0. -1.
</event>
<event>
 7    1  0.5854318E-006  0.9524201E+02  0.7818608E-02  0.1338324E+00
          2   -1    0    0  502    0  0.00000000000E+00  0.00000000000E+00  0.11455515867E+04  0.11455515867E+04  0.00000000000E+00 0. -1.
          1   -1    0    0  501    0 -0.00000000000E+00 -0.00000000000E+00 -0.12502564577E+04  0.12502564577E+04  0.00000000000E+00 0. -1.
         25    2    1    2    0    0  0.44936011096E+02 -0.79134966997E+02  0.16692122639E+03  0.22752824076E+03  0.12499926571E+03 0.  0.
          2    1    1    2  501    0 -0.88711490755E+02  0.35282336306E+02 -0.12170694485E+04  0.12208081808E+04  0.00000000000E+00 0. -1.
          1    1    1    2  502    0  0.43775479659E+02  0.43852630691E+02  0.94544335109E+03  0.94747162277E+03  0.00000000000E+00 0. -1.
         22    1    3    3    0    0  0.73607190380E+02 -0.56556214963E+02  0.50820633817E+02  0.10582703222E+03  0.00000000000E+00 0. -1.
         22    1    3    3    0    0 -0.28671179284E+02 -0.22578752035E+02  0.11610059257E+03  0.12170120854E+03  0.00000000000E+00 0. -1.
</event>
<event>
 7    1  0.5854318E-006  0.9728378E+02  0.7818608E-02  0.1316888E+00
          2   -1    0    0  502    0  0.00000000000E+00  0.00000000000E+00  0.81952932661E+03  0.81952932661E+03  0.00000000000E+00 0. -1.
          1   -1    0    0  501    0 -0.00000000000E+00 -0.00000000000E+00 -0.75116830180E+03  0.75116830180E+03  0.00000000000E+00 0. -1.
         25    2    1    2    0    0  0.10491517242E+02 -0.16687794138E+03 -0.17766173462E+02  0.20951915667E+03  0.12499728333E+03 0.  0.
          2    1    1    2  501    0  0.23144036390E+01  0.94703428612E+02 -0.63213084002E+03  0.63918971734E+03  0.00000000000E+00 0. -1.
          1    1    1    2  502    0 -0.12805920881E+02  0.72174512771E+02  0.71825803829E+03  0.72198875439E+03  0.00000000000E+00 0. -1.
         22    1    3    3    0    0  0.44190397571E+02 -0.16928319075E+03 -0.13719559354E+02  0.17549306601E+03  0.00000000000E+00 0.  1.
         22    1    3    3    0    0 -0.33698880329E+02  0.24052493696E+01 -0.40466141083E+01  0.34026090662E+02  0.00000000000E+00 0.  1.
</event>
<event>
 7    1  0.5854318E-006  0.1647528E+03  0.7818608E-02  0.1374624E+00
          2   -1    0    0  502    0  0.00000000000E+00  0.00000000000E+00  0.12963952755E+04  0.12963952755E+04  0.00000000000E+00 0. -1.
          1   -1    0    0  501    0 -0.00000000000E+00 -0.00000000000E+00 -0.24204771251E+04  0.24204771251E+04  0.00000000000E+00 0. -1.
         25    2    1    2    0    0 -0.15914507798E+02 -0.17490058960E+03 -0.93816507444E+03  0.96261117913E+03  0.12499234971E+03 0.  0.
          2    1    1    2  501    0 -0.65307959404E+01  0.16108176636E+03 -0.14655330721E+04  0.14743734846E+04  0.00000000000E+00 0. -1.
          1    1    1    2  502    0  0.22445303738E+02  0.13818823241E+02  0.12796162970E+04  0.12798877369E+04  0.00000000000E+00 0. -1.
         22    1    3    3    0    0 -0.22349745665E+01 -0.15064452450E+03 -0.46866890866E+03  0.49228986768E+03  0.00000000000E+00 0. -1.
         22    1    3    3    0    0 -0.13679533232E+02 -0.24256065094E+02 -0.46949616578E+03  0.47032131145E+03  0.00000000000E+00 0. -1.
</event>
<event>
 7    1  0.5854318E-006  0.4428845E+03  0.7818608E-02  0.1255103E+00
          2   -1    0    0  502    0  0.00000000000E+00  0.00000000000E+00  0.19930419899E+04  0.19930419899E+04  0.00000000000E+00 0. -1.
          1   -1    0    0  501    0 -0.00000000000E+00 -0.00000000000E+00 -0.28191243175E+03  0.28191243175E+03  0.00000000000E+00 0. -1.
         25    2    1    2    0    0 -0.45405405631E+03  0.65100972121E+02  0.37400022408E+03  0.60490212434E+03  0.12500875889E+03 0.  0.
          2    1    1    2  501    0  0.42719521585E+03 -0.75589888469E+02  0.11666061220E+03  0.44924301010E+03  0.00000000000E+00 0. -1.
          1    1    1    2  502    0  0.26858840466E+02  0.10488916348E+02  0.12204687219E+04  0.12208092872E+04  0.00000000000E+00 0. -1.
         22    1    3    3    0    0 -0.22248902133E+03  0.39042837607E+02  0.26329709682E+03  0.34691651585E+03  0.00000000000E+00 0. -1.
         22    1    3    3    0    0 -0.23156503499E+03  0.26058134514E+02  0.11070312726E+03  0.25798560849E+03  0.00000000000E+00 0. -1.
</event>
<event>
 7    1  0.5854318E-006  0.1084935E+03  0.7818608E-02  0.1294906E+00
          2   -1    0    0  502    0  0.00000000000E+00  0.00000000000E+00  0.24705406642E+04  0.24705406642E+04  0.00000000000E+00 0. -1.
          1   -1    0    0  501    0 -0.00000000000E+00 -0.00000000000E+00 -0.63758899547E+03  0.63758899547E+03  0.00000000000E+00 0. -1.
         25    2    1    2    0    0 -0.59019807664E+02 -0.16723032067E+03 -0.10292736180E+03  0.24014176674E+03  0.12499883391E+03 0.  0.
          2    1    1    2  501    0  0.55362808742E+02  0.86971206435E+02 -0.45967113147E+03  0.47109084097E+03  0.00000000000E+00 0. -1.
          1    1    1    2  502    0  0.36569989221E+01  0.80259114236E+02  0.23955501620E+04  0.23968970520E+04  0.00000000000E+00 0. -1.
         22    1    3    3    0    0 -0.61361922753E+02 -0.49788143622E+02 -0.93323663971E+02  0.12228430425E+03  0.00000000000E+00 0.  1.
         22    1    3    3    0    0  0.23421150889E+01 -0.11744217705E+03 -0.96036978295E+01  0.11785746249E+03  0.00000000000E+00 0.  1.
</event>
<event>
 7    1  0.5854318E-006  0.4533384E+02  0.7818608E-02  0.1497794E+00
          2   -1    0    0  502    0  0.00000000000E+00  0.00000000000E+00  0.16894177557E+04  0.16894177557E+04  0.00000000000E+00 0. -1.
          1   -1    0    0  501    0 -0.00000000000E+00 -0.00000000000E+00 -0.72383997128E+02  0.72383997128E+02  0.00000000000E+00 0. -1.
         25    2    1    2    0    0  0.41964421256E+02 -0.11514257050E+02  0.48674654399E+03  0.50442152131E+03  0.12500112924E+03 0.  0.
          2    1    1    2  501    0 -0.37408916036E+02 -0.26112670346E+02 -0.55016286876E+02  0.71470905782E+02  0.00000000000E+00 0. -1.
          1    1    1    2  502    0 -0.45555052205E+01  0.37626927396E+02  0.11853035014E+04  0.11859093257E+04  0.00000000000E+00 0. -1.
         22    1    3    3    0    0  0.11222839679E+01 -0.63915906246E+02  0.19520590438E+03  0.20540654249E+03  0.00000000000E+00 0. -1.
         22    1    3    3    0    0  0.40842137289E+02  0.52401649196E+02  0.29154063961E+03  0.29901497883E+03  0.00000000000E+00 0. -1.
</event>
<event>
 7    1  0.5854318E-006  0.1632567E+03  0.7818608E-02  0.1347387E+00
          2   -1    0    0  502    0  0.00000000000E+00  0.00000000000E+00  0.11735363430E+03  0.11735363430E+03  0.00000000000E+00 0. -1.
          1   -1    0    0  501    0 -0.00000000000E+00 -0.00000000000E+00 -0.10413638508E+04  0.10413638508E+04  0.00000000000E+00 0. -1.
         25    2    1    2    0    0  0.92307904478E+02 -0.15296810003E+03 -0.27216241582E+03  0.34873606193E+03  0.12499788580E+03 0.  0.
          2    1    1    2  501    0  0.11334181179E+02  0.31450017175E+02 -0.64938933347E+03  0.65024923965E+03  0.00000000000E+00 0. -1.
          1    1    1    2  502    0 -0.10364208566E+03  0.12151808285E+03 -0.24584671775E+01  0.15973218348E+03  0.00000000000E+00 0. -1.
         22    1    3    3    0    0  0.81359574454E+02 -0.96861756323E+02 -0.83420820379E+02  0.15152759968E+03  0.00000000000E+00 0.  1.
         22    1    3    3    0    0  0.10948330024E+02 -0.56106343702E+02 -0.18874159544E+03  0.19720846225E+03  0.00000000000E+00 0.  1.
</event>
<event>
 7    1  0.5854318E-006  0.9640658E+02  0.7818608E-02  0.1384765E+00
          2   -1    0    0  502    0  0.00000000000E+00  0.00000000000E+00  0.83116999553E+03  0.83116999553E+03  0.00000000000E+00 0. -1.
          1   -1    0    0  501    0 -0.00000000000E+00 -0.00000000000E+00 -0.27372298422E+03  0.27372298422E+03  0.00000000000E+00 0. -1.
         25    2    1    2    0    0  0.91179856497E+02 -0.30910720785E+02  0.22781882055E+03  0.27712069869E+03  0.12500091101E+03 0.  0.
          2    1    1    2  501    0 -0.96186724778E+02 -0.10253255525E+02 -0.23889646888E+03  0.25773734327E+03  0.00000000000E+00 0. -1.
          1    1    1    2  502    0  0.50068682804E+01  0.41163976310E+02  0.56852465964E+03  0.57003493779E+03  0.00000000000E+00 0. -1.
         22    1    3    3    0    0  0.64350748091E+02  0.35524655400E+01  0.22421883944E+03  0.23329750696E+03  0.00000000000E+00 0.  1.
         22    1    3    3    0    0  0.26829108406E+02 -0.34463186325E+02  0.35999811105E+01  0.43823191732E+02  0.00000000000E+00 0.  1.
</event>
<event>
 7    1  0.5854318E-006  0.7767490E+02  0.7818608E-02  0.1400885E+00
          2   -1    0    0  502    0  0.00000000000E+00  0.00000000000E+00  0.33270275637E+04  0.33270275637E+04  0.00000000000E+00 0. -1.
          1   -1    0    0  501    0 -0.00000000000E+00 -0.00000000000E+00 -0.79574928723E+02  0.79574928723E+02  0.00000000000E+00 0. -1.
         25    2    1    2    0    0 -0.76618931535E+02 -0.81551017318E+02  0.75360367098E+03  0.77205273966E+03  0.12500364315E+03 0.  0.
          2    1    1    2  501    0  0.10730462521E+02  0.43947834436E+02 -0.62456302442E+02  0.77119029378E+02  0.00000000000E+00 0. -1.
          1    1    1    2  502    0  0.65888469014E+02  0.37603182883E+02  0.25563052665E+04  0.25574307234E+04  0.00000000000E+00 0. -1.
         22    1    3    3    0    0 -0.62973348061E+02 -0.95266922433E+01  0.13669811001E+03  0.15080707447E+03  0.00000000000E+00 0.  1.
         22    1    3    3    0    0 -0.13645583474E+02 -0.72024325075E+02  0.61690556097E+03  0.62124566518E+03  0.00000000000E+00 0.  1.
</event>
<event>
 7    1  0.5854318E-006  0.1815811E+03  0.7818608E-02  0.1225087E+00
          2   -1    0    0  502    0  0.00000000000E+00  0.00000000000E+00  0.18518931603E+03  0.18518931603E+03  0.00000000000E+00 0. -1.
          1   -1    0    0  501    0 -0.00000000000E+00 -0.00000000000E+00 -0.23873838380E+04  0.23873838380E+04  0.00000000000E+00 0. -1.
         25    2    1    2    0    0  0.20258523170E+03  0.99804920590E+02 -0.77358650008E+03  0.81551326413E+03  0.12499605030E+03 0.  0.
          2    1    1    2  501    0 -0.11318482109E+03 -0.13307383693E+03 -0.15737287585E+04  0.15833956092E+04  0.00000000000E+00 0. -1.
          1    1    1    2  502    0 -0.89400410605E+02  0.33268916344E+02  0.14512073661E+03  0.17366428074E+03  0.00000000000E+00 0. -1.
         22    1    3    3    0    0  0.19077998185E+03  0.12365147733E+03 -0.72860471797E+03  0.76325063012E+03  0.00000000000E+00 0. -1.
         22    1    3    3    0    0  0.11805249852E+02 -0.23846556744E+02 -0.44981782108E+02  0.52262634015E+02  0.00000000000E+00 0. -1.
</event>
<event>
 7    1  0.5854318E-006  0.6327817E+02  0.7818608E-02  0.1413259E+00
          2   -1    0    0  502    0  0.00000000000E+00  0.00000000000E+00  0.44324399278E+03  0.44324399278E+03  0.00000000000E+00 0. -1.
          1   -1    0    0  501    0 -0.00000000000E+00 -0.00000000000E+00 -0.10104300909E+04  0.10104300909E+04  0.00000000000E+00 0. -1.
         25    2    1    2    0    0 -0.13597312927E+02  0.88884436969E+01  0.75395425152E+02  0.14687780480E+03  0.12499891223E+03 0.  0.
          2    1    1    2  501    0  0.28396445206E+02 -0.57066211184E+02 -0.97172659486E+03  0.97381491348E+03  0.00000000000E+00 0. -1.
          1    1    1    2  502    0 -0.14799132280E+02  0.48177767487E+02  0.32914507156E+03  0.33298136543E+03  0.00000000000E+00 0. -1.
         22    1    3    3    0    0 -0.42957582942E+02  0.35394046909E+02  0.89065627836E+02  0.10502751330E+03  0.00000000000E+00 0. -1.
         22    1    3    3    0    0  0.29360270016E+02 -0.26505603212E+02 -0.13670202683E+02  0.41850291498E+02  0.00000000000E+00 0. -1.
</event>
<event>
 7    1  0.5854318E-006  0.6790629E+02  0.7818608E-02  0.1398412E+00
          2   -1    0    0  502    0  0.00000000000E+00  0.00000000000E+00  0.17107028994E+03  0.17107028994E+03  0.00000000000E+00 0. -1.
          1   -1    0    0  501    0 -0.00000000000E+00 -0.00000000000E+00 -0.11066187444E+04  0.11066187444E+04  0.00000000000E+00 0. -1.
         25    2    1    2    0    0 -0.16558603655E+02 -0.13216384881E+02 -0.21398869833E+03  0.24872706630E+03  0.12500052124E+03 0.  0.
          2    1    1    2  501    0  0.36624108381E+02  0.62023438708E+02 -0.86919734291E+03  0.87217673277E+03  0.00000000000E+00 0. -1.
          1    1    1    2  502    0 -0.20065504727E+02 -0.48807053827E+02  0.14763758676E+03  0.15678523530E+03  0.00000000000E+00 0. -1.
         22    1    3    3    0    0  0.51746004031E+02  0.10533904015E+02 -0.70926433483E+02  0.88426076661E+02  0.00000000000E+00 0.  1.
         22    1    3    3    0    0 -0.68304607686E+02 -0.23750288896E+02 -0.14306226485E+03  0.16030098964E+03  0.00000000000E+00 0.  1.
</event>
<event>
 7    1  0.5854318E-006  0.8633453E+02  0.7818608E-02  0.1415448E+00
          2   -1    0    0  502    0  0.00000000000E+00  0.00000000000E+00  0.13034744911E+04  0.13034744911E+04  0.00000000000E+00 0. -1.
          1   -1    0    0  501    0 -0.00000000000E+00 -0.00000000000E+00 -0.19570940528E+03  0.19570940528E+03  0.00000000000E+00 0. -1.
         25    2    1    2    0    0 -0.57901396804E+02  0.53261867882E+01  0.19359710002E+02  0.13921692821E+03  0.12500245882E+03 0.  0.
          2    1    1    2  501    0 -0.22345096599E+02  0.28630677723E+02 -0.13177045239E+03  0.13668383655E+03  0.00000000000E+00 0. -1.
          1    1    1    2  502    0  0.80246493404E+02 -0.33956864512E+02  0.12201758282E+04  0.12232831316E+04  0.00000000000E+00 0. -1.
         22    1    3    3    0    0 -0.55054817494E+02  0.46261799798E+02  0.50357911648E+02  0.87790126526E+02  0.00000000000E+00 0.  1.
         22    1    3    3    0    0 -0.28465793098E+01 -0.40935613010E+02 -0.30998201646E+02  0.51426801685E+02  0.00000000000E+00 0.  1.
</event>
<event>
 7    1  0.5854318E-006  0.1139731E+03  0.7818608E-02  0.1278831E+00
          2   -1    0    0  502    0  0.00000000000E+00  0.00000000000E+00  0.12890739876E+04  0.12890739876E+04  0.00000000000E+00 0. -1.
          1   -1    0    0  501    0 -0.00000000000E+00 -0.00000000000E+00 -0.39378294141E+03  0.39378294141E+03  0.00000000000E+00 0. -1.
         25    2    1    2    0    0  0.14474094034E+03 -0.13502225343E+03  0.21071469032E+03  0.31496676552E+03  0.12498973533E+03 0.  0.
          2    1    1    2  501    0 -0.61213633972E+02  0.64568089518E+02 -0.33288891119E+03  0.34457390261E+03  0.00000000000E+00 0. -1.
          1    1    1    2  502    0 -0.83527306364E+02  0.70454163908E+02  0.10174652670E+04  0.10233162608E+04  0.00000000000E+00 0. -1.
         22    1    3    3    0    0  0.15243709133E+03 -0.10421150447E+03  0.12349232703E+03  0.22214288040E+03  0.00000000000E+00 0.  1.
         22    1    3    3    0    0 -0.76961509940E+01 -0.30810748954E+02  0.87222363292E+02  0.92823885124E+02  0.00000000000E+00 0.  1.
</event>
<event>
 7    1  0.5854318E-006  0.7752216E+02  0.7818608E-02  0.1406415E+00
          2   -1    0    0  502    0  0.00000000000E+00  0.00000000000E+00  0.27353136447E+04  0.27353136447E+04  0.00000000000E+00 0. -1.
          1   -1    0    0  501    0 -0.00000000000E+00 -0.00000000000E+00 -0.23826881836E+03  0.23826881836E+03  0.00000000000E+00 0. -1.
         25    2    1    2    0    0  0.34213256082E+02 -0.64931261320E+02 -0.38456693601E+02  0.14995877443E+03  0.12498840410E+03 0.  0.
          2    1    1    2  501    0  0.33697371903E+02  0.27344861147E+02 -0.14021733858E+03  0.14677927763E+03  0.00000000000E+00 0. -1.
          1    1    1    2  502    0 -0.67910627985E+02  0.37586400173E+02  0.26757188585E+04  0.26768444110E+04  0.00000000000E+00 0. -1.
         22    1    3    3    0    0  0.71524827268E+02 -0.66695333781E+02 -0.51331385559E+02  0.11044899097E+03  0.00000000000E+00 0.  1.
         22    1    3    3    0    0 -0.37311571187E+02  0.17640724610E+01  0.12874691958E+02  0.39509783460E+02  0.00000000000E+00 0.  1.
</event>
<event>
 7    1  0.5854318E-006  0.4702475E+02  0.7818608E-02  0.1556734E+00
          2   -1    0    0  502    0  0.00000000000E+00  0.00000000000E+00  0.17594968460E+04  0.17594968460E+04  0.00000000000E+00 0. -1.
          1   -1    0    0  501    0 -0.00000000000E+00 -0.00000000000E+00 -0.18730828344E+02  0.18730828344E+02  0.00000000000E+00 0. -1.
         25    2    1    2    0    0 -0.47238483456E+02 -0.34634894704E+02  0.10635638897E+04  0.10724850294E+04  0.12499976243E+03 0.  0.
          2    1    1    2  501    0  0.26278108866E+01  0.24588654944E+02 -0.21788481136E+01  0.24824478265E+02  0.00000000000E+00 0. -1.
          1    1    1    2  502    0  0.44610672569E+02  0.10046239760E+02  0.67938097612E+03  0.68091816671E+03  0.00000000000E+00 0. -1.
         22    1    3    3    0    0 -0.59427300790E+02 -0.40411285197E+02  0.28892172633E+03  0.29772544399E+03  0.00000000000E+00 0.  1.
         22    1    3    3    0    0  0.12188817334E+02  0.57763904927E+01  0.77464216334E+03  0.77475958540E+03  0.00000000000E+00 0.  1.
</event>
<event>
 7    1  0.5854318E-006  0.5903278E+02  0.7818608E-02  0.1466524E+00
          2   -1    0    0  502    0  0.00000000000E+00  0.00000000000E+00  0.19498348557E+04  0.19498348557E+04  0.00000000000E+00 0. -1.
          1   -1    0    0  501    0 -0.00000000000E+00 -0.00000000000E+00 -0.10260106625E+04  0.10260106625E+04  0.00000000000E+00 0. -1.
         25    2    1    2    0    0 -0.45863986333E+02 -0.71450937956E+01  0.68029308548E+02  0.14969090099E+03  0.12499928564E+03 0.  0.
          2    1    1    2  501    0  0.40661113504E+02  0.43047539643E+02 -0.98411111004E+03  0.98589101514E+03  0.00000000000E+00 0. -1.
          1    1    1    2  502    0  0.52028728296E+01 -0.35902445847E+02  0.18399059947E+04  0.18402636020E+04  0.00000000000E+00 0. -1.
         22    1    3    3    0    0 -0.36568364207E+02 -0.64763052176E+02  0.31026078145E+02  0.80586076421E+02  0.00000000000E+00 0.  1.
         22    1    3    3    0    0 -0.92956221263E+01  0.57617958380E+02  0.37003230404E+02  0.69104824570E+02  0.00000000000E+00 0.  1.
</event>
<event>
 7    1  0.5854318E-006  0.6472271E+02  0.7818608E-02  0.1410843E+00
          2   -1    0    0  502    0  0.00000000000E+00  0.00000000000E+00  0.97042931140E+03  0.97042931140E+03  0.00000000000E+00 0. -1.
          1   -1    0    0  501    0 -0.00000000000E+00 -0.00000000000E+00 -0.17601633384E+03  0.17601633384E+03  0.00000000000E+00 0. -1.
         25    2    1    2    0    0 -0.64326768367E+02  0.80168821591E+02  0.71303330622E+02  0.17684442273E+03  0.12499924723E+03 0.  0.
          2    1    1    2  501    0  0.46619192022E+02 -0.18645070155E+02 -0.11686286653E+03  0.12719244191E+03  0.00000000000E+00 0. -1.
          1    1    1    2  502    0  0.17707576345E+02 -0.61523751436E+02  0.83997251346E+03  0.84240878060E+03  0.00000000000E+00 0. -1.
         22    1    3    3    0    0 -0.89797894653E+02  0.57384175730E+02  0.88557827683E+02  0.13856079659E+03  0.00000000000E+00 0. -1.
         22    1    3    3    0    0  0.25471126286E+02  0.22784645861E+02 -0.17254497060E+02  0.38283626135E+02  0.00000000000E+00 0. -1.
</event>
<event>
 7    1  0.5854318E-006  0.7873542E+02  0.7818608E-02  0.1376730E+00
          2   -1    0    0  502    0  0.00000000000E+00  0.00000000000E+00  0.30174278313E+03  0.30174278313E+03  0.00000000000E+00 0. -1.
          1   -1    0    0  501    0 -0.00000000000E+00 -0.00000000000E+00 -0.83898900946E+03  0.83898900946E+03  0.00000000000E+00 0. -1.
         25    2    1    2    0    0  0.41032139089E+02  0.14026507441E+02  0.72333837814E+01  0.13250934276E+03  0.12500409884E+03 0.  0.
          2    1    1    2  501    0 -0.41916469426E+02 -0.68228461553E+02 -0.77108069361E+03  0.77522741788E+03  0.00000000000E+00 0. -1.
          1    1    1    2  502    0  0.88433033644E+00  0.54201954112E+02  0.22660108350E+03  0.23299503195E+03  0.00000000000E+00 0. -1.
         22    1    3    3    0    0  0.40413796971E+02 -0.25539887646E+02 -0.45889669164E+02  0.66267809550E+02  0.00000000000E+00 0.  1.
         22    1    3    3    0    0  0.61834211777E+00  0.39566395087E+02  0.53123052946E+02  0.66241533206E+02  0.00000000000E+00 0.  1.
</event>
<event>
 7    1  0.5854318E-006  0.7339469E+02  0.7818608E-02  0.1402056E+00
          2   -1    0    0  502    0  0.00000000000E+00  0.00000000000E+00  0.14476023798E+03  0.14476023798E+03  0.00000000000E+00 0. -1.
          1   -1    0    0  501    0 -0.00000000000E+00 -0.00000000000E+00 -0.25815114226E+04  0.25815114226E+04  0.00000000000E+00 0. -1.
         25    2    1    2    0    0  0.98145982600E+01  0.43926129049E+02 -0.14192486070E+04  0.14254518592E+04  0.12498225156E+03 0.  0.
          2    1    1    2  501    0 -0.41806348633E+02  0.22414692458E+02 -0.11490653160E+04  0.11500440381E+04  0.00000000000E+00 0. -1.
          1    1    1    2  502    0  0.31991750373E+02 -0.66340821507E+02  0.13156273833E+03  0.15077576332E+03  0.00000000000E+00 0. -1.
         22    1    3    3    0    0  0.53664772768E+02 -0.91665377234E+01 -0.90176145543E+03  0.90340337378E+03  0.00000000000E+00 0.  1.
         22    1    3    3    0    0 -0.43850174508E+02  0.53092666772E+02 -0.51748715158E+03  0.52204848541E+03  0.00000000000E+00 0.  1.
</event>
<event>
 7    1  0.5854318E-006  0.9774740E+02  0.7818608E-02  0.1387600E+00
          2   -1    0    0  502    0  0.00000000000E+00  0.00000000000E+00  0.27435941438E+03  0.27435941438E+03  0.00000000000E+00 0. -1.
          1   -1    0    0  501    0 -0.00000000000E+00 -0.00000000000E+00 -0.22031935416E+03  0.22031935416E+03  0.00000000000E+00 0. -1.
         25    2    1    2    0    0 -0.41451212544E+02 -0.80903363501E+02  0.16543583197E+02  0.15544051438E+03  0.12499802446E+03 0.  0.
          2    1    1    2  501    0  0.77539747967E+02  0.63716152483E+02 -0.13158874788E+03  0.16549247467E+03  0.00000000000E+00 0. -1.
          1    1    1    2  502    0 -0.36088535422E+02  0.17187211018E+02  0.16908522491E+03  0.17374577950E+03  0.00000000000E+00 0. -1.
         22    1    3    3    0    0 -0.71125310324E+02 -0.91139488824E+02  0.32690404420E+02  0.12014107846E+03  0.00000000000E+00 0.  1.
         22    1    3    3    0    0  0.29674097780E+02  0.10236125323E+02 -0.16146821223E+02  0.35299435920E+02  0.00000000000E+00 0.  1.
</event>
<event>
 7    1  0.5854318E-006  0.3445836E+03  0.7818608E-02  0.1250668E+00
          2   -1    0    0  502    0  0.00000000000E+00  0.00000000000E+00  0.11860965427E+04  0.11860965427E+04  0.00000000000E+00 0. -1.
          1   -1    0    0  501    0 -0.00000000000E+00 -0.00000000000E+00 -0.17257327738E+04  0.17257327738E+04  0.00000000000E+00 0. -1.
         25    2    1    2    0    0 -0.29648761906E+03 -0.18300161112E+03 -0.60932015419E+03  0.71294467162E+03  0.12499822622E+03 0.  0.
          2    1    1    2  501    0  0.31029924122E+03  0.14681723226E+03 -0.10365800867E+04  0.10919428534E+04  0.00000000000E+00 0. -1.
          1    1    1    2  502    0 -0.13811622159E+02  0.36184378861E+02  0.11062640098E+04  0.11069417914E+04  0.00000000000E+00 0. -1.
         22    1    3    3    0    0 -0.24706181809E+03 -0.18267806665E+03 -0.44077763041E+03  0.53730413869E+03  0.00000000000E+00 0.  1.
         22    1    3    3    0    0 -0.49425800970E+02 -0.32354447262E+00 -0.16854252378E+03  0.17564053292E+03  0.00000000000E+00 0.  1.
</event>
<event>
 7    1  0.5854318E-006  0.7118606E+02  0.7818608E-02  0.1439522E+00
          2   -1    0    0  502    0  0.00000000000E+00  0.00000000000E+00  0.59474966801E+02  0.59474966801E+02  0.00000000000E+00 0. -1.
          1   -1    0    0  501    0 -0.00000000000E+00 -0.00000000000E+00 -0.11284793502E+04  0.11284793502E+04  0.00000000000E+00 0. -1.
         25    2    1    2    0    0  0.45762460817E+02 -0.50979169297E+02 -0.43630798712E+03  0.45900394500E+03  0.12500753329E+03 0.  0.
          2    1    1    2  501    0  0.22631353055E+02  0.28859281594E+02 -0.65317853829E+03  0.65420733652E+03  0.00000000000E+00 0. -1.
          1    1    1    2  502    0 -0.68393813872E+02  0.22119887703E+02  0.20482142029E+02  0.74743035462E+02  0.00000000000E+00 0. -1.
         22    1    3    3    0    0  0.63907157800E+01 -0.22158454109E+02 -0.39325979255E+03  0.39393540431E+03  0.00000000000E+00 0.  1.
         22    1    3    3    0    0  0.39371745037E+02 -0.28820715188E+02 -0.43048194571E+02  0.65068540686E+02  0.00000000000E+00 0.  1.
</event>
<event>
 7    1  0.5854318E-006  0.7445492E+02  0.7818608E-02  0.1379267E+00
          2   -1    0    0  502    0  0.00000000000E+00  0.00000000000E+00  0.12574846444E+04  0.12574846444E+04  0.00000000000E+00 0. -1.
          1   -1    0    0  501    0 -0.00000000000E+00 -0.00000000000E+00 -0.49600137745E+03  0.49600137745E+03  0.00000000000E+00 0. -1.
         25    2    1    2    0    0  0.57988091603E+01 -0.25494975928E+02  0.12271301824E+03  0.17710635759E+03  0.12499822826E+03 0.  0.
          2    1    1    2  501    0  0.47243870883E+02 -0.30341704918E+02 -0.46577785830E+03  0.46914988615E+03  0.00000000000E+00 0. -1.
          1    1    1    2  502    0 -0.53042680044E+02  0.55836680846E+02  0.11045481070E+04  0.11072297781E+04  0.00000000000E+00 0. -1.
         22    1    3    3    0    0  0.58089081952E+02 -0.34666442337E+02  0.96632937542E+02  0.11795773940E+03  0.00000000000E+00 0.  1.
         22    1    3    3    0    0 -0.52290272791E+02  0.91714664096E+01  0.26080080697E+02  0.59148618191E+02  0.00000000000E+00 0.  1.
</event>
<event>
 7    1  0.5854318E-006  0.1746191E+03  0.7818608E-02  0.1295397E+00
          2   -1    0    0  502    0  0.00000000000E+00  0.00000000000E+00  0.58833887672E+03  0.58833887672E+03  0.00000000000E+00 0. -1.
          1   -1    0    0  501    0 -0.00000000000E+00 -0.00000000000E+00 -0.16897676958E+04  0.16897676958E+04  0.00000000000E+00 0. -1.
         25    2    1    2    0    0 -0.30865573270E+02  0.17777043480E+03 -0.11188732257E+04  0.11402004344E+04  0.12499889795E+03 0.  0.
          2    1    1    2  501    0 -0.45225536192E+02 -0.20587712589E+02 -0.54587868642E+03  0.54813569790E+03  0.00000000000E+00 0. -1.
          1    1    1    2  502    0  0.76091109462E+02 -0.15718272222E+03  0.56332309296E+03  0.58977044022E+03  0.00000000000E+00 0. -1.
         22    1    3    3    0    0 -0.23402281426E+02  0.19680299496E+03 -0.98099130023E+03  0.10008111794E+04  0.00000000000E+00 0. -1.
         22    1    3    3    0    0 -0.74632918438E+01 -0.19032560157E+02 -0.13788192542E+03  0.13938925507E+03  0.00000000000E+00 0. -1.
</event>
<event>
 7    1  0.5854318E-006  0.8463906E+02  0.7818608E-02  0.1361841E+00
          2   -1    0    0  502    0  0.00000000000E+00  0.00000000000E+00  0.26345837008E+03  0.26345837008E+03  0.00000000000E+00 0. -1.
          1   -1    0    0  501    0 -0.00000000000E+00 -0.00000000000E+00 -0.73406145734E+03  0.73406145734E+03  0.00000000000E+00 0. -1.
         25    2    1    2    0    0 -0.32368799750E+02  0.44405067549E+01 -0.62865213447E+02  0.14368313780E+03  0.12500140691E+03 0.  0.
          2    1    1    2  501    0  0.83818246639E+02 -0.29090709008E+02 -0.62394906365E+03  0.63022551666E+03  0.00000000000E+00 0. -1.
          1    1    1    2  502    0 -0.51449446889E+02  0.24650202253E+02  0.21621118984E+03  0.22361117295E+03  0.00000000000E+00 0. -1.
         22    1    3    3    0    0 -0.37186875043E+02 -0.19190243360E+02  0.27553663325E+02  0.50103228222E+02  0.00000000000E+00 0. -1.
         22    1    3    3    0    0  0.48180752926E+01  0.23630750115E+02 -0.90418876772E+02  0.93579909581E+02  0.00000000000E+00 0. -1.
</event>
<event>
 7    1  0.5854318E-006  0.7279077E+02  0.7818608E-02  0.1520287E+00
          2   -1    0    0  502    0  0.00000000000E+00  0.00000000000E+00  0.89961022521E+02  0.89961022521E+02  0.00000000000E+00 0. -1.
          1   -1    0    0  501    0 -0.00000000000E+00 -0.00000000000E+00 -0.46761875420E+03  0.46761875420E+03  0.00000000000E+00 0. -1.
         25    2    1    2    0    0  0.12541830870E+02  0.56087915327E+02 -0.18640755940E+03  0.23168029156E+03  0.12499931012E+03 0.  0.
          2    1    1    2  501    0  0.15803068717E+02  0.12682661520E+02 -0.23746551471E+03  0.23832846570E+03  0.00000000000E+00 0. -1.
          1    1    1    2  502    0 -0.28344899587E+02 -0.68770576847E+02  0.46215342436E+02  0.87571019458E+02  0.00000000000E+00 0. -1.
         22    1    3    3    0    0 -0.27868368674E+02 -0.16499728522E+02 -0.12293711233E+03  0.12713150908E+03  0.00000000000E+00 0. -1.
         22    1    3    3    0    0  0.40410199544E+02  0.72587643849E+02 -0.63470447071E+02  0.10454878248E+03  0.00000000000E+00 0. -1.
</event>
<event>
 7    1  0.5854318E-006  0.5425150E+02  0.7818608E-02  0.1489841E+00
          2   -1    0    0  502    0  0.00000000000E+00  0.00000000000E+00  0.34284609277E+03  0.34284609277E+03  0.00000000000E+00 0. -1.
          1   -1    0    0  501    0 -0.00000000000E+00 -0.00000000000E+00 -0.12221346137E+04  0.12221346137E+04  0.00000000000E+00 0. -1.
         25    2    1    2    0    0 -0.17719854493E+02 -0.22005728544E+02 -0.55390372038E-02  0.12815344452E+03  0.12500023992E+03 0.  0.
          2    1    1    2  501    0  0.78513399499E+01  0.53983652053E+02 -0.11564054285E+04  0.11576914068E+04  0.00000000000E+00 0. -1.
          1    1    1    2  502    0  0.98685145436E+01 -0.31977923509E+02  0.27712244667E+03  0.27913585513E+03  0.00000000000E+00 0. -1.
         22    1    3    3    0    0  0.51248223307E+02  0.96353086953E+01  0.28054644424E+01  0.52221549158E+02  0.00000000000E+00 0.  1.
         22    1    3    3    0    0 -0.68968077800E+02 -0.31641037240E+02 -0.28110034797E+01  0.75931895364E+02  0.00000000000E+00 0.  1.
</event>
<event>
 7    1  0.5854318E-006  0.4590555E+02  0.7818608E-02  0.1563231E+00
          2   -1    0    0  502    0  0.00000000000E+00  0.00000000000E+00  0.28045162001E+03  0.28045162001E+03  0.00000000000E+00 0. -1.
          1   -1    0    0  501    0 -0.00000000000E+00 -0.00000000000E+00 -0.20517463815E+03  0.20517463815E+03  0.00000000000E+00 0. -1.
         25    2    1    2    0    0  0.60572515725E+02 -0.32436497743E+02  0.12948442376E+03  0.19264625209E+03  0.12500082560E+03 0.  0.
          2    1    1    2  501    0 -0.42529236996E+02  0.16145472549E+02 -0.16932210598E+03  0.17532651784E+03  0.00000000000E+00 0. -1.
          1    1    1    2  502    0 -0.18043278729E+02  0.16291025195E+02  0.11511466408E+03  0.11765348824E+03  0.00000000000E+00 0. -1.
         22    1    3    3    0    0  0.70722421536E+02  0.25962025354E+02  0.39963574666E+02  0.85280566183E+02  0.00000000000E+00 0.  1.
         22    1    3    3    0    0 -0.10149905811E+02 -0.58398523098E+02  0.89520849089E+02  0.10736568590E+03  0.00000000000E+00 0.  1.
</event>
<event>
 7    1  0.5854318E-006  0.5229134E+02  0.7818608E-02  0.1447220E+00
          2   -1    0    0  502    0  0.00000000000E+00  0.00000000000E+00  0.13660065864E+04  0.13660065864E+04  0.00000000000E+00 0. -1.
          1   -1    0    0  501    0 -0.00000000000E+00 -0.00000000000E+00 -0.80658738993E+02  0.80658738993E+02  0.00000000000E+00 0. -1.
         25    2    1    2    0    0 -0.54648110393E+02  0.82509665831E+02  0.92527747909E+03  0.93891332670E+03  0.12500224326E+03 0.  0.
          2    1    1    2  501    0  0.29211331737E+02 -0.42811456224E+02 -0.63273720941E+02  0.81790503408E+02  0.00000000000E+00 0. -1.
          1    1    1    2  502    0  0.25436778656E+02 -0.39698209607E+02  0.42334408923E+03  0.42596149526E+03  0.00000000000E+00 0. -1.
         22    1    3    3    0    0 -0.88798597933E+02  0.35116503024E+02  0.68570049246E+03  0.69231750313E+03  0.00000000000E+00 0. -1.
         22    1    3    3    0    0  0.34150487540E+02  0.47393162807E+02  0.23957698663E+03  0.24659582357E+03  0.00000000000E+00 0. -1.
</event>
<event>
 7    1  0.5854318E-006  0.8972367E+02  0.7818608E-02  0.1408747E+00
          2   -1    0    0  502    0  0.00000000000E+00  0.00000000000E+00  0.38829319650E+03  0.38829319650E+03  0.00000000000E+00 0. -1.
          1   -1    0    0  501    0 -0.00000000000E+00 -0.00000000000E+00 -0.29463463149E+03  0.29463463149E+03  0.00000000000E+00 0. -1.
         25    2    1    2    0    0  0.99858168785E+02 -0.42667414498E+02  0.64125217186E+02  0.17756441025E+03  0.12499965670E+03 0.  0.
          2    1    1    2  501    0 -0.66671397172E+02  0.58607397711E+02 -0.22828138014E+03  0.24493323740E+03  0.00000000000E+00 0. -1.
          1    1    1    2  502    0 -0.33186771613E+02 -0.15939983213E+02  0.25781472796E+03  0.26043018033E+03  0.00000000000E+00 0. -1.
         22    1    3    3    0    0  0.77592739376E+02 -0.85615377230E+02  0.56399468871E+02  0.12857498245E+03  0.00000000000E+00 0.  1.
         22    1    3    3    0    0  0.22265429409E+02  0.42947962733E+02  0.77257483148E+01  0.48989427805E+02  0.00000000000E+00 0.  1.
</event>
<event>
 7    1  0.5854318E-006  0.1561873E+03  0.7818608E-02  0.1372978E+00
          2   -1    0    0  502    0  0.00000000000E+00  0.00000000000E+00  0.80641116384E+03  0.80641116384E+03  0.00000000000E+00 0. -1.
          1   -1    0    0  501    0 -0.00000000000E+00 -0.00000000000E+00 -0.20179354272E+03  0.20179354272E+03  0.00000000000E+00 0. -1.
         25    2    1    2    0    0 -0.28676026325E+02 -0.17416572623E+03  0.51063102901E+03  0.55455001692E+03  0.12500263518E+03 0.  0.
          2    1    1    2  501    0  0.41801702740E+02  0.14922578504E+03 -0.14546756180E+03  0.21254770949E+03  0.00000000000E+00 0. -1.
          1    1    1    2  502    0 -0.13125676416E+02  0.24939941192E+02  0.23945415391E+03  0.24110698014E+03  0.00000000000E+00 0. -1.
         22    1    3    3    0    0 -0.36628384844E+02 -0.29761304637E+02  0.38940049013E+02  0.61185792854E+02  0.00000000000E+00 0. -1.
         22    1    3    3    0    0  0.79523585194E+01 -0.14440442159E+03  0.47169098000E+03  0.49336422407E+03  0.00000000000E+00 0. -1.
</event>
<event>
 7    1  0.5854318E-006  0.2951576E+02  0.7818608E-02  0.1629460E+00
          2   -1    0    0  502    0  0.00000000000E+00  0.00000000000E+00  0.14172280192E+04  0.14172280192E+04  0.00000000000E+00 0. -1.
          1   -1    0    0  501    0 -0.00000000000E+00 -0.00000000000E+00 -0.29808988943E+03  0.29808988943E+03  0.00000000000E+00 0. -1.
         25    2    1    2    0    0  0.34613495621E+02  0.23277205205E+02 -0.17840390675E+03  0.22179427232E+03  0.12499929173E+03 0.  0.
          2    1    1    2  501    0 -0.28997750982E+02  0.14230428924E+01 -0.95722704534E+02  0.10002864978E+03  0.00000000000E+00 0. -1.
          1    1    1    2  502    0 -0.56157446381E+01 -0.24700248098E+02  0.13932647410E+04  0.13934949865E+04  0.00000000000E+00 0. -1.
         22    1    3    3    0    0  0.26030316556E+01  0.44507521662E+02 -0.17787762356E+03  0.18337978139E+03  0.00000000000E+00 0. -1.
         22    1    3    3    0    0  0.32010463965E+02 -0.21230316457E+02 -0.52628318994E+00  0.38414490939E+02  0.00000000000E+00 0. -1.
</event>
<event>
 7    1  0.5854318E-006  0.1171652E+03  0.7818608E-02  0.1356017E+00
          2   -1    0    0  502    0  0.00000000000E+00  0.00000000000E+00  0.12730962555E+04  0.12730962555E+04  0.00000000000E+00 0. -1.
          1   -1    0    0  501    0 -0.00000000000E+00 -0.00000000000E+00 -0.46148689007E+02  0.46148689007E+02  0.00000000000E+00 0. -1.
         25    2    1    2    0    0 -0.14196291385E+03 -0.53396691198E+01  0.23643227916E+03  0.30283389297E+03  0.12500465242E+03 0.  0.
          2    1    1    2  501    0  0.98917129066E+02  0.81629882264E+00  0.18545068962E+03  0.21018378397E+03  0.00000000000E+00 0. -1.
          1    1    1    2  502    0  0.43045784787E+02  0.45233702972E+01  0.80506459769E+03  0.80622726753E+03  0.00000000000E+00 0. -1.
         22    1    3    3    0    0 -0.13111305629E+03 -0.40505901398E+02  0.22631040694E+03  0.26466537716E+03  0.00000000000E+00 0.  1.
         22    1    3    3    0    0 -0.10849857566E+02  0.35166232279E+02  0.10121872217E+02  0.38168515809E+02  0.00000000000E+00 0.  1.
</event>
<event>
 7    1  0.5854318E-006  0.1849302E+03  0.7818608E-02  0.1165413E+00
          2   -1    0    0  502    0  0.00000000000E+00  0.00000000000E+00  0.13917047317E+04  0.13917047317E+04  0.00000000000E+00 0. -1.
          1   -1    0    0  501    0 -0.00000000000E+00 -0.00000000000E+00 -0.33991572105E+03  0.33991572105E+03  0.00000000000E+00 0. -1.
         25    2    1    2    0    0  0.49383091658E+02  0.50594184695E+02  0.28253059313E+03  0.31693704997E+03  0.12500838501E+03 0.  0.
          2    1    1    2  501    0 -0.17761787856E+03  0.82653743972E+02 -0.28416463930E+03  0.34515111822E+03  0.00000000000E+00 0. -1.
          1    1    1    2  502    0  0.12823478691E+03 -0.13324792867E+03  0.10534230568E+04  0.10695322845E+04  0.00000000000E+00 0. -1.
         22    1    3    3    0    0  0.52468841825E+02  0.46155123536E+02  0.29509642448E+03  0.30325760424E+03  0.00000000000E+00 0.  1.
         22    1    3    3    0    0 -0.30857501667E+01  0.44390611600E+01 -0.12565831347E+02  0.13679445731E+02  0.00000000000E+00 0.  1.
</event>
<event>
 7    1  0.5854318E-006  0.1031172E+03  0.7818608E-02  0.1341612E+00
          2   -1    0    0  502    0  0.00000000000E+00  0.00000000000E+00  0.13766286537E+04  0.13766286537E+04  0.00000000000E+00 0. -1.
          1   -1    0    0  501    0 -0.00000000000E+00 -0.00000000000E+00 -0.10004621891E+03  0.10004621891E+03  0.00000000000E+00 0. -1.
         25    2    1    2    0    0 -0.58287177270E+02 -0.10961102597E+03  0.35845499681E+02  0.17978132672E+03  0.12499781415E+03 0.  0.
          2    1    1    2  501    0 -0.25232997185E+02  0.49570125668E+02  0.38705239905E+01  0.55757353430E+02  0.00000000000E+00 0. -1.
          1    1    1    2  502    0  0.83520174455E+02  0.60040900301E+02  0.12368664112E+04  0.12411361925E+04  0.00000000000E+00 0. -1.
         22    1    3    3    0    0 -0.20821423363E+02 -0.91937300810E+02 -0.32627632082E+02  0.99752500352E+02  0.00000000000E+00 0. -1.
         22    1    3    3    0    0 -0.37465753907E+02 -0.17673725159E+02  0.68473131764E+02  0.80028826371E+02  0.00000000000E+00 0. -1.
</event>
<event>
 7    1  0.5854318E-006  0.8123450E+02  0.7818608E-02  0.1342968E+00
          2   -1    0    0  502    0  0.00000000000E+00  0.00000000000E+00  0.13607253880E+04  0.13607253880E+04  0.00000000000E+00 0. -1.
          1   -1    0    0  501    0 -0.00000000000E+00 -0.00000000000E+00 -0.98770465223E+02  0.98770465223E+02  0.00000000000E+00 0. -1.
         25    2    1    2    0    0 -0.11142329382E+03 -0.69516990146E+02  0.81011231820E+03  0.83015382562E+03  0.12500257504E+03 0.  0.
          2    1    1    2  501    0  0.80084031826E+02  0.71649600552E+01 -0.67714548105E+02  0.10511921247E+03  0.00000000000E+00 0. -1.
          1    1    1    2  502    0  0.31339261997E+02  0.62352030090E+02  0.51955715266E+03  0.52422281511E+03  0.00000000000E+00 0. -1.
         22    1    3    3    0    0 -0.33987309755E+02  0.68741416347E+01  0.50576512859E+03  0.50695242020E+03  0.00000000000E+00 0.  1.
         22    1    3    3    0    0 -0.77435984068E+02 -0.76391131780E+02  0.30434718961E+03  0.32320140542E+03  0.00000000000E+00 0.  1.
</event>
<event>
 7    1  0.5854318E-006  0.1194122E+03  0.7818608E-02  0.1299327E+00
          2   -1    0    0  502    0  0.00000000000E+00  0.00000000000E+00  0.73062940884E+03  0.73062940884E+03  0.00000000000E+00 0. -1.
          1   -1    0    0  501    0 -0.00000000000E+00 -0.00000000000E+00 -0.11714325339E+04  0.11714325339E+04  0.00000000000E+00 0. -1.
         25    2    1    2    0    0  0.75511641175E+02 -0.14119895951E+03  0.66876317239E+02  0.21386178403E+03  0.12500106696E+03 0.  0.
          2    1    1    2  501    0 -0.93353790399E+02  0.73440212009E+02 -0.10926303832E+04  0.10990675817E+04  0.00000000000E+00 0. -1.
          1    1    1    2  502    0  0.17842149224E+02  0.67758747500E+02  0.58495094083E+03  0.58913257704E+03  0.00000000000E+00 0. -1.
         22    1    3    3    0    0  0.31518657307E+01  0.18248201580E+02 -0.11738358872E+02  0.21925332095E+02  0.00000000000E+00 0. -1.
         22    1    3    3    0    0  0.72359775445E+02 -0.15944716109E+03  0.78614676111E+02  0.19193645194E+03  0.00000000000E+00 0. -1.
</event>
<event>
 7    1  0.5854318E-006  0.2553566E+03  0.7818608E-02  0.1307500E+00
          2   -1    0    0  502    0  0.00000000000E+00  0.00000000000E+00  0.13876321176E+04  0.13876321176E+04  0.00000000000E+00 0. -1.
          1   -1    0    0  501    0 -0.00000000000E+00 -0.00000000000E+00 -0.12118197081E+04  0.12118197081E+04  0.00000000000E+00 0. -1.
         25    2    1    2    0    0 -0.26319936366E+03 -0.29641197375E+02  0.64506293547E+03  0.70843832190E+03  0.12500463836E+03 0.  0.
          2    1    1    2  501    0  0.13871555051E+02  0.27051089626E+02 -0.11580623270E+04  0.11584612789E+04  0.00000000000E+00 0. -1.
          1    1    1    2  502    0  0.24932780860E+03  0.25901077489E+01  0.68881180106E+03  0.73255222482E+03  0.00000000000E+00 0. -1.
         22    1    3    3    0    0 -0.81073205378E+02 -0.25075669003E+02  0.36200586633E+03  0.37181971581E+03  0.00000000000E+00 0.  1.
         22    1    3    3    0    0 -0.18212615828E+03 -0.45655283721E+01  0.28305706914E+03  0.33661860609E+03  0.00000000000E+00 0.  1.
</event>
<event>
 7    1  0.5854318E-006  0.6795840E+02  0.7818608E-02  0.1368896E+00
          2   -1    0    0  502    0  0.00000000000E+00  0.00000000000E+00  0.73798497318E+02  0.73798497318E+02  0.00000000000E+00 0. -1.
          1   -1    0    0  501    0 -0.00000000000E+00 -0.00000000000E+00 -0.32720560682E+04  0.32720560682E+04  0.00000000000E+00 0. -1.
         25    2    1    2    0    0 -0.13525100222E+02  0.58461760183E+02 -0.79644277285E+03  0.80842310005E+03  0.12500445002E+03 0.  0.
          2    1    1    2  501    0 -0.52628570025E+02 -0.47876148244E+02 -0.24524323895E+04  0.24534641871E+04  0.00000000000E+00 0. -1.
          1    1    1    2  502    0  0.66153670247E+02 -0.10585611939E+02  0.50617591527E+02  0.83967278384E+02  0.00000000000E+00 0. -1.
         22    1    3    3    0    0  0.48289643035E+02  0.57593498546E+02 -0.49851824340E+03  0.50415209977E+03  0.00000000000E+00 0. -1.
         22    1    3    3    0    0 -0.61814743257E+02  0.86826163690E+00 -0.29792452945E+03  0.30427100028E+03  0.00000000000E+00 0. -1.
</event>
<event>
 7    1  0.5854318E-006  0.1768970E+03  0.7818608E-02  0.1263290E+00
          2   -1    0    0  502    0  0.00000000000E+00  0.00000000000E+00  0.12128522357E+04  0.12128522357E+04  0.00000000000E+00 0. -1.
          1   -1    0    0  501    0 -0.00000000000E+00 -0.00000000000E+00 -0.27839217019E+03  0.27839217019E+03  0.00000000000E+00 0. -1.
         25    2    1    2    0    0 -0.95428643260E+02 -0.21487419179E+03  0.20546983855E+03  0.33632369218E+03  0.12497290552E+03 0.  0.
          2    1    1    2  501    0  0.78218605162E+02  0.15053371485E+03 -0.17776586171E+03  0.24572189787E+03  0.00000000000E+00 0. -1.
          1    1    1    2  502    0  0.17210038098E+02  0.64340476939E+02  0.90675608871E+03  0.90919881588E+03  0.00000000000E+00 0. -1.
         22    1    3    3    0    0 -0.66741280044E+02 -0.98370796969E+02  0.17665685296E+03  0.21292922734E+03  0.00000000000E+00 0. -1.
         22    1    3    3    0    0 -0.28687363216E+02 -0.11650339482E+03  0.28812985590E+02  0.12339446484E+03  0.00000000000E+00 0. -1.
</event>
<event>
 7    1  0.5854318E-006  0.8998631E+02  0.7818608E-02  0.1321946E+00
          2   -1    0    0  502    0  0.00000000000E+00  0.00000000000E+00  0.12661347553E+04  0.12661347553E+04  0.00000000000E+00 0. -1.
          1   -1    0    0  501    0 -0.00000000000E+00 -0.00000000000E+00 -0.14539228915E+03  0.14539228915E+03  0.00000000000E+00 0. -1.
         25    2    1    2    0    0 -0.85076253303E+02 -0.56300058090E+02  0.95187823343E+02  0.18733033710E+03  0.12499707224E+03 0.  0.
          2    1    1    2  501    0  0.17520569011E+02  0.90551466483E+02 -0.76325226416E+02  0.11971665969E+03  0.00000000000E+00 0. -1.
          1    1    1    2  502    0  0.67555684292E+02 -0.34251408394E+02  0.11018798692E+04  0.11044800477E+04  0.00000000000E+00 0. -1.
         22    1    3    3    0    0 -0.87993100921E+02 -0.48451936177E+02  0.91286083662E+01  0.10086479772E+03  0.00000000000E+00 0. -1.
         22    1    3    3    0    0  0.29168476184E+01 -0.78481219125E+01  0.86059214976E+02  0.86465539378E+02  0.00000000000E+00 0. -1.
</event>
<event>
 7    1  0.5854318E-006  0.1608337E+03  0.7818608E-02  0.1219772E+00
          2   -1    0    0  502    0  0.00000000000E+00  0.00000000000E+00  0.81176526126E+03  0.81176526126E+03  0.00000000000E+00 0. -1.
          1   -1    0    0  501    0 -0.00000000000E+00 -0.00000000000E+00 -0.11717702886E+03  0.11717702886E+03  0.00000000000E+00 0. -1.
         25    2    1    2    0    0 -0.15640072708E+03  0.14768336828E+03  0.94451172522E+02  0.26611743978E+03  0.12500361221E+03 0.  0.
          2    1    1    2  501    0  0.11381939373E+03  0.26334592271E+01  0.16479219581E+03  0.20029542505E+03  0.00000000000E+00 0. -1.
          1    1    1    2  502    0  0.42581333353E+02 -0.15031682751E+03  0.43534486406E+03  0.46252942528E+03  0.00000000000E+00 0. -1.
         22    1    3    3    0    0 -0.11900159858E+03  0.46786811189E+02  0.93674743901E+02  0.15850975935E+03  0.00000000000E+00 0. -1.
         22    1    3    3    0    0 -0.37399128504E+02  0.10089655709E+03  0.77642862105E+00  0.10760768043E+03  0.00000000000E+00 0. -1.
</event>
<event>
 7    1  0.5854318E-006  0.1199826E+03  0.7818608E-02  0.1243988E+00
          2   -1    0    0  502    0  0.00000000000E+00  0.00000000000E+00  0.15536991346E+04  0.15536991346E+04  0.00000000000E+00 0. -1.
          1   -1    0    0  501    0 -0.00000000000E+00 -0.00000000000E+00 -0.20881082950E+03  0.20881082950E+03  0.00000000000E+00 0. -1.
         25    2    1    2    0    0  0.11374038979E+03 -0.66619780356E+02  0.23456167161E+03  0.29668116876E+03  0.12500186680E+03 0.  0.
          2    1    1    2  501    0 -0.11174427922E+03 -0.52305812026E+02 -0.15320620674E+03  0.19670999896E+03  0.00000000000E+00 0. -1.
          1    1    1    2  502    0 -0.19961105693E+01  0.11892559238E+03  0.12635328403E+04  0.12691187964E+04  0.00000000000E+00 0. -1.
         22    1    3    3    0    0  0.90977412240E+01 -0.76001067427E+02  0.95285574463E+02  0.12222222321E+03  0.00000000000E+00 0. -1.
         22    1    3    3    0    0  0.10464264856E+03  0.93812870706E+01  0.13927609715E+03  0.17445894555E+03  0.00000000000E+00 0. -1.
</event>
<event>
 7    1  0.5854318E-006  0.1178221E+03  0.7818608E-02  0.1353090E+00
          2   -1    0    0  502    0  0.00000000000E+00  0.00000000000E+00  0.15662404805E+04  0.15662404805E+04  0.00000000000E+00 0. -1.
          1   -1    0    0  501    0 -0.00000000000E+00 -0.00000000000E+00 -0.40338335933E+02  0.40338335933E+02  0.00000000000E+00 0. -1.
         25    2    1    2    0    0 -0.33036944570E+02  0.11280004835E+03  0.43630802622E+03  0.46883353410E+03  0.12499959333E+03 0.  0.
          2    1    1    2  501    0 -0.40030264230E+02 -0.18556982425E+02  0.25673133317E+01  0.44196999318E+02  0.00000000000E+00 0. -1.
          1    1    1    2  502    0  0.73067208800E+02 -0.94243065929E+02  0.10870268050E+04  0.10935482831E+04  0.00000000000E+00 0. -1.
         22    1    3    3    0    0  0.39620525373E+02  0.67703708063E+02  0.14053187715E+03  0.16094342674E+03  0.00000000000E+00 0.  1.
         22    1    3    3    0    0 -0.72657469944E+02  0.45096340291E+02  0.29577614907E+03  0.30789010735E+03  0.00000000000E+00 0.  1.
</event>
<event>
 7    1  0.5854318E-006  0.1571074E+03  0.7818608E-02  0.1219272E+00
          2   -1    0    0  502    0  0.00000000000E+00  0.00000000000E+00  0.32081043246E+03  0.32081043246E+03  0.00000000000E+00 0. -1.
          1   -1    0    0  501    0 -0.00000000000E+00 -0.00000000000E+00 -0.12413607187E+04  0.12413607187E+04  0.00000000000E+00 0. -1.
         25    2    1    2    0    0  0.69323234704E+02 -0.78526606030E+02 -0.19560850997E+03  0.25467584946E+03  0.12499984161E+03 0.  0.
          2    1    1    2  501    0 -0.78595349775E+02 -0.86891787380E+02 -0.98891785352E+03  0.99583428980E+03  0.00000000000E+00 0. -1.
          1    1    1    2  502    0  0.92721150714E+01  0.16541839341E+03  0.26397607724E+03  0.31166101192E+03  0.00000000000E+00 0. -1.
         22    1    3    3    0    0  0.34804184917E+02 -0.10776151244E+03 -0.16475492742E+03  0.19992013645E+03  0.00000000000E+00 0.  1.
         22    1    3    3    0    0  0.34519049787E+02  0.29234906407E+02 -0.30853582553E+02  0.54755713010E+02  0.00000000000E+00 0.  1.
</event>
<event>
 7    1  0.5854318E-006  0.1019842E+03  0.7818608E-02  0.1289292E+00
          2   -1    0    0  502    0  0.00000000000E+00  0.00000000000E+00  0.10831425754E+04  0.10831425754E+04  0.00000000000E+00 0. -1.
          1   -1    0    0  501    0 -0.00000000000E+00 -0.00000000000E+00 -0.44587602377E+03  0.44587602377E+03  0.00000000000E+00 0. -1.
         25    2    1    2    0    0 -0.72833425986E+02  0.17042197933E+03 -0.30881677066E+02  0.22567270529E+03  0.12500453173E+03 0.  0.
          2    1    1    2  501    0  0.31099662742E+02 -0.90605624827E+02 -0.30825528433E+03  0.32279697735E+03  0.00000000000E+00 0. -1.
          1    1    1    2  502    0  0.41733763244E+02 -0.79816354507E+02  0.97640351299E+03  0.98054891649E+03  0.00000000000E+00 0. -1.
         22    1    3    3    0    0 -0.10322955851E+03  0.16071112079E+03 -0.20446625233E+02  0.19210015768E+03  0.00000000000E+00 0.  1.
         22    1    3    3    0    0  0.30396132527E+02  0.97108585409E+01 -0.10435051833E+02  0.33572547609E+02  0.00000000000E+00 0.  1.
</event>
<event>
 7    1  0.5854318E-006  0.2762132E+02  0.7818608E-02  0.1649177E+00
          2   -1    0    0  502    0  0.00000000000E+00  0.00000000000E+00  0.65462033215E+03  0.65462033215E+03  0.00000000000E+00 0. -1.
          1   -1    0    0  501    0 -0.00000000000E+00 -0.00000000000E+00 -0.50754252758E+03  0.50754252758E+03  0.00000000000E+00 0. -1.
         25    2    1    2    0    0  0.31108174361E+02 -0.33883747562E+02 -0.22818963396E+02  0.13511497602E+03  0.12497809725E+03 0.  0.
          2    1    1    2  501    0 -0.81571506387E+01  0.26273905947E+02 -0.42788939991E+03  0.42877289536E+03  0.00000000000E+00 0. -1.
          1    1    1    2  502    0 -0.22951023723E+02  0.76098416148E+01  0.59778616788E+03  0.59827498835E+03  0.00000000000E+00 0. -1.
         22    1    3    3    0    0  0.16809833382E+02 -0.72807556820E+02 -0.45863077444E+02  0.87675154411E+02  0.00000000000E+00 0.  1.
         22    1    3    3    0    0  0.14298340980E+02  0.38923809258E+02  0.23044114048E+02  0.47439821607E+02  0.00000000000E+00 0.  1.
</event>
<event>
 7    1  0.5854318E-006  0.6733380E+02  0.7818608E-02  0.1391816E+00
          2   -1    0    0  502    0  0.00000000000E+00  0.00000000000E+00  0.15445931775E+04  0.15445931775E+04  0.00000000000E+00 0. -1.
          1   -1    0    0  501    0 -0.00000000000E+00 -0.00000000000E+00 -0.43007587306E+03  0.43007587306E+03  0.00000000000E+00 0. -1.
         25    2    1    2    0    0  0.98150077427E+02 -0.67557838261E+02  0.92579900255E+02  0.19594183752E+03  0.12499866619E+03 0.  0.
          2    1    1    2  501    0 -0.36385684295E+02  0.42691818684E+02 -0.37551906091E+03  0.37968549421E+03  0.00000000000E+00 0. -1.
          1    1    1    2  502    0 -0.61764393132E+02  0.24866019577E+02  0.13974564651E+04  0.13990417188E+04  0.00000000000E+00 0. -1.
         22    1    3    3    0    0  0.95383019794E+02 -0.11685362557E+02  0.10578784379E+02  0.96676671654E+02  0.00000000000E+00 0.  1.
         22    1    3    3    0    0  0.27670576334E+01 -0.55872475704E+02  0.82001115876E+02  0.99265165864E+02  0.00000000000E+00 0.  1.
</event>
<event>
 7    1  0.5854318E-006  0.9422406E+02  0.7818608E-02  0.1453732E+00
          2   -1    0    0  502    0  0.00000000000E+00  0.00000000000E+00  0.23773913545E+03  0.23773913545E+03  0.00000000000E+00 0. -1.
          1   -1    0    0  501    0 -0.00000000000E+00 -0.00000000000E+00 -0.30166961481E+03  0.30166961481E+03  0.00000000000E+00 0. -1.
         25    2    1    2    0    0 -0.10192938549E+02 -0.10270793059E+03 -0.21095110541E+03  0.26604172213E+03  0.12500005615E+03 0.  0.
          2    1    1    2  501    0  0.24125832319E+02  0.82021487092E+02 -0.32987498339E+02  0.91639266565E+02  0.00000000000E+00 0. -1.
          1    1    1    2  502    0 -0.13932893770E+02  0.20686443498E+02  0.18000812439E+03  0.18172776155E+03  0.00000000000E+00 0. -1.
         22    1    3    3    0    0  0.54470421346E+02 -0.27308400143E+02 -0.10020198367E+03  0.11727409369E+03  0.00000000000E+00 0. -1.
         22    1    3    3    0    0 -0.64663359896E+02 -0.75399530448E+02 -0.11074912174E+03  0.14876762844E+03  0.00000000000E+00 0. -1.
</event>
<event>
 7    1  0.5854318E-006  0.1917529E+03  0.7818608E-02  0.1289762E+00
          2   -1    0    0  502    0  0.00000000000E+00  0.00000000000E+00  0.37821360440E+04  0.37821360440E+04  0.00000000000E+00 0. -1.
          1   -1    0    0  501    0 -0.00000000000E+00 -0.00000000000E+00 -0.25839343983E+03  0.25839343983E+03  0.00000000000E+00 0. -1.
         25    2    1    2    0    0 -0.15872463650E+03 -0.12710369667E+03  0.28584149564E+03  0.37239717593E+03  0.12500174426E+03 0.  0.
          2    1    1    2  501    0  0.17262572650E+03  0.81481772123E+02 -0.17256795474E+03  0.25732978771E+03  0.00000000000E+00 0. -1.
          1    1    1    2  502    0 -0.13901089995E+02  0.45621924548E+02  0.34104690633E+04  0.34108025202E+04  0.00000000000E+00 0. -1.
         22    1    3    3    0    0 -0.21950661867E+02 -0.95473359081E+02  0.12740474766E+03  0.16071391843E+03  0.00000000000E+00 0. -1.
         22    1    3    3    0    0 -0.13677397464E+03 -0.31630337591E+02  0.15843674797E+03  0.21168325749E+03  0.00000000000E+00 0. -1.
</event>
<event>
 7    1  0.8048114E-006  0.7394134E+02  0.7818608E-02  0.1374091E+00
          2   -1    0    0  502    0  0.00000000000E+00  0.00000000000E+00  0.15286521835E+04  0.15286521835E+04  0.00000000000E+00 0. -1.
          1   -1    0    0  501    0 -0.00000000000E+00 -0.00000000000E+00 -0.75634824692E+03  0.75634824692E+03  0.00000000000E+00 0. -1.
         25    2    1    2    0    0 -0.92854457549E+02  0.74134750358E+02 -0.35835769348E+03  0.39769627012E+03  0.12499670113E+03 0.  0.
          2    1    1    2  501    0  0.21541949590E+02 -0.54913765825E+02 -0.37511127359E+03  0.37972100922E+03  0.00000000000E+00 0. -1.
          1    1    1    2  502    0  0.71312507958E+02 -0.19220984532E+02  0.15057729036E+04  0.15075831510E+04  0.00000000000E+00 0. -1.
         22    1    3    3    0    0 -0.18119019557E+02 -0.99524529138E+01 -0.21245450817E+03  0.21345788397E+03  0.00000000000E+00 0. -1.
         22    1    3    3    0    0 -0.74735437991E+02  0.84087203272E+02 -0.14590318531E+03  0.18423838615E+03  0.00000000000E+00 0. -1.
</event>
<event>
 7    1  0.5854318E-006  0.9831121E+02  0.7818608E-02  0.1304608E+00
          2   -1    0    0  502    0  0.00000000000E+00  0.00000000000E+00  0.86984728129E+03  0.86984728129E+03  0.00000000000E+00 0. -1.
          1   -1    0    0  501    0 -0.00000000000E+00 -0.00000000000E+00 -0.13206167002E+04  0.13206167002E+04  0.00000000000E+00 0. -1.
         25    2    1    2    0    0 -0.80751102219E+02 -0.12589923794E+03  0.12108110047E+03  0.22947170938E+03  0.12500109557E+03 0.  0.
          2    1    1    2  501    0 -0.43598814683E+01  0.80958580778E+02 -0.12617798252E+04  0.12643819153E+04  0.00000000000E+00 0. -1.
          1    1    1    2  502    0  0.85110983687E+02  0.44940657158E+02  0.68992930583E+03  0.69661035684E+03  0.00000000000E+00 0. -1.
         22    1    3    3    0    0 -0.26194636886E+02 -0.97120004311E+02  0.13289169340E+03  0.16666930255E+03  0.00000000000E+00 0. -1.
         22    1    3    3    0    0 -0.54556465333E+02 -0.28779233625E+02 -0.11810592936E+02  0.62802406826E+02  0.00000000000E+00 0. -1.
</event>
<event>
 7    1  0.5854318E-006  0.4767951E+02  0.7818608E-02  0.1463213E+00
          2   -1    0    0  502    0  0.00000000000E+00  0.00000000000E+00  0.60849414069E+03  0.60849414069E+03  0.00000000000E+00 0. -1.
          1   -1    0    0  501    0 -0.00000000000E+00 -0.00000000000E+00 -0.80177138136E+02  0.80177138136E+02  0.00000000000E+00 0. -1.
         25    2    1    2    0    0  0.18120778049E+02  0.27544365031E+00  0.10878688977E+03  0.16669577974E+03  0.12499782850E+03 0.  0.
          2    1    1    2  501    0 -0.79808305303E+01 -0.47006828037E+02 -0.38606661910E+02  0.61349897163E+02  0.00000000000E+00 0. -1.
          1    1    1    2  502    0 -0.10139947519E+02  0.46731384387E+02  0.45813677469E+03  0.46062560192E+03  0.00000000000E+00 0. -1.
         22    1    3    3    0    0 -0.30673557603E+02  0.41733859328E+02  0.16473064371E+02  0.54350197794E+02  0.00000000000E+00 0.  1.
         22    1    3    3    0    0  0.48794335653E+02 -0.41458415678E+02  0.92313825400E+02  0.11234558194E+03  0.00000000000E+00 0.  1.
</event>
<event>
 7    1  0.5854318E-006  0.8756019E+02  0.7818608E-02  0.1465785E+00
          2   -1    0    0  502    0  0.00000000000E+00  0.00000000000E+00  0.18987925510E+03  0.18987925510E+03  0.00000000000E+00 0. -1.
          1   -1    0    0  501    0 -0.00000000000E+00 -0.00000000000E+00 -0.73188432351E+03  0.73188432351E+03  0.00000000000E+00 0. -1.
         25    2    1    2    0    0  0.10141928530E+03  0.59761094831E+01 -0.36976725295E+03  0.40332917974E+03  0.12500008224E+03 0.  0.
          2    1    1    2  501    0 -0.15221445531E+02 -0.19310718309E+02 -0.33386742125E+03  0.33477164041E+03  0.00000000000E+00 0. -1.
          1    1    1    2  502    0 -0.86197839768E+02  0.13334608826E+02  0.16162960580E+03  0.18366275846E+03  0.00000000000E+00 0. -1.
         22    1    3    3    0    0  0.80851020443E+02  0.55069486737E+02 -0.16557987569E+03  0.19231804676E+03  0.00000000000E+00 0.  1.
         22    1    3    3    0    0  0.20568264855E+02 -0.49093377254E+02 -0.20418737726E+03  0.21101113298E+03  0.00000000000E+00 0.  1.
</event>
<event>
 7    1  0.9016828E-006  0.6548788E+02  0.7818608E-02  0.1510591E+00
          2   -1    0    0  502    0  0.00000000000E+00  0.00000000000E+00  0.12593974800E+04  0.12593974800E+04  0.00000000000E+00 0. -1.
          1   -1    0    0  501    0 -0.00000000000E+00 -0.00000000000E+00 -0.17857438811E+04  0.17857438811E+04  0.00000000000E+00 0. -1.
         25    2    1    2    0    0  0.61597342152E+02 -0.76248994370E+01 -0.11057667541E+04  0.11145396145E+04  0.12500426405E+03 0.  0.
          2    1    1    2  501    0 -0.40764569369E+01 -0.23692673156E+02 -0.67452194483E+03  0.67495023099E+03  0.00000000000E+00 0. -1.
          1    1    1    2  502    0 -0.57520885215E+02  0.31317572593E+02  0.12539422978E+04  0.12556515157E+04  0.00000000000E+00 0. -1.
         22    1    3    3    0    0  0.64340066001E+02 -0.59428610354E+02 -0.71487338995E+03  0.72021897189E+03  0.00000000000E+00 0.  1.
         22    1    3    3    0    0 -0.27427238490E+01  0.51803710917E+02 -0.39089336419E+03  0.39432064258E+03  0.00000000000E+00 0.  1.
</event>
<event>
 7    1  0.5854318E-006  0.9398988E+02  0.7818608E-02  0.1344226E+00
          2   -1    0    0  502    0  0.00000000000E+00  0.00000000000E+00  0.20759129669E+04  0.20759129669E+04  0.00000000000E+00 0. -1.
          1   -1    0    0  501    0 -0.00000000000E+00 -0.00000000000E+00 -0.81793410344E+02  0.81793410344E+02  0.00000000000E+00 0. -1.
         25    2    1    2    0    0  0.38494440819E+02 -0.24732012167E+02  0.18095498787E+03  0.22464072554E+03  0.12500101415E+03 0.  0.
          2    1    1    2  501    0 -0.82749781793E+02  0.64747867443E+02 -0.13048994632E+02  0.10587770769E+03  0.00000000000E+00 0. -1.
          1    1    1    2  502    0  0.44255340973E+02 -0.40015855276E+02  0.18262135634E+04  0.18271879441E+04  0.00000000000E+00 0. -1.
         22    1    3    3    0    0 -0.39941115819E+02  0.46839567496E+01  0.10152659971E+03  0.10920111095E+03  0.00000000000E+00 0. -1.
         22    1    3    3    0    0  0.78435556638E+02 -0.29415968917E+02  0.79428388154E+02  0.11543961459E+03  0.00000000000E+00 0. -1.
</event>
<event>
 7    1  0.5854318E-006  0.2422267E+03  0.7818608E-02  0.1282863E+00
          2   -1    0    0  502    0  0.00000000000E+00  0.00000000000E+00  0.49193112383E+03  0.49193112383E+03  0.00000000000E+00 0. -1.
          1   -1    0    0  501    0 -0.00000000000E+00 -0.00000000000E+00 -0.15920928567E+04  0.15920928567E+04  0.00000000000E+00 0. -1.
         25    2    1    2    0    0 -0.22701680315E+03 -0.15693270063E+03 -0.76319313417E+02  0.31243359389E+03  0.12500244618E+03 0.  0.
          2    1    1    2  501    0  0.34422095952E+02  0.20938272227E+02 -0.13602186914E+04  0.13608152631E+04  0.00000000000E+00 0. -1.
          1    1    1    2  502    0  0.19259470720E+03  0.13599442840E+03  0.33637627193E+03  0.41077512353E+03  0.00000000000E+00 0. -1.
         22    1    3    3    0    0 -0.22454158807E+03 -0.16332034575E+03 -0.46110843632E+02  0.28145811412E+03  0.00000000000E+00 0.  1.
         22    1    3    3    0    0 -0.24752150832E+01  0.63876451190E+01 -0.30208469785E+02  0.30975479765E+02  0.00000000000E+00 0.  1.
</event>
<event>
 7    1  0.5854318E-006  0.9620699E+02  0.7818608E-02  0.1454709E+00
          2   -1    0    0  502    0  0.00000000000E+00  0.00000000000E+00  0.25129274307E+02  0.25129274307E+02  0.00000000000E+00 0. -1.
          1   -1    0    0  501    0 -0.00000000000E+00 -0.00000000000E+00 -0.16052611537E+04  0.16052611537E+04  0.00000000000E+00 0. -1.
         25    2    1    2    0    0  0.93340360683E+02 -0.12055796830E+01 -0.49501146372E+03  0.51901272283E+03  0.12499592351E+03 0.  0.
          2    1    1    2  501    0 -0.93789363992E+02  0.25454345711E+02 -0.10826459182E+04  0.10869988743E+04  0.00000000000E+00 0. -1.
          1    1    1    2  502    0  0.44900330873E+00 -0.24248766028E+02 -0.24744974815E+01  0.24378830891E+02  0.00000000000E+00 0. -1.
         22    1    3    3    0    0  0.26836267159E+02 -0.59546936400E+02 -0.25447200133E+03  0.26272042618E+03  0.00000000000E+00 0. -1.
         22    1    3    3    0    0  0.66504093524E+02  0.58341356717E+02 -0.24053946238E+03  0.25629229665E+03  0.00000000000E+00 0. -1.
</event>
<event>
 7    1  0.5854318E-006  0.9622693E+02  0.7818608E-02  0.1340527E+00
          2   -1    0    0  502    0  0.00000000000E+00  0.00000000000E+00  0.83359212819E+03  0.83359212819E+03  0.00000000000E+00 0. -1.
          1   -1    0    0  501    0 -0.00000000000E+00 -0.00000000000E+00 -0.78429280756E+03  0.78429280756E+03  0.00000000000E+00 0. -1.
         25    2    1    2    0    0 -0.13325168918E+03 -0.29808245586E+02 -0.27112275112E+03  0.32829331304E+03  0.12499763613E+03 0.  0.
          2    1    1    2  501    0  0.76474581221E+02  0.49721781020E+02 -0.47915177219E+03  0.48775715051E+03  0.00000000000E+00 0. -1.
          1    1    1    2  502    0  0.56777107961E+02 -0.19913535434E+02  0.79957384394E+03  0.80183447219E+03  0.00000000000E+00 0. -1.
         22    1    3    3    0    0 -0.13454752901E+03  0.19232312865E+02 -0.20487160480E+03  0.24585624636E+03  0.00000000000E+00 0. -1.
         22    1    3    3    0    0  0.12958398305E+01 -0.49040558451E+02 -0.66251146325E+02  0.82437066684E+02  0.00000000000E+00 0. -1.
</event>
<event>
 7    1  0.5854318E-006  0.1631357E+03  0.7818608E-02  0.1290304E+00
          2   -1    0    0  502    0  0.00000000000E+00  0.00000000000E+00  0.20905690122E+04  0.20905690122E+04  0.00000000000E+00 0. -1.
          1   -1    0    0  501    0 -0.00000000000E+00 -0.00000000000E+00 -0.94932614389E+02  0.94932614389E+02  0.00000000000E+00 0. -1.
         25    2    1    2    0    0 -0.10754143489E+03  0.79424445318E+02  0.12984082483E+03  0.22440507575E+03  0.12500238197E+03 0.  0.
          2    1    1    2  501    0  0.10181426801E+02  0.54838025796E+02 -0.26357259222E+02  0.61689347854E+02  0.00000000000E+00 0. -1.
          1    1    1    2  502    0  0.97360008091E+02 -0.13426247111E+03  0.18921528322E+04  0.18994072030E+04  0.00000000000E+00 0. -1.
         22    1    3    3    0    0 -0.13485293139E+03  0.64870888738E+02  0.92575982738E+02  0.17596550199E+03  0.00000000000E+00 0. -1.
         22    1    3    3    0    0  0.27311496501E+02  0.14553556579E+02  0.37264842093E+02  0.48439573765E+02  0.00000000000E+00 0. -1.
</event>
<event>
 7    1  0.5854318E-006  0.8246148E+02  0.7818608E-02  0.1457577E+00
          2   -1    0    0  502    0  0.00000000000E+00  0.00000000000E+00  0.89217386633E+03  0.89217386633E+03  0.00000000000E+00 0. -1.
          1   -1    0    0  501    0 -0.00000000000E+00 -0.00000000000E+00 -0.58732764740E+03  0.58732764740E+03  0.00000000000E+00 0. -1.
         25    2    1    2    0    0 -0.92907183118E+02 -0.55118773296E+02  0.18629094052E+03  0.24899529123E+03  0.12499806675E+03 0.  0.
          2    1    1    2  501    0  0.25130122945E+02  0.11673216879E+02 -0.55322536297E+03  0.55391884722E+03  0.00000000000E+00 0. -1.
          1    1    1    2  502    0  0.67777060173E+02  0.43445556417E+02  0.67178064138E+03  0.67658737528E+03  0.00000000000E+00 0. -1.
         22    1    3    3    0    0 -0.27394251382E+01  0.22893105256E+02  0.97887035278E+02  0.10056575159E+03  0.00000000000E+00 0. -1.
         22    1    3    3    0    0 -0.90167757979E+02 -0.78011878552E+02  0.88403905238E+02  0.14842953963E+03  0.00000000000E+00 0. -1.
</event>
<event>
 7    1  0.5854318E-006  0.7467617E+02  0.7818608E-02  0.1502382E+00
          2   -1    0    0  502    0  0.00000000000E+00  0.00000000000E+00  0.95652397258E+03  0.95652397258E+03  0.00000000000E+00 0. -1.
          1   -1    0    0  501    0 -0.00000000000E+00 -0.00000000000E+00 -0.25701839826E+03  0.25701839826E+03  0.00000000000E+00 0. -1.
         25    2    1    2    0    0  0.36717632607E+02  0.37973429985E+02 -0.18935050626E+02  0.13701968292E+03  0.12500276572E+03 0.  0.
          2    1    1    2  501    0  0.15443715204E+02  0.16079890744E+02 -0.17676779976E+03  0.17816825266E+03  0.00000000000E+00 0. -1.
          1    1    1    2  502    0 -0.52161347810E+02 -0.54053320729E+02  0.89520842470E+03  0.89835443526E+03  0.00000000000E+00 0. -1.
         22    1    3    3    0    0 -0.14435971102E+02 -0.79984040115E+01 -0.56355864212E+02  0.58722697140E+02  0.00000000000E+00 0.  1.
         22    1    3    3    0    0  0.51153603708E+02  0.45971833997E+02  0.37420813585E+02  0.78296985783E+02  0.00000000000E+00 0.  1.
</event>
<event>
 7    1  0.5854318E-006  0.7521592E+02  0.7818608E-02  0.1379388E+00
          2   -1    0    0  502    0  0.00000000000E+00  0.00000000000E+00  0.33292802741E+03  0.33292802741E+03  0.00000000000E+00 0. -1.
          1   -1    0    0  501    0 -0.00000000000E+00 -0.00000000000E+00 -0.14609470724E+04  0.14609470724E+04  0.00000000000E+00 0. -1.
         25    2    1    2    0    0 -0.34314384209E+02 -0.78089185232E+01  0.53706496685E+02  0.14052314482E+03  0.12499564102E+03 0.  0.
          2    1    1    2  501    0 -0.44305522760E+02  0.33467530188E+02 -0.14097244446E+04  0.14108175164E+04  0.00000000000E+00 0. -1.
          1    1    1    2  502    0  0.78619906969E+02 -0.25658611665E+02  0.22799890296E+03  0.24253443854E+03  0.00000000000E+00 0. -1.
         22    1    3    3    0    0  0.30810441067E+02 -0.37843882782E+02  0.48206822217E+02  0.68595484188E+02  0.00000000000E+00 0. -1.
         22    1    3    3    0    0 -0.65124825277E+02  0.30034964259E+02  0.54996744688E+01  0.71927660636E+02  0.00000000000E+00 0. -1.
</event>
<event>
 7    1  0.5854318E-006  0.1157802E+03  0.7818608E-02  0.1260559E+00
          2   -1    0    0  502    0  0.00000000000E+00  0.00000000000E+00  0.76002710597E+03  0.76002710597E+03  0.00000000000E+00 0. -1.
          1   -1    0    0  501    0 -0.00000000000E+00 -0.00000000000E+00 -0.11976686466E+04  0.11976686466E+04  0.00000000000E+00 0. -1.
         25    2    1    2    0    0 -0.10038298087E+02  0.45655402645E+02  0.10451796058E+03  0.16951036463E+03  0.12499830564E+03 0.  0.
          2    1    1    2  501    0 -0.10007725550E+03  0.30148681366E+02 -0.11556151983E+04  0.11603322311E+04  0.00000000000E+00 0. -1.
          1    1    1    2  502    0  0.11011555358E+03 -0.75804084011E+02  0.61345569705E+03  0.62785315683E+03  0.00000000000E+00 0. -1.
         22    1    3    3    0    0  0.22398224392E+02  0.69109547407E+02  0.19005848820E+02  0.75093490317E+02  0.00000000000E+00 0.  1.
         22    1    3    3    0    0 -0.32436522479E+02 -0.23454144762E+02  0.85512111764E+02  0.94416874315E+02  0.00000000000E+00 0.  1.
</event>
<event>
 7    1  0.5854318E-006  0.1408297E+03  0.7818608E-02  0.1304139E+00
          2   -1    0    0  502    0  0.00000000000E+00  0.00000000000E+00  0.15752767523E+03  0.15752767523E+03  0.00000000000E+00 0. -1.
          1   -1    0    0  501    0 -0.00000000000E+00 -0.00000000000E+00 -0.33261333858E+03  0.33261333858E+03  0.00000000000E+00 0. -1.
         25    2    1    2    0    0  0.77987858496E+02 -0.14329648818E+03 -0.97598571960E+00  0.20553419258E+03  0.12500944835E+03 0.  0.
          2    1    1    2  501    0  0.12834627383E+02  0.55373532943E+02 -0.14378345226E+03  0.15461124459E+03  0.00000000000E+00 0. -1.
          1    1    1    2  502    0 -0.90822485879E+02  0.87922955235E+02 -0.30326225364E+02  0.12999557663E+03  0.00000000000E+00 0. -1.
         22    1    3    3    0    0  0.87721766808E+01 -0.25234675055E+02 -0.52816805810E+02  0.59189144991E+02  0.00000000000E+00 0.  1.
         22    1    3    3    0    0  0.69215681816E+02 -0.11806181312E+03  0.51840820090E+02  0.14634504759E+03  0.00000000000E+00 0.  1.
</event>
<event>
 7    1  0.5854318E-006  0.1819295E+03  0.7818608E-02  0.1239429E+00
          2   -1    0    0  502    0  0.00000000000E+00  0.00000000000E+00  0.90217051282E+02  0.90217051282E+02  0.00000000000E+00 0. -1.
          1   -1    0    0  501    0 -0.00000000000E+00 -0.00000000000E+00 -0.20658507495E+04  0.20658507495E+04  0.00000000000E+00 0. -1.
         25    2    1    2    0    0  0.16134553295E+03 -0.16818970928E+03 -0.85572108971E+03  0.89565835064E+03  0.12500055352E+03 0.  0.
          2    1    1    2  501    0 -0.82087517852E+02  0.14658856219E+03 -0.11578130044E+04  0.11699391096E+04  0.00000000000E+00 0. -1.
          1    1    1    2  502    0 -0.79258015102E+02  0.21601147087E+02  0.37900395834E+02  0.90470340542E+02  0.00000000000E+00 0. -1.
         22    1    3    3    0    0  0.55955898298E+01 -0.40083258438E+02 -0.46310375030E+02  0.61503081776E+02  0.00000000000E+00 0. -1.
         22    1    3    3    0    0  0.15574994312E+03 -0.12810645084E+03 -0.80941071468E+03  0.83415526887E+03  0.00000000000E+00 0. -1.
</event>
<event>
 7    1  0.5854318E-006  0.7446661E+02  0.7818608E-02  0.1416779E+00
          2   -1    0    0  502    0  0.00000000000E+00  0.00000000000E+00  0.50450615921E+03  0.50450615921E+03  0.00000000000E+00 0. -1.
          1   -1    0    0  501    0 -0.00000000000E+00 -0.00000000000E+00 -0.10095280860E+03  0.10095280860E+03  0.00000000000E+00 0. -1.
         25    2    1    2    0    0 -0.10280974422E+02  0.40596483368E+02  0.10618992320E+03  0.16927911415E+03  0.12500138319E+03 0.  0.
          2    1    1    2  501    0 -0.32459430456E+02  0.26138146782E+02 -0.58372967577E+02  0.71723222784E+02  0.00000000000E+00 0. -1.
          1    1    1    2  502    0  0.42740404878E+02 -0.66734630150E+02  0.35573639499E+03  0.36445663088E+03  0.00000000000E+00 0. -1.
         22    1    3    3    0    0  0.21322028302E+02  0.77431790572E+02  0.82976319108E+02  0.11547891849E+03  0.00000000000E+00 0. -1.
         22    1    3    3    0    0 -0.31603002725E+02 -0.36835307204E+02  0.23213604090E+02  0.53800195659E+02  0.00000000000E+00 0. -1.
</event>
<event>
 7    1  0.5854318E-006  0.1864215E+03  0.7818608E-02  0.1176234E+00
          2   -1    0    0  502    0  0.00000000000E+00  0.00000000000E+00  0.51965075044E+03  0.51965075044E+03  0.00000000000E+00 0. -1.
          1   -1    0    0  501    0 -0.00000000000E+00 -0.00000000000E+00 -0.67593755968E+03  0.67593755968E+03  0.00000000000E+00 0. -1.
         25    2    1    2    0    0  0.81746079649E+02  0.16854325073E+01  0.10844993837E+03  0.18459965071E+03  0.12502151691E+03 0.  0.
          2    1    1    2  501    0 -0.13829113928E+03  0.14571864220E+03 -0.60413829824E+03  0.63666431130E+03  0.00000000000E+00 0. -1.
          1    1    1    2  502    0  0.56545059627E+02 -0.14740407470E+03  0.33940155063E+03  0.37432434810E+03  0.00000000000E+00 0. -1.
         22    1    3    3    0    0  0.35878290362E+02 -0.32081030800E+02  0.11745710128E+03  0.12693547533E+03  0.00000000000E+00 0.  1.
         22    1    3    3    0    0  0.45867789287E+02  0.33766463307E+02 -0.90071629129E+01  0.57664175379E+02  0.00000000000E+00 0.  1.
</event>
<event>
 7    1  0.5854318E-006  0.4970021E+02  0.7818608E-02  0.1455110E+00
          2   -1    0    0  502    0  0.00000000000E+00  0.00000000000E+00  0.13992872697E+04  0.13992872697E+04  0.00000000000E+00 0. -1.
          1   -1    0    0  501    0 -0.00000000000E+00 -0.00000000000E+00 -0.80943543974E+02  0.80943543974E+02  0.00000000000E+00 0. -1.
         25    2    1    2    0    0  0.19170194489E+01  0.81069856225E+01  0.14608954424E+03  0.19244821066E+03  0.12499904267E+03 0.  0.
          2    1    1    2  501    0 -0.42692523238E+02 -0.31096451090E+02 -0.45146263023E+02  0.69482558069E+02  0.00000000000E+00 0. -1.
          1    1    1    2  502    0  0.40775503790E+02  0.22989465467E+02  0.12174004445E+04  0.12183000450E+04  0.00000000000E+00 0. -1.
         22    1    3    3    0    0 -0.15987795546E+02 -0.70319597008E+00  0.16451264907E+03  0.16528918838E+03  0.00000000000E+00 0. -1.
         22    1    3    3    0    0  0.17904814995E+02  0.88101815926E+01 -0.18423104828E+02  0.27159022280E+02  0.00000000000E+00 0. -1.
</event>
<event>
 7    1  0.5854318E-006  0.2547261E+03  0.7818608E-02  0.1262018E+00
          2   -1    0    0  502    0  0.00000000000E+00  0.00000000000E+00  0.17631897749E+04  0.17631897749E+04  0.00000000000E+00 0. -1.
          1   -1    0    0  501    0 -0.00000000000E+00 -0.00000000000E+00 -0.55391033986E+02  0.55391033986E+02  0.00000000000E+00 0. -1.
         25    2    1    2    0    0  0.22121170881E+03 -0.11984977679E+03  0.78615077980E+03  0.83483871771E+03  0.12499618756E+03 0.  0.
          2    1    1    2  501    0 -0.20138555418E+03  0.16227808263E+03  0.53464139923E+03  0.59391223535E+03  0.00000000000E+00 0. -1.
          1    1    1    2  502    0 -0.19826154637E+02 -0.42428305839E+02  0.38700656194E+03  0.38982985587E+03  0.00000000000E+00 0. -1.
         22    1    3    3    0    0  0.79334682242E+01  0.79635226780E+00 -0.30009975458E+01  0.85193944191E+01  0.00000000000E+00 0.  1.
         22    1    3    3    0    0  0.21327824059E+03 -0.12064612906E+03  0.78915177734E+03  0.82631932329E+03  0.00000000000E+00 0.  1.
</event>
<event>
 7    1  0.5854318E-006  0.1663816E+03  0.7818608E-02  0.1259672E+00
          2   -1    0    0  502    0  0.00000000000E+00  0.00000000000E+00  0.18272530817E+03  0.18272530817E+03  0.00000000000E+00 0. -1.
          1   -1    0    0  501    0 -0.00000000000E+00 -0.00000000000E+00 -0.14435904628E+04  0.14435904628E+04  0.00000000000E+00 0. -1.
         25    2    1    2    0    0 -0.73792150118E+02 -0.18286154060E+03 -0.62622722166E+03  0.66833336076E+03  0.12500129398E+03 0.  0.
          2    1    1    2  501    0  0.71195747402E+02  0.17722743254E+02 -0.75187316033E+03  0.75544435884E+03  0.00000000000E+00 0. -1.
          1    1    1    2  502    0  0.25964027152E+01  0.16513879735E+03  0.11723522741E+03  0.20253805134E+03  0.00000000000E+00 0. -1.
         22    1    3    3    0    0  0.25685134279E+02 -0.85049055243E+01 -0.36904353320E+02  0.45760144612E+02  0.00000000000E+00 0. -1.
         22    1    3    3    0    0 -0.99477284397E+02 -0.17435663508E+03 -0.58932286834E+03  0.62257321614E+03  0.00000000000E+00 0. -1.
</event>
<event>
 7    1  0.5854318E-006  0.7423136E+02  0.7818608E-02  0.1387616E+00
          2   -1    0    0  502    0  0.00000000000E+00  0.00000000000E+00  0.24912170929E+03  0.24912170929E+03  0.00000000000E+00 0. -1.
          1   -1    0    0  501    0 -0.00000000000E+00 -0.00000000000E+00 -0.56128221874E+03  0.56128221874E+03  0.00000000000E+00 0. -1.
         25    2    1    2    0    0 -0.34866916297E+01 -0.79391753809E+01  0.12234790037E+03  0.17512603655E+03  0.12499972972E+03 0.  0.
          2    1    1    2  501    0  0.10298136313E+02 -0.73513562723E+02 -0.51514141866E+03  0.52046227215E+03  0.00000000000E+00 0. -1.
          1    1    1    2  502    0 -0.68114446837E+01  0.81452738104E+02  0.80633008851E+02  0.11481561932E+03  0.00000000000E+00 0. -1.
         22    1    3    3    0    0 -0.37039304712E+02  0.30976524725E+02  0.69205563618E+01  0.48778573964E+02  0.00000000000E+00 0. -1.
         22    1    3    3    0    0  0.33552613082E+02 -0.38915700106E+02  0.11542734400E+03  0.12634746259E+03  0.00000000000E+00 0. -1.
</event>
<event>
 7    1  0.5854318E-006  0.5375929E+02  0.7818608E-02  0.1437899E+00
          2   -1    0    0  502    0  0.00000000000E+00  0.00000000000E+00  0.31993646770E+03  0.31993646770E+03  0.00000000000E+00 0. -1.
          1   -1    0    0  501    0 -0.00000000000E+00 -0.00000000000E+00 -0.28241724249E+03  0.28241724249E+03  0.00000000000E+00 0. -1.
         25    2    1    2    0    0 -0.94264996544E+01 -0.10746768557E+02  0.12945273083E+03  0.18051975838E+03  0.12500008687E+03 0.  0.
          2    1    1    2  501    0 -0.37841892663E+02 -0.31375209241E+02 -0.24830876575E+03  0.25312774590E+03  0.00000000000E+00 0. -1.
          1    1    1    2  502    0  0.47268392318E+02  0.42121977798E+02  0.15637526014E+03  0.16870620590E+03  0.00000000000E+00 0. -1.
         22    1    3    3    0    0 -0.21379889858E+02  0.23821853250E+01  0.15104249925E+03  0.15256674302E+03  0.00000000000E+00 0.  1.
         22    1    3    3    0    0  0.11953390203E+02 -0.13128953882E+02 -0.21589768420E+02  0.27953015361E+02  0.00000000000E+00 0.  1.
</event>
<event>
 7    1  0.5854318E-006  0.1266103E+03  0.7818608E-02  0.1303989E+00
          2   -1    0    0  502    0  0.00000000000E+00  0.00000000000E+00  0.10385166710E+04  0.10385166710E+04  0.00000000000E+00 0. -1.
          1   -1    0    0  501    0 -0.00000000000E+00 -0.00000000000E+00 -0.73746939738E+03  0.73746939738E+03  0.00000000000E+00 0. -1.
         25    2    1    2    0    0 -0.12322363960E+03  0.69573459818E+02  0.48907361139E+03  0.52424942908E+03  0.12497973780E+03 0.  0.
          2    1    1    2  501    0  0.12644999210E+03 -0.63434101236E+01 -0.71239572600E+03  0.72355891936E+03  0.00000000000E+00 0. -1.
          1    1    1    2  502    0 -0.32263525044E+01 -0.63230049695E+02  0.52436938823E+03  0.52817771994E+03  0.00000000000E+00 0. -1.
         22    1    3    3    0    0 -0.11336314237E+03  0.88946525660E+02  0.28831114844E+03  0.32231351940E+03  0.00000000000E+00 0. -1.
         22    1    3    3    0    0 -0.98604972318E+01 -0.19373065842E+02  0.20076246295E+03  0.20193590968E+03  0.00000000000E+00 0. -1.
</event>
<event>
 7    1  0.5854318E-006  0.1141972E+03  0.7818608E-02  0.1256044E+00
          2   -1    0    0  502    0  0.00000000000E+00  0.00000000000E+00  0.20463484395E+04  0.20463484395E+04  0.00000000000E+00 0. -1.
          1   -1    0    0  501    0 -0.00000000000E+00 -0.00000000000E+00 -0.36284172357E+03  0.36284172357E+03  0.00000000000E+00 0. -1.
         25    2    1    2    0    0 -0.27249248645E+02  0.73311966420E+02 -0.54780460615E+01  0.14755619740E+03  0.12500262570E+03 0.  0.
          2    1    1    2  501    0 -0.88590654293E+02 -0.66528283825E+02 -0.27382944154E+03  0.29539275487E+03  0.00000000000E+00 0. -1.
          1    1    1    2  502    0  0.11583990294E+03 -0.67836825950E+01  0.19628142036E+04  0.19662412108E+04  0.00000000000E+00 0. -1.
         22    1    3    3    0    0  0.29038317505E+02  0.84443472099E+02 -0.10727390507E+02  0.89938872412E+02  0.00000000000E+00 0. -1.
         22    1    3    3    0    0 -0.56287566150E+02 -0.11131505679E+02  0.52493444459E+01  0.57617324989E+02  0.00000000000E+00 0. -1.
</event>
<event>
 7    1  0.5854318E-006  0.9294689E+02  0.7818608E-02  0.1302755E+00
          2   -1    0    0  502    0  0.00000000000E+00  0.00000000000E+00  0.91999348764E+02  0.91999348764E+02  0.00000000000E+00 0. -1.
          1   -1    0    0  501    0 -0.00000000000E+00 -0.00000000000E+00 -0.71694608418E+03  0.71694608418E+03  0.00000000000E+00 0. -1.
         25    2    1    2    0    0 -0.11918567173E+01 -0.53389933286E+02 -0.36042550361E+03  0.38520623272E+03  0.12500157030E+03 0.  0.
          2    1    1    2  501    0  0.87111039751E+02  0.44345916318E+01 -0.30474654647E+03  0.31698336934E+03  0.00000000000E+00 0. -1.
          1    1    1    2  502    0 -0.85919183034E+02  0.48955341655E+02  0.40225314658E+02  0.10675583089E+03  0.00000000000E+00 0. -1.
         22    1    3    3    0    0 -0.22808946707E+02 -0.69082990354E+02 -0.10135364114E+03  0.12476084393E+03  0.00000000000E+00 0.  1.
         22    1    3    3    0    0  0.21617089989E+02  0.15693057068E+02 -0.25907186247E+03  0.26044538879E+03  0.00000000000E+00 0.  1.
</event>
<event>
 7    1  0.5854318E-006  0.1079362E+03  0.7818608E-02  0.1329894E+00
          2   -1    0    0  502    0  0.00000000000E+00  0.00000000000E+00  0.32690823341E+04  0.32690823341E+04  0.00000000000E+00 0. -1.
          1   -1    0    0  501    0 -0.00000000000E+00 -0.00000000000E+00 -0.10878259275E+04  0.10878259275E+04  0.00000000000E+00 0. -1.
         25    2    1    2    0    0  0.16084518969E+03 -0.38043768500E+02 -0.40199246109E+02  0.21109186131E+03  0.12500116463E+03 0.  0.
          2    1    1    2  501    0 -0.54483802322E+02  0.22261445810E+02 -0.96037130206E+03  0.96217311047E+03  0.00000000000E+00 0. -1.
          1    1    1    2  502    0 -0.10636138736E+03  0.15782322690E+02  0.31818269548E+04  0.31836432898E+04  0.00000000000E+00 0. -1.
         22    1    3    3    0    0  0.62102638004E+02  0.78803675169E+01  0.41365831648E+02  0.75033125133E+02  0.00000000000E+00 0.  1.
         22    1    3    3    0    0  0.98742551682E+02 -0.45924136017E+02 -0.81565077756E+02  0.13605873618E+03  0.00000000000E+00 0.  1.
</event>
<event>
 7    1  0.5854318E-006  0.6361457E+02  0.7818608E-02  0.1429335E+00
          2   -1    0    0  502    0  0.00000000000E+00  0.00000000000E+00  0.22810529049E+04  0.22810529049E+04  0.00000000000E+00 0. -1.
          1   -1    0    0  501    0 -0.00000000000E+00 -0.00000000000E+00 -0.10574178762E+03  0.10574178762E+03  0.00000000000E+00 0. -1.
         25    2    1    2    0    0  0.67843027743E+02  0.71259310743E+02  0.19620735994E+03  0.25259432177E+03  0.12500399001E+03 0.  0.
          2    1    1    2  501    0 -0.11518144048E+02 -0.42789569716E+02 -0.70692448533E+02  0.83432830459E+02  0.00000000000E+00 0. -1.
          1    1    1    2  502    0 -0.56324883695E+02 -0.28469741028E+02  0.20497962059E+04  0.20507675403E+04  0.00000000000E+00 0. -1.
         22    1    3    3    0    0  0.13054429139E+02  0.69483817488E+00 -0.16989097772E+02  0.21436659333E+02  0.00000000000E+00 0.  1.
         22    1    3    3    0    0  0.54788598604E+02  0.70564472568E+02  0.21319645771E+03  0.23115766244E+03  0.00000000000E+00 0.  1.
</event>
<event>
 7    1  0.5854318E-006  0.7548179E+02  0.7818608E-02  0.1395933E+00
          2   -1    0    0  502    0  0.00000000000E+00  0.00000000000E+00  0.13173657024E+04  0.13173657024E+04  0.00000000000E+00 0. -1.
          1   -1    0    0  501    0 -0.00000000000E+00 -0.00000000000E+00 -0.11824236495E+04  0.11824236495E+04  0.00000000000E+00 0. -1.
         25    2    1    2    0    0 -0.96035532528E+02  0.47223630368E+02  0.19431256477E+03  0.25462680138E+03  0.12499816150E+03 0.  0.
          2    1    1    2  501    0  0.48717529589E+02 -0.57491758127E+02 -0.11504969917E+04  0.11529622838E+04  0.00000000000E+00 0. -1.
          1    1    1    2  502    0  0.47318002939E+02  0.10268127758E+02  0.10911264798E+04  0.10922002668E+04  0.00000000000E+00 0. -1.
         22    1    3    3    0    0 -0.11713153539E+03  0.38267166685E+02  0.19613986275E+03  0.23163552920E+03  0.00000000000E+00 0. -1.
         22    1    3    3    0    0  0.21096002857E+02  0.89564636838E+01 -0.18272979817E+01  0.22991272174E+02  0.00000000000E+00 0. -1.
</event>
<event>
 7    1  0.5854318E-006  0.1227623E+03  0.7818608E-02  0.1317231E+00
          2   -1    0    0  502    0  0.00000000000E+00  0.00000000000E+00  0.12229569453E+04  0.12229569453E+04  0.00000000000E+00 0. -1.
          1   -1    0    0  501    0 -0.00000000000E+00 -0.00000000000E+00 -0.61174624762E+03  0.61174624762E+03  0.00000000000E+00 0. -1.
         25    2    1    2    0    0  0.43911378306E+01 -0.10878808824E+03  0.15357449021E+02  0.16647738688E+03  0.12499895547E+03 0.  0.
          2    1    1    2  501    0  0.53379136791E+02  0.11281369345E+03 -0.52816824375E+03  0.54271351133E+03  0.00000000000E+00 0. -1.
          1    1    1    2  502    0 -0.57770274622E+02 -0.40256052062E+01  0.11240214924E+04  0.11255122947E+04  0.00000000000E+00 0. -1.
         22    1    3    3    0    0 -0.25621979274E+02  0.17685531546E+02 -0.12484747038E+02  0.33542998623E+02  0.00000000000E+00 0.  1.
         22    1    3    3    0    0  0.30013117104E+02 -0.12647361979E+03  0.27842196059E+02  0.13293438826E+03  0.00000000000E+00 0.  1.
</event>
<event>
 7    1  0.5854318E-006  0.1196883E+03  0.7818608E-02  0.1331836E+00
          2   -1    0    0  502    0  0.00000000000E+00  0.00000000000E+00  0.11837264093E+04  0.11837264093E+04  0.00000000000E+00 0. -1.
          1   -1    0    0  501    0 -0.00000000000E+00 -0.00000000000E+00 -0.13455780351E+03  0.13455780351E+03  0.00000000000E+00 0. -1.
         25    2    1    2    0    0  0.13570118511E+03  0.96239135759E+02  0.25417196583E+03  0.32848935120E+03  0.12500033100E+03 0.  0.
          2    1    1    2  501    0 -0.91692911293E+02 -0.68204639364E+02 -0.62810788848E+02  0.13040190953E+03  0.00000000000E+00 0. -1.
          1    1    1    2  502    0 -0.44008273815E+02 -0.28034496395E+02  0.85780742886E+03  0.85939295213E+03  0.00000000000E+00 0. -1.
         22    1    3    3    0    0  0.26137876240E+02  0.94985839366E+02  0.11931328288E+03  0.15472930468E+03  0.00000000000E+00 0. -1.
         22    1    3    3    0    0  0.10956330887E+03  0.12532963928E+01  0.13485868295E+03  0.17376004652E+03  0.00000000000E+00 0. -1.
</event>
<event>
 7    1  0.5854318E-006  0.6453657E+02  0.7818608E-02  0.1514852E+00
          2   -1    0    0  502    0  0.00000000000E+00  0.00000000000E+00  0.18264534957E+04  0.18264534957E+04  0.00000000000E+00 0. -1.
          1   -1    0    0  501    0 -0.00000000000E+00 -0.00000000000E+00 -0.21219227915E+03  0.21219227915E+03  0.00000000000E+00 0. -1.
         25    2    1    2    0    0 -0.35029693890E+02  0.24664403965E+02 -0.69090020066E+02  0.14911472752E+03  0.12500543514E+03 0.  0.
          2    1    1    2  501    0 -0.10485041042E+02  0.21258118954E+02 -0.10113413741E+03  0.10387472001E+03  0.00000000000E+00 0. -1.
          1    1    1    2  502    0  0.45514734933E+02 -0.45922522919E+02  0.17844853740E+04  0.17856563273E+04  0.00000000000E+00 0. -1.
         22    1    3    3    0    0 -0.53616261115E+02 -0.22251197447E+02  0.63035506453E+01  0.58391386304E+02  0.00000000000E+00 0. -1.
         22    1    3    3    0    0  0.18586567225E+02  0.46915601412E+02 -0.75393570711E+02  0.90723341217E+02  0.00000000000E+00 0. -1.
</event>
<event>
 7    1  0.5854318E-006  0.8662170E+02  0.7818608E-02  0.1324497E+00
          2   -1    0    0  502    0  0.00000000000E+00  0.00000000000E+00  0.28427257841E+03  0.28427257841E+03  0.00000000000E+00 0. -1.
          1   -1    0    0  501    0 -0.00000000000E+00 -0.00000000000E+00 -0.58844584420E+03  0.58844584420E+03  0.00000000000E+00 0. -1.
         25    2    1    2    0    0 -0.15645484891E+02  0.32533802587E+02 -0.29786823160E+03  0.32503366153E+03  0.12497266990E+03 0.  0.
          2    1    1    2  501    0  0.90533298721E+02 -0.76066942345E+02 -0.25675628665E+03  0.28267693332E+03  0.00000000000E+00 0. -1.
          1    1    1    2  502    0 -0.74887813830E+02  0.43533139757E+02  0.25045125246E+03  0.26500782777E+03  0.00000000000E+00 0. -1.
         22    1    3    3    0    0  0.51406265226E+02  0.12822946850E+02 -0.77740949904E+02  0.94078091830E+02  0.00000000000E+00 0. -1.
         22    1    3    3    0    0 -0.67051750117E+02  0.19710855737E+02 -0.22012728170E+03  0.23095556970E+03  0.00000000000E+00 0. -1.
</event>
<event>
 7    1  0.5854318E-006  0.1670992E+03  0.7818608E-02  0.1311395E+00
          2   -1    0    0  502    0  0.00000000000E+00  0.00000000000E+00  0.12078388739E+03  0.12078388739E+03  0.00000000000E+00 0. -1.
          1   -1    0    0  501    0 -0.00000000000E+00 -0.00000000000E+00 -0.84115852254E+03  0.84115852254E+03  0.00000000000E+00 0. -1.
         25    2    1    2    0    0  0.55209466513E+02  0.16092594836E+03 -0.92382262837E+02  0.23044558629E+03  0.12500175882E+03 0.  0.
          2    1    1    2  501    0 -0.10791273797E+02 -0.16707941837E+03 -0.65706100449E+03  0.67805689087E+03  0.00000000000E+00 0. -1.
          1    1    1    2  502    0 -0.44418192716E+02  0.61534700135E+01  0.29068632183E+02  0.53439932769E+02  0.00000000000E+00 0. -1.
         22    1    3    3    0    0  0.90508472791E+02  0.89363638182E+02 -0.34253282245E+02  0.13172293202E+03  0.00000000000E+00 0.  1.
         22    1    3    3    0    0 -0.35299006278E+02  0.71562310176E+02 -0.58128980592E+02  0.98722654272E+02  0.00000000000E+00 0.  1.
</event>
<event>
 7    1  0.5854318E-006  0.4487352E+02  0.7818608E-02  0.1517399E+00
          2   -1    0    0  502    0  0.00000000000E+00  0.00000000000E+00  0.47702676977E+03  0.47702676977E+03  0.00000000000E+00 0. -1.
          1   -1    0    0  501    0 -0.00000000000E+00 -0.00000000000E+00 -0.12197088446E+04  0.12197088446E+04  0.00000000000E+00 0. -1.
         25    2    1    2    0    0 -0.21663437594E+02  0.68321576745E+02 -0.32984545432E+02  0.14781592437E+03  0.12499769951E+03 0.  0.
          2    1    1    2  501    0 -0.20597389728E+01 -0.44653136746E+02 -0.11281962401E+04  0.11290814414E+04  0.00000000000E+00 0. -1.
          1    1    1    2  502    0  0.23723176566E+02 -0.23668439998E+02  0.41849871068E+03  0.41983824861E+03  0.00000000000E+00 0. -1.
         22    1    3    3    0    0 -0.61488820908E+01  0.30011152314E+02 -0.79732947995E+02  0.85415578264E+02  0.00000000000E+00 0. -1.
         22    1    3    3    0    0 -0.15514555503E+02  0.38310424430E+02  0.46748402563E+02  0.62400346110E+02  0.00000000000E+00 0. -1.
</event>
<event>
 7    1  0.5854318E-006  0.1476731E+03  0.7818608E-02  0.1346352E+00
          2   -1    0    0  502    0  0.00000000000E+00  0.00000000000E+00  0.12615187323E+04  0.12615187323E+04  0.00000000000E+00 0. -1.
          1   -1    0    0  501    0 -0.00000000000E+00 -0.00000000000E+00 -0.56671483262E+03  0.56671483262E+03  0.00000000000E+00 0. -1.
         25    2    1    2    0    0  0.87912199329E+02 -0.81936828530E+02  0.38685592194E+03  0.42393950067E+03  0.12499998892E+03 0.  0.
          2    1    1    2  501    0 -0.88373545246E+02  0.11922132815E+03 -0.53771058980E+03  0.55781384616E+03  0.00000000000E+00 0. -1.
          1    1    1    2  502    0  0.46134591682E+00 -0.37284499617E+02  0.84565856756E+03  0.84648021810E+03  0.00000000000E+00 0. -1.
         22    1    3    3    0    0  0.97177630287E+02 -0.61890924477E+02  0.16647393608E+03  0.20245382129E+03  0.00000000000E+00 0.  1.
         22    1    3    3    0    0 -0.92654309580E+01 -0.20045904053E+02  0.22038198586E+03  0.22148567938E+03  0.00000000000E+00 0.  1.
</event>
<event>
 7    1  0.5854318E-006  0.1292893E+03  0.7818608E-02  0.1256313E+00
          2   -1    0    0  502    0  0.00000000000E+00  0.00000000000E+00  0.15495086361E+03  0.15495086361E+03  0.00000000000E+00 0. -1.
          1   -1    0    0  501    0 -0.00000000000E+00 -0.00000000000E+00 -0.78090613914E+03  0.78090613914E+03  0.00000000000E+00 0. -1.
         25    2    1    2    0    0 -0.39752543798E+02 -0.28212596709E+02  0.60689891498E+02  0.14725832957E+03  0.12500214936E+03 0.  0.
          2    1    1    2  501    0  0.13479681841E+03  0.60376257642E+01 -0.67723855884E+03  0.69054956431E+03  0.00000000000E+00 0. -1.
          1    1    1    2  502    0 -0.95044274615E+02  0.22174970945E+02 -0.94066081858E+01  0.98049108874E+02  0.00000000000E+00 0. -1.
         22    1    3    3    0    0 -0.75718577130E+02  0.63407143477E+01  0.60909500874E+02  0.97383134462E+02  0.00000000000E+00 0.  1.
         22    1    3    3    0    0  0.35966033331E+02 -0.34553311057E+02 -0.21960937579E+00  0.49875195106E+02  0.00000000000E+00 0.  1.
</event>
<event>
 7    1  0.5854318E-006  0.9036016E+02  0.7818608E-02  0.1333030E+00
          2   -1    0    0  502    0  0.00000000000E+00  0.00000000000E+00  0.21160047095E+03  0.21160047095E+03  0.00000000000E+00 0. -1.
          1   -1    0    0  501    0 -0.00000000000E+00 -0.00000000000E+00 -0.14797154765E+04  0.14797154765E+04  0.00000000000E+00 0. -1.
         25    2    1    2    0    0 -0.45540675649E+02  0.44388196036E+02 -0.73590262284E+02  0.15838132365E+03  0.12499940756E+03 0.  0.
          2    1    1    2  501    0  0.45349991956E+02  0.51199327424E+02 -0.13492941096E+04  0.13510264938E+04  0.00000000000E+00 0. -1.
          1    1    1    2  502    0  0.19068369246E+00 -0.95587523460E+02  0.15476936631E+03  0.18190812997E+03  0.00000000000E+00 0. -1.
         22    1    3    3    0    0  0.77506338851E+01 -0.28612747019E+02  0.13764290542E+02  0.32683593922E+02  0.00000000000E+00 0.  1.
         22    1    3    3    0    0 -0.53291309534E+02  0.73000943054E+02 -0.87354552826E+02  0.12569772972E+03  0.00000000000E+00 0.  1.
</event>
<event>
 7    1  0.5854318E-006  0.7101660E+02  0.7818608E-02  0.1402813E+00
          2   -1    0    0  502    0  0.00000000000E+00  0.00000000000E+00  0.65431579179E+03  0.65431579179E+03  0.00000000000E+00 0. -1.
          1   -1    0    0  501    0 -0.00000000000E+00 -0.00000000000E+00 -0.88808357034E+03  0.88808357034E+03  0.00000000000E+00 0. -1.
         25    2    1    2    0    0  0.37100535209E+02 -0.67782242337E+01 -0.16192336946E+03  0.20801236784E+03  0.12501029382E+03 0.  0.
          2    1    1    2  501    0 -0.52125028593E+02  0.53137239403E+02 -0.70019957446E+03  0.70414489197E+03  0.00000000000E+00 0. -1.
          1    1    1    2  502    0  0.15024493384E+02 -0.46359015169E+02  0.62835516536E+03  0.63024210231E+03  0.00000000000E+00 0. -1.
         22    1    3    3    0    0  0.78732014115E+02 -0.76629829977E+01 -0.64514521295E+02  0.10207631857E+03  0.00000000000E+00 0.  1.
         22    1    3    3    0    0 -0.41631478905E+02  0.88475876400E+00 -0.97408848168E+02  0.10593604927E+03  0.00000000000E+00 0.  1.
</event>
<event>
 7    1  0.5854318E-006  0.2194204E+03  0.7818608E-02  0.1358994E+00
          2   -1    0    0  502    0  0.00000000000E+00  0.00000000000E+00  0.17516702762E+04  0.17516702762E+04  0.00000000000E+00 0. -1.
          1   -1    0    0  501    0 -0.00000000000E+00 -0.00000000000E+00 -0.19249804173E+03  0.19249804173E+03  0.00000000000E+00 0. -1.
         25    2    1    2    0    0 -0.18129616493E+03  0.12585338498E+03 -0.54483770069E+02  0.25943194482E+03  0.12501631439E+03 0.  0.
          2    1    1    2  501    0  0.18910540698E+03 -0.10471062047E+03  0.29412694095E+03  0.36501483036E+03  0.00000000000E+00 0. -1.
          1    1    1    2  502    0 -0.78092420484E+01 -0.21142764510E+02  0.13195290636E+04  0.13197215427E+04  0.00000000000E+00 0. -1.
         22    1    3    3    0    0 -0.33646937572E+02  0.94522183534E+02 -0.39219322381E+02  0.10772518200E+03  0.00000000000E+00 0. -1.
         22    1    3    3    0    0 -0.14764922736E+03  0.31331201449E+02 -0.15264447688E+02  0.15170676283E+03  0.00000000000E+00 0. -1.
</event>
<event>
 7    1  0.5854318E-006  0.1067861E+03  0.7818608E-02  0.1431659E+00
          2   -1    0    0  502    0  0.00000000000E+00  0.00000000000E+00  0.13589291750E+04  0.13589291750E+04  0.00000000000E+00 0. -1.
          1   -1    0    0  501    0 -0.00000000000E+00 -0.00000000000E+00 -0.67841638243E+03  0.67841638243E+03  0.00000000000E+00 0. -1.
         25    2    1    2    0    0 -0.76881642558E+02 -0.93995348240E+02  0.17472172430E+02  0.17514597771E+03  0.12499969698E+03 0.  0.
          2    1    1    2  501    0  0.50958536343E+02  0.93137861931E+02 -0.59474500546E+03  0.60414655115E+03  0.00000000000E+00 0. -1.
          1    1    1    2  502    0  0.25923106216E+02  0.85748630875E+00  0.12577856256E+04  0.12580530286E+04  0.00000000000E+00 0. -1.
         22    1    3    3    0    0 -0.97684878047E+02 -0.57013831722E+02  0.48004664952E+02  0.12287131587E+03  0.00000000000E+00 0. -1.
         22    1    3    3    0    0  0.20803235489E+02 -0.36981516518E+02 -0.30532492523E+02  0.52274661839E+02  0.00000000000E+00 0. -1.
</event>
<event>
 7    1  0.5854318E-006  0.3293297E+02  0.7818608E-02  0.1588754E+00
          2   -1    0    0  502    0  0.00000000000E+00  0.00000000000E+00  0.10529999394E+03  0.10529999394E+03  0.00000000000E+00 0. -1.
          1   -1    0    0  501    0 -0.00000000000E+00 -0.00000000000E+00 -0.10638708168E+04  0.10638708168E+04  0.00000000000E+00 0. -1.
         25    2    1    2    0    0 -0.39834858401E+02 -0.36825054707E+02 -0.17938677288E+03  0.22527122881E+03  0.12499844659E+03 0.  0.
          2    1    1    2  501    0  0.28231831852E+02  0.62748416961E+01 -0.85804678284E+03  0.85853403631E+03  0.00000000000E+00 0. -1.
          1    1    1    2  502    0  0.11603026550E+02  0.30550213011E+02  0.78862732872E+02  0.85365545603E+02  0.00000000000E+00 0. -1.
         22    1    3    3    0    0  0.17201554129E+02 -0.40106016545E+02 -0.15857141963E+03  0.16446665665E+03  0.00000000000E+00 0.  1.
         22    1    3    3    0    0 -0.57036412530E+02  0.32809618381E+01 -0.20815353252E+02  0.60804572163E+02  0.00000000000E+00 0.  1.
</event>
<event>
 7    1  0.5854318E-006  0.1264298E+03  0.7818608E-02  0.1345727E+00
          2   -1    0    0  502    0  0.00000000000E+00  0.00000000000E+00  0.92231951846E+02  0.92231951846E+02  0.00000000000E+00 0. -1.
          1   -1    0    0  501    0 -0.00000000000E+00 -0.00000000000E+00 -0.16594403492E+04  0.16594403492E+04  0.00000000000E+00 0. -1.
         25    2    1    2    0    0  0.12395466757E+03 -0.11468653781E+02 -0.93184130383E+02  0.19949773041E+03  0.12497908886E+03 0.  0.
          2    1    1    2  501    0  0.31028514823E+01  0.43676593008E+02 -0.14018649230E+04  0.14025485855E+04  0.00000000000E+00 0. -1.
          1    1    1    2  502    0 -0.12705751906E+03 -0.32207939227E+02 -0.72159344005E+02  0.14962598513E+03  0.00000000000E+00 0. -1.
         22    1    3    3    0    0  0.11528210604E+03 -0.57387947454E+02 -0.77012738467E+02  0.15004766700E+03  0.00000000000E+00 0. -1.
         22    1    3    3    0    0  0.86725615341E+01  0.45919293673E+02 -0.16171391916E+02  0.49450063412E+02  0.00000000000E+00 0. -1.
</event>
<event>
 7    1  0.5854318E-006  0.6454531E+02  0.7818608E-02  0.1520671E+00
          2   -1    0    0  502    0  0.00000000000E+00  0.00000000000E+00  0.98964174565E+03  0.98964174565E+03  0.00000000000E+00 0. -1.
          1   -1    0    0  501    0 -0.00000000000E+00 -0.00000000000E+00 -0.42489403691E+03  0.42489403691E+03  0.00000000000E+00 0. -1.
         25    2    1    2    0    0 -0.34963161878E+02 -0.79597982406E+02  0.12276090723E+03  0.19558438320E+03  0.12499899646E+03 0.  0.
          2    1    1    2  501    0  0.24930009186E+02  0.59132075133E+02 -0.38567420887E+03  0.39097660167E+03  0.00000000000E+00 0. -1.
          1    1    1    2  502    0  0.10033152692E+02  0.20465907272E+02  0.82766101037E+03  0.82797479769E+03  0.00000000000E+00 0. -1.
         22    1    3    3    0    0  0.83606036405E+01  0.23386163301E+02 -0.55497661207E+01  0.25448226484E+02  0.00000000000E+00 0. -1.
         22    1    3    3    0    0 -0.43323765519E+02 -0.10298414571E+03  0.12831067335E+03  0.17013615672E+03  0.00000000000E+00 0. -1.
</event>
<event>
 7    1  0.5854318E-006  0.1494257E+03  0.7818608E-02  0.1226984E+00
          2   -1    0    0  502    0  0.00000000000E+00  0.00000000000E+00  0.20140145062E+04  0.20140145062E+04  0.00000000000E+00 0. -1.
          1   -1    0    0  501    0 -0.00000000000E+00 -0.00000000000E+00 -0.25612446668E+03  0.25612446668E+03  0.00000000000E+00 0. -1.
         25    2    1    2    0    0 -0.26913036855E+02  0.39546999131E+02  0.72644894424E+03  0.73867501982E+03  0.12499775848E+03 0.  0.
          2    1    1    2  501    0  0.12988822406E+02 -0.15234474816E+03 -0.22382496814E+03  0.27106318113E+03  0.00000000000E+00 0. -1.
          1    1    1    2  502    0  0.13924214449E+02  0.11279774903E+03  0.12552660634E+04  0.12604007719E+04  0.00000000000E+00 0. -1.
         22    1    3    3    0    0 -0.40919399655E+02 -0.17883957529E+02  0.10091770008E+03  0.11035676416E+03  0.00000000000E+00 0. -1.
         22    1    3    3    0    0  0.14006362801E+02  0.57430956660E+02  0.62553124416E+03  0.62831825567E+03  0.00000000000E+00 0. -1.
</event>
<event>
 7    1  0.1207520E-005  0.1374943E+03  0.7818608E-02  0.1339963E+00
          2   -1    0    0  502    0  0.00000000000E+00  0.00000000000E+00  0.17185273500E+04  0.17185273500E+04  0.00000000000E+00 0. -1.
          1   -1    0    0  501    0 -0.00000000000E+00 -0.00000000000E+00 -0.16236543123E+04  0.16236543123E+04  0.00000000000E+00 0. -1.
         25    2    1    2    0    0 -0.15464022634E+03 -0.29847972269E+02 -0.58391884450E+03  0.61756852237E+03  0.12500064726E+03 0.  0.
          2    1    1    2  501    0  0.17489781255E+02  0.38531729523E+02 -0.10196965790E+04  0.10205742011E+04  0.00000000000E+00 0. -1.
          1    1    1    2  502    0  0.13715044508E+03 -0.86837572536E+01  0.16984884612E+04  0.17040389389E+04  0.00000000000E+00 0. -1.
         22    1    3    3    0    0 -0.27345533387E+02  0.26469996605E+02 -0.28848946476E+03  0.29098902075E+03  0.00000000000E+00 0. -1.
         22    1    3    3    0    0 -0.12729469295E+03 -0.56317968874E+02 -0.29542937973E+03  0.32657950162E+03  0.00000000000E+00 0. -1.
</event>
<event>
 7    1  0.5854318E-006  0.1640978E+03  0.7818608E-02  0.1260312E+00
          2   -1    0    0  502    0  0.00000000000E+00  0.00000000000E+00  0.11259402436E+04  0.11259402436E+04  0.00000000000E+00 0. -1.
          1   -1    0    0  501    0 -0.00000000000E+00 -0.00000000000E+00 -0.20074180558E+03  0.20074180558E+03  0.00000000000E+00 0. -1.
         25    2    1    2    0    0  0.17736847898E+03  0.56014318837E+02  0.92785274529E+01  0.22429409394E+03  0.12499827301E+03 0.  0.
          2    1    1    2  501    0 -0.14583523455E+02 -0.72470797979E+02 -0.70702349862E+02  0.10229133879E+03  0.00000000000E+00 0. -1.
          1    1    1    2  502    0 -0.16278495552E+03  0.16456479141E+02  0.98662226048E+03  0.10000966165E+04  0.00000000000E+00 0. -1.
         22    1    3    3    0    0  0.48289082435E+02  0.56279726616E-01 -0.51891609176E+02  0.70884256028E+02  0.00000000000E+00 0. -1.
         22    1    3    3    0    0  0.12907939654E+03  0.55958039111E+02  0.61170136629E+02  0.15340983791E+03  0.00000000000E+00 0. -1.
</event>
<event>
 7    1  0.5854318E-006  0.5585169E+02  0.7818608E-02  0.1424369E+00
          2   -1    0    0  502    0  0.00000000000E+00  0.00000000000E+00  0.37537312323E+03  0.37537312323E+03  0.00000000000E+00 0. -1.
          1   -1    0    0  501    0 -0.00000000000E+00 -0.00000000000E+00 -0.67573000681E+02  0.67573000681E+02  0.00000000000E+00 0. -1.
         25    2    1    2    0    0 -0.20794685436E+02  0.16523150330E+02  0.13235501198E+03  0.18398088548E+03  0.12500273433E+03 0.  0.
          2    1    1    2  501    0  0.49463004158E+02  0.31409502806E+02 -0.15013774526E+02  0.60486023777E+02  0.00000000000E+00 0. -1.
          1    1    1    2  502    0 -0.28668318721E+02 -0.47932653137E+02  0.19045888510E+03  0.19847921465E+03  0.00000000000E+00 0. -1.
         22    1    3    3    0    0  0.20528014333E+02 -0.47218972583E+02  0.60122490485E+02  0.79156456505E+02  0.00000000000E+00 0. -1.
         22    1    3    3    0    0 -0.41322699769E+02  0.63742122913E+02  0.72232521490E+02  0.10482442898E+03  0.00000000000E+00 0. -1.
</event>
<event>
 7    1  0.5854318E-006  0.8790555E+02  0.7818608E-02  0.1322465E+00
          2   -1    0    0  502    0  0.00000000000E+00  0.00000000000E+00  0.10582147996E+04  0.10582147996E+04  0.00000000000E+00 0. -1.
          1   -1    0    0  501    0 -0.00000000000E+00 -0.00000000000E+00 -0.44666679452E+03  0.44666679452E+03  0.00000000000E+00 0. -1.
         25    2    1    2    0    0  0.10555136211E+03  0.12166149842E+03 -0.12530634942E+02  0.20426724259E+03  0.12500191735E+03 0.  0.
          2    1    1    2  501    0 -0.53866795294E+02 -0.64345752380E+02 -0.33148353324E+03  0.34194055082E+03  0.00000000000E+00 0. -1.
          1    1    1    2  502    0 -0.51684566817E+02 -0.57315746042E+02  0.95556217329E+03  0.95867380073E+03  0.00000000000E+00 0. -1.
         22    1    3    3    0    0  0.11719286612E+03  0.79066117997E+02 -0.46210554080E+02  0.14873141629E+03  0.00000000000E+00 0. -1.
         22    1    3    3    0    0 -0.11641504008E+02  0.42595380425E+02  0.33679919139E+02  0.55535826295E+02  0.00000000000E+00 0. -1.
</event>
<event>
 7    1  0.5854318E-006  0.9439890E+02  0.7818608E-02  0.1324148E+00
          2   -1    0    0  502    0  0.00000000000E+00  0.00000000000E+00  0.78055277062E+03  0.78055277062E+03  0.00000000000E+00 0. -1.
          1   -1    0    0  501    0 -0.00000000000E+00 -0.00000000000E+00 -0.12443975866E+03  0.12443975866E+03  0.00000000000E+00 0. -1.
         25    2    1    2    0    0 -0.38286238390E+02  0.34811975780E+02  0.93184334549E+02  0.16427168024E+03  0.12499662002E+03 0.  0.
          2    1    1    2  501    0  0.10636403765E+03 -0.15362526221E+02 -0.53632856985E+02  0.12010744800E+03  0.00000000000E+00 0. -1.
          1    1    1    2  502    0 -0.68077799262E+02 -0.19449449559E+02  0.61656153440E+03  0.62061340103E+03  0.00000000000E+00 0. -1.
         22    1    3    3    0    0 -0.91814434942E+01  0.52794566108E+02 -0.10921346922E+02  0.54688581383E+02  0.00000000000E+00 0. -1.
         22    1    3    3    0    0 -0.29104794896E+02 -0.17982590328E+02  0.10410568147E+03  0.10958309886E+03  0.00000000000E+00 0. -1.
</event>
<event>
 7    1  0.5854318E-006  0.3960333E+02  0.7818608E-02  0.1566241E+00
          2   -1    0    0  502    0  0.00000000000E+00  0.00000000000E+00  0.99941942085E+02  0.99941942085E+02  0.00000000000E+00 0. -1.
          1   -1    0    0  501    0 -0.00000000000E+00 -0.00000000000E+00 -0.13239217502E+04  0.13239217502E+04  0.00000000000E+00 0. -1.
         25    2    1    2    0    0 -0.10438339066E+02  0.15068687625E+02 -0.84261140254E+03  0.85203301456E+03  0.12502102998E+03 0.  0.
          2    1    1    2  501    0 -0.27466043055E+02 -0.31746165922E+01 -0.47203423078E+03  0.47284328983E+03  0.00000000000E+00 0. -1.
          1    1    1    2  502    0  0.37904382121E+02 -0.11894071033E+02  0.90665825184E+02  0.98987387914E+02  0.00000000000E+00 0. -1.
         22    1    3    3    0    0  0.57377288262E+02  0.99220626341E+01 -0.40709276432E+03  0.41123608706E+03  0.00000000000E+00 0.  1.
         22    1    3    3    0    0 -0.67815627327E+02  0.51466249913E+01 -0.43551863822E+03  0.44079692750E+03  0.00000000000E+00 0.  1.
</event>
<event>
 7    1  0.5854318E-006  0.5918797E+02  0.7818608E-02  0.1531115E+00
          2   -1    0    0  502    0  0.00000000000E+00  0.00000000000E+00  0.16378676025E+04  0.16378676025E+04  0.00000000000E+00 0. -1.
          1   -1    0    0  501    0 -0.00000000000E+00 -0.00000000000E+00 -0.33994114118E+03  0.33994114118E+03  0.00000000000E+00 0. -1.
         25    2    1    2    0    0 -0.54873685942E+02  0.36106311948E+02  0.25754156412E+02  0.14354122675E+03  0.12500408007E+03 0.  0.
          2    1    1    2  501    0  0.34817199873E+02 -0.47751770718E+02 -0.27785324585E+03  0.28406846928E+03  0.00000000000E+00 0. -1.
          1    1    1    2  502    0  0.20056486069E+02  0.11645458770E+02  0.15500255508E+04  0.15501990477E+04  0.00000000000E+00 0. -1.
         22    1    3    3    0    0 -0.14629152439E+02 -0.45660680004E+02 -0.28271032782E+01  0.48030222907E+02  0.00000000000E+00 0.  1.
         22    1    3    3    0    0 -0.40244533503E+02  0.81766991952E+02  0.28581259690E+02  0.95511003844E+02  0.00000000000E+00 0.  1.
</event>
<event>
 7    1  0.5854318E-006  0.9797065E+02  0.7818608E-02  0.1350753E+00
          2   -1    0    0  502    0  0.00000000000E+00  0.00000000000E+00  0.50125429498E+03  0.50125429498E+03  0.00000000000E+00 0. -1.
          1   -1    0    0  501    0 -0.00000000000E+00 -0.00000000000E+00 -0.92895346202E+02  0.92895346202E+02  0.00000000000E+00 0. -1.
         25    2    1    2    0    0  0.58226186787E+02  0.30627359878E+02  0.76249805876E+02  0.16052302121E+03  0.12500113376E+03 0.  0.
          2    1    1    2  501    0 -0.93803520180E+02 -0.71420779257E+02  0.23387405152E+02  0.12019566892E+03  0.00000000000E+00 0. -1.
          1    1    1    2  502    0  0.35577333393E+02  0.40793419379E+02  0.30872173775E+03  0.31343095105E+03  0.00000000000E+00 0. -1.
         22    1    3    3    0    0  0.46216635507E+02 -0.44840554344E+02  0.28545848622E+02  0.70438045011E+02  0.00000000000E+00 0.  1.
         22    1    3    3    0    0  0.12009551280E+02  0.75467914222E+02  0.47703957254E+02  0.90084976198E+02  0.00000000000E+00 0.  1.
</event>
<event>
 7    1  0.5854318E-006  0.6190774E+02  0.7818608E-02  0.1403719E+00
          2   -1    0    0  502    0  0.00000000000E+00  0.00000000000E+00  0.38274427685E+03  0.38274427685E+03  0.00000000000E+00 0. -1.
          1   -1    0    0  501    0 -0.00000000000E+00 -0.00000000000E+00 -0.66914817991E+03  0.66914817991E+03  0.00000000000E+00 0. -1.
         25    2    1    2    0    0  0.18712274343E+02  0.11183279278E+03  0.99258250732E+02  0.19579332647E+03  0.12500441432E+03 0.  0.
          2    1    1    2  501    0 -0.58694537180E+01 -0.55194531021E+02 -0.61602896566E+03  0.61852451307E+03  0.00000000000E+00 0. -1.
          1    1    1    2  502    0 -0.12842820625E+02 -0.56638261758E+02  0.23036681187E+03  0.23757461722E+03  0.00000000000E+00 0. -1.
         22    1    3    3    0    0  0.63310718410E+02  0.22405689263E+02  0.53599922896E+02  0.85925628956E+02  0.00000000000E+00 0.  1.
         22    1    3    3    0    0 -0.44598444067E+02  0.89427103515E+02  0.45658327835E+02  0.10986769751E+03  0.00000000000E+00 0.  1.
</event>
<event>
 7    1  0.1186633E-005  0.6382104E+02  0.7818608E-02  0.1400350E+00
          2   -1    0    0  502    0  0.00000000000E+00  0.00000000000E+00  0.24179297798E+04  0.24179297798E+04  0.00000000000E+00 0. -1.
          1   -1    0    0  501    0 -0.00000000000E+00 -0.00000000000E+00 -0.19163581955E+04  0.19163581955E+04  0.00000000000E+00 0. -1.
         25    2    1    2    0    0  0.63975882283E+02 -0.97705092902E+02 -0.45043852609E+03  0.48182733775E+03  0.12499407555E+03 0.  0.
          2    1    1    2  501    0 -0.39294860175E+02  0.38899834258E+02 -0.14492747072E+04  0.14503290869E+04  0.00000000000E+00 0. -1.
          1    1    1    2  502    0 -0.24681022108E+02  0.58805258644E+02  0.24012848177E+04  0.24021315507E+04  0.00000000000E+00 0. -1.
         22    1    3    3    0    0  0.16925124633E+00 -0.42512972573E+02 -0.34102745635E+03  0.34366714633E+03  0.00000000000E+00 0. -1.
         22    1    3    3    0    0  0.63806631037E+02 -0.55192120329E+02 -0.10941106974E+03  0.13816019142E+03  0.00000000000E+00 0. -1.
</event>
<event>
 7    1  0.5854318E-006  0.4470678E+02  0.7818608E-02  0.1570050E+00
          2   -1    0    0  502    0  0.00000000000E+00  0.00000000000E+00  0.72163854037E+03  0.72163854037E+03  0.00000000000E+00 0. -1.
          1   -1    0    0  501    0 -0.00000000000E+00 -0.00000000000E+00 -0.18765805042E+03  0.18765805042E+03  0.00000000000E+00 0. -1.
         25    2    1    2    0    0 -0.65280032721E+02 -0.31909115961E+01  0.11695498928E+03  0.18323313479E+03  0.12499699027E+03 0.  0.
          2    1    1    2  501    0  0.43717844224E+02 -0.71521431299E+01 -0.15108722262E+03  0.15744761635E+03  0.00000000000E+00 0. -1.
          1    1    1    2  502    0  0.21562188497E+02  0.10343054726E+02  0.56811272328E+03  0.56861583965E+03  0.00000000000E+00 0. -1.
         22    1    3    3    0    0 -0.53954361896E+02  0.57555922031E+02  0.72116224454E+02  0.10688548619E+03  0.00000000000E+00 0.  1.
         22    1    3    3    0    0 -0.11325670825E+02 -0.60746833627E+02  0.44838764830E+02  0.76347648601E+02  0.00000000000E+00 0.  1.
</event>
<event>
 7    1  0.5854318E-006  0.8716306E+02  0.7818608E-02  0.1390561E+00
          2   -1    0    0  502    0  0.00000000000E+00  0.00000000000E+00  0.17178029166E+04  0.17178029166E+04  0.00000000000E+00 0. -1.
          1   -1    0    0  501    0 -0.00000000000E+00 -0.00000000000E+00 -0.31839106601E+03  0.31839106601E+03  0.00000000000E+00 0. -1.
         25    2    1    2    0    0 -0.11299442984E+03  0.97746506243E+01  0.11035016835E+03  0.20165852455E+03  0.12500286355E+03 0.  0.
          2    1    1    2  501    0  0.78247518736E+02 -0.36392994155E+02 -0.26559485281E+03  0.27926286909E+03  0.00000000000E+00 0. -1.
          1    1    1    2  502    0  0.34746911108E+02  0.26618343531E+02  0.15546565351E+04  0.15552725890E+04  0.00000000000E+00 0. -1.
         22    1    3    3    0    0 -0.12432156876E+03  0.20259338456E+02  0.12705728875E+03  0.17891296175E+03  0.00000000000E+00 0.  1.
         22    1    3    3    0    0  0.11327138920E+02 -0.10484687832E+02 -0.16707120400E+02  0.22745562801E+02  0.00000000000E+00 0.  1.
</event>
<event>
 7    1  0.5854318E-006  0.7638238E+02  0.7818608E-02  0.1353577E+00
          2   -1    0    0  502    0  0.00000000000E+00  0.00000000000E+00  0.22678840624E+03  0.22678840624E+03  0.00000000000E+00 0. -1.
          1   -1    0    0  501    0 -0.00000000000E+00 -0.00000000000E+00 -0.17094875192E+04  0.17094875192E+04  0.00000000000E+00 0. -1.
         25    2    1    2    0    0 -0.36197617376E+01  0.40764899202E+00 -0.48361551444E+03  0.49952300561E+03  0.12500399382E+03 0.  0.
          2    1    1    2  501    0  0.33547983380E+02 -0.70682606947E+02 -0.12099508928E+04  0.12124779012E+04  0.00000000000E+00 0. -1.
          1    1    1    2  502    0 -0.29928221642E+02  0.70274957955E+02  0.21086729426E+03  0.22427501857E+03  0.00000000000E+00 0. -1.
         22    1    3    3    0    0  0.54342999554E+02 -0.13290694038E+02 -0.33105347825E+03  0.33574724066E+03  0.00000000000E+00 0.  1.
         22    1    3    3    0    0 -0.57962761291E+02  0.13698343030E+02 -0.15256203619E+03  0.16377576495E+03  0.00000000000E+00 0.  1.
</event>
<event>
 7    1  0.5854318E-006  0.1078811E+03  0.7818608E-02  0.1269761E+00
          2   -1    0    0  502    0  0.00000000000E+00  0.00000000000E+00  0.12164615852E+04  0.12164615852E+04  0.00000000000E+00 0. -1.
          1   -1    0    0  501    0 -0.00000000000E+00 -0.00000000000E+00 -0.18853464441E+04  0.18853464441E+04  0.00000000000E+00 0. -1.
         25    2    1    2    0    0  0.25501877938E+01  0.66142387613E+01 -0.18015297798E+03  0.21938678298E+03  0.12500085384E+03 0.  0.
          2    1    1    2  501    0 -0.10820115249E+03 -0.28436258800E+02 -0.16812826981E+04  0.16850007778E+04  0.00000000000E+00 0. -1.
          1    1    1    2  502    0  0.10565096469E+03  0.21822020038E+02  0.11925508172E+04  0.11974204685E+04  0.00000000000E+00 0. -1.
         22    1    3    3    0    0 -0.33440731199E+02 -0.18465767019E+02 -0.46474823499E+01  0.38482023686E+02  0.00000000000E+00 0.  1.
         22    1    3    3    0    0  0.35990918993E+02  0.25080005781E+02 -0.17550549563E+03  0.18090475930E+03  0.00000000000E+00 0.  1.
</event>
<event>
 7    1  0.5854318E-006  0.6619389E+02  0.7818608E-02  0.1374880E+00
          2   -1    0    0  502    0  0.00000000000E+00  0.00000000000E+00  0.25174993701E+04  0.25174993701E+04  0.00000000000E+00 0. -1.
          1   -1    0    0  501    0 -0.00000000000E+00 -0.00000000000E+00 -0.19501975146E+04  0.19501975146E+04  0.00000000000E+00 0. -1.
         25    2    1    2    0    0 -0.10796427988E+03  0.68242759022E+02  0.11891332621E+02  0.17910573719E+03  0.12499640560E+03 0.  0.
          2    1    1    2  501    0  0.46006535017E+02 -0.47099646736E+02 -0.18655670859E+04  0.18667285635E+04  0.00000000000E+00 0. -1.
          1    1    1    2  502    0  0.61957744859E+02 -0.21143112286E+02  0.24209776088E+04  0.24218625840E+04  0.00000000000E+00 0. -1.
         22    1    3    3    0    0 -0.21812811197E+00  0.16436199175E+02 -0.44119132542E+02  0.47081780759E+02  0.00000000000E+00 0. -1.
         22    1    3    3    0    0 -0.10774615176E+03  0.51806559847E+02  0.56010465163E+02  0.13202395643E+03  0.00000000000E+00 0. -1.
</event>
<event>
 7    1  0.5854318E-006  0.1141545E+03  0.7818608E-02  0.1319944E+00
          2   -1    0    0  502    0  0.00000000000E+00  0.00000000000E+00  0.41448407571E+03  0.41448407571E+03  0.00000000000E+00 0. -1.
          1   -1    0    0  501    0 -0.00000000000E+00 -0.00000000000E+00 -0.34652257142E+03  0.34652257142E+03  0.00000000000E+00 0. -1.
         25    2    1    2    0    0  0.35153606413E+02 -0.97575812404E+02 -0.11673369064E+03  0.20002140618E+03  0.12499997276E+03 0.  0.
          2    1    1    2  501    0 -0.58750653114E+02 -0.15584900074E+02 -0.17390137417E+03  0.18421785008E+03  0.00000000000E+00 0. -1.
          1    1    1    2  502    0  0.23597046701E+02  0.11316071248E+03  0.35859656909E+03  0.37676739087E+03  0.00000000000E+00 0. -1.
         22    1    3    3    0    0 -0.67480381215E+01  0.28624205132E+02 -0.19418667891E+02  0.35241535162E+02  0.00000000000E+00 0.  1.
         22    1    3    3    0    0  0.41901644534E+02 -0.12620001754E+03 -0.97315022747E+02  0.16477987102E+03  0.00000000000E+00 0.  1.
</event>
<event>
 7    1  0.5854318E-006  0.5934564E+02  0.7818608E-02  0.1540471E+00
          2   -1    0    0  502    0  0.00000000000E+00  0.00000000000E+00  0.18479465560E+04  0.18479465560E+04  0.00000000000E+00 0. -1.
          1   -1    0    0  501    0 -0.00000000000E+00 -0.00000000000E+00 -0.30112862731E+03  0.30112862731E+03  0.00000000000E+00 0. -1.
         25    2    1    2    0    0 -0.57716469269E+02  0.67331460162E+01  0.56282527159E+03  0.57945981470E+03  0.12499945772E+03 0.  0.
          2    1    1    2  501    0  0.57441300112E+02  0.15021681418E+02 -0.28970775098E+03  0.29572915793E+03  0.00000000000E+00 0. -1.
          1    1    1    2  502    0  0.27516915714E+00 -0.21754827434E+02  0.12737004081E+04  0.12738862107E+04  0.00000000000E+00 0. -1.
         22    1    3    3    0    0  0.35128920047E+00  0.27884283447E+02  0.23109790246E+02  0.36217662441E+02  0.00000000000E+00 0.  1.
         22    1    3    3    0    0 -0.58067758470E+02 -0.21151137431E+02  0.53971548134E+03  0.54324215226E+03  0.00000000000E+00 0.  1.
</event>
<event>
 7    1  0.5854318E-006  0.7583078E+02  0.7818608E-02  0.1427865E+00
          2   -1    0    0  502    0  0.00000000000E+00  0.00000000000E+00  0.19733016675E+04  0.19733016675E+04  0.00000000000E+00 0. -1.
          1   -1    0    0  501    0 -0.00000000000E+00 -0.00000000000E+00 -0.25087640674E+03  0.25087640674E+03  0.00000000000E+00 0. -1.
         25    2    1    2    0    0  0.72816412637E+02  0.43456940941E+02  0.68431218453E+03  0.70078417365E+03  0.12499822585E+03 0.  0.
          2    1    1    2  501    0 -0.31769800865E+02  0.20094833476E+02 -0.24005916434E+03  0.24298461878E+03  0.00000000000E+00 0. -1.
          1    1    1    2  502    0 -0.41046611772E+02 -0.63551774417E+02  0.12781722406E+04  0.12804092818E+04  0.00000000000E+00 0. -1.
         22    1    3    3    0    0  0.95444088938E+02  0.68356756995E+02  0.52968853397E+03  0.54254231481E+03  0.00000000000E+00 0. -1.
         22    1    3    3    0    0 -0.22627676301E+02 -0.24899816055E+02  0.15462365057E+03  0.15824185884E+03  0.00000000000E+00 0. -1.
</event>
<event>
 7    1  0.5854318E-006  0.5958934E+02  0.7818608E-02  0.1446991E+00
          2   -1    0    0  502    0  0.00000000000E+00  0.00000000000E+00  0.28928913535E+03  0.28928913535E+03  0.00000000000E+00 0. -1.
          1   -1    0    0  501    0 -0.00000000000E+00 -0.00000000000E+00 -0.26585312120E+04  0.26585312120E+04  0.00000000000E+00 0. -1.
         25    2    1    2    0    0 -0.27030029964E+02 -0.81873182460E+01 -0.47278294181E+03  0.48984458243E+03  0.12500540058E+03 0.  0.
          2    1    1    2  501    0  0.38225579513E+02  0.48090950833E+02 -0.21752519699E+04  0.21761192677E+04  0.00000000000E+00 0. -1.
          1    1    1    2  502    0 -0.11195549550E+02 -0.39903632587E+02  0.27879283502E+03  0.28185649732E+03  0.00000000000E+00 0. -1.
         22    1    3    3    0    0 -0.38071156218E+02 -0.35137909721E+02 -0.75909723755E+02  0.91904144606E+02  0.00000000000E+00 0. -1.
         22    1    3    3    0    0  0.11041126254E+02  0.26950591475E+02 -0.39687321805E+03  0.39794043782E+03  0.00000000000E+00 0. -1.
</event>
<event>
 7    1  0.5854318E-006  0.1016008E+03  0.7818608E-02  0.1295359E+00
          2   -1    0    0  502    0  0.00000000000E+00  0.00000000000E+00  0.75424541636E+03  0.75424541636E+03  0.00000000000E+00 0. -1.
          1   -1    0    0  501    0 -0.00000000000E+00 -0.00000000000E+00 -0.56971668122E+03  0.56971668122E+03  0.00000000000E+00 0. -1.
         25    2    1    2    0    0  0.50007147264E+02  0.10433233683E+03 -0.14790696535E+03  0.22559496669E+03  0.12502266720E+03 0.  0.
          2    1    1    2  501    0 -0.85006235334E+02 -0.85302306669E+01 -0.37449509199E+03  0.38411638706E+03  0.00000000000E+00 0. -1.
          1    1    1    2  502    0  0.34999088070E+02 -0.95802106164E+02  0.70693079248E+03  0.71425074383E+03  0.00000000000E+00 0. -1.
         22    1    3    3    0    0 -0.30797252195E+02 -0.70227181734E+01 -0.38588216460E+02  0.49868223979E+02  0.00000000000E+00 0. -1.
         22    1    3    3    0    0  0.80804399459E+02  0.11135505500E+03 -0.10931874889E+03  0.17572674271E+03  0.00000000000E+00 0. -1.
</event>
<event>
 7    1  0.5854318E-006  0.4572623E+03  0.7818608E-02  0.1223159E+00
          2   -1    0    0  502    0  0.00000000000E+00  0.00000000000E+00  0.73706540815E+03  0.73706540815E+03  0.00000000000E+00 0. -1.
          1   -1    0    0  501    0 -0.00000000000E+00 -0.00000000000E+00 -0.62129710880E+03  0.62129710880E+03  0.00000000000E+00 0. -1.
         25    2    1    2    0    0  0.42835934914E+03 -0.15867457308E+03  0.37121459769E+03  0.60174377094E+03  0.12500374471E+03 0.  0.
          2    1    1    2  501    0 -0.41419654471E+03  0.19463503992E+03 -0.39948912093E+03  0.60748097432E+03  0.00000000000E+00 0. -1.
          1    1    1    2  502    0 -0.14162804425E+02 -0.35960466842E+02  0.14404282260E+03  0.14913777170E+03  0.00000000000E+00 0. -1.
         22    1    3    3    0    0  0.29659464708E+02  0.17928224707E+02  0.11669934333E+02  0.36569009492E+02  0.00000000000E+00 0. -1.
         22    1    3    3    0    0  0.39869988443E+03 -0.17660279779E+03  0.35954466335E+03  0.56517476145E+03  0.00000000000E+00 0. -1.
</event>
<event>
 7    1  0.5854318E-006  0.8532502E+02  0.7818608E-02  0.1395699E+00
          2   -1    0    0  502    0  0.00000000000E+00  0.00000000000E+00  0.27028163274E+04  0.27028163274E+04  0.00000000000E+00 0. -1.
          1   -1    0    0  501    0 -0.00000000000E+00 -0.00000000000E+00 -0.36485733784E+03  0.36485733784E+03  0.00000000000E+00 0. -1.
         25    2    1    2    0    0  0.64874358917E+02 -0.11004848280E+03 -0.23301570469E+03  0.29366734104E+03  0.12499935019E+03 0.  0.
          2    1    1    2  501    0 -0.25683716888E+02  0.34379188448E+02 -0.96269532694E+02  0.10540116146E+03  0.00000000000E+00 0. -1.
          1    1    1    2  502    0 -0.39190642029E+02  0.75669294357E+02  0.26672442270E+04  0.26686051628E+04  0.00000000000E+00 0. -1.
         22    1    3    3    0    0  0.90260837160E+02 -0.32186140733E+02 -0.14104181698E+03  0.17051615911E+03  0.00000000000E+00 0.  1.
         22    1    3    3    0    0 -0.25386478244E+02 -0.77862342072E+02 -0.91973887706E+02  0.12315118193E+03  0.00000000000E+00 0.  1.
</event>
<event>
 7    1  0.5854318E-006  0.7202452E+02  0.7818608E-02  0.1374996E+00
          2   -1    0    0  502    0  0.00000000000E+00  0.00000000000E+00  0.28011576954E+04  0.28011576954E+04  0.00000000000E+00 0. -1.
          1   -1    0    0  501    0 -0.00000000000E+00 -0.00000000000E+00 -0.65205690304E+02  0.65205690304E+02  0.00000000000E+00 0. -1.
         25    2    1    2    0    0 -0.75609695808E+02 -0.10482450483E+03  0.69634896244E+03  0.71918903744E+03  0.12500396459E+03 0.  0.
          2    1    1    2  501    0  0.35430234874E+02  0.48557026289E+02 -0.36234521420E+02  0.70185660130E+02  0.00000000000E+00 0. -1.
          1    1    1    2  502    0  0.40179460934E+02  0.56267478536E+02  0.20758375641E+04  0.20769886882E+04  0.00000000000E+00 0. -1.
         22    1    3    3    0    0 -0.10353348995E+03 -0.54073112084E+02  0.37878178497E+03  0.39638204502E+03  0.00000000000E+00 0. -1.
         22    1    3    3    0    0  0.27923794140E+02 -0.50751392742E+02  0.31756717748E+03  0.32280699242E+03  0.00000000000E+00 0. -1.
</event>
<event>
 7    1  0.5854318E-006  0.6546110E+02  0.7818608E-02  0.1391299E+00
          2   -1    0    0  502    0  0.00000000000E+00  0.00000000000E+00  0.26363863450E+04  0.26363863450E+04  0.00000000000E+00 0. -1.
          1   -1    0    0  501    0 -0.00000000000E+00 -0.00000000000E+00 -0.12891045688E+04  0.12891045688E+04  0.00000000000E+00 0. -1.
         25    2    1    2    0    0  0.15634150331E+02  0.65994428109E+02  0.13889977641E+03  0.19879191561E+03  0.12500154650E+03 0.  0.
          2    1    1    2  501    0  0.43847575411E+02 -0.37870774210E+02 -0.12580530742E+04  0.12593864947E+04  0.00000000000E+00 0. -1.
          1    1    1    2  502    0 -0.59481725742E+02 -0.28123653899E+02  0.24664350741E+04  0.24673125035E+04  0.00000000000E+00 0. -1.
         22    1    3    3    0    0  0.30641536968E+01  0.18846772488E+02 -0.22887570577E+02  0.29806555622E+02  0.00000000000E+00 0.  1.
         22    1    3    3    0    0  0.12569996634E+02  0.47147655621E+02  0.16178734698E+03  0.16898535999E+03  0.00000000000E+00 0.  1.
</event>
<event>
 7    1  0.5854318E-006  0.7465228E+02  0.7818608E-02  0.1392428E+00
          2   -1    0    0  502    0  0.00000000000E+00  0.00000000000E+00  0.13730671988E+04  0.13730671988E+04  0.00000000000E+00 0. -1.
          1   -1    0    0  501    0 -0.00000000000E+00 -0.00000000000E+00 -0.70129860548E+03  0.70129860548E+03  0.00000000000E+00 0. -1.
         25    2    1    2    0    0  0.62994441791E+02 -0.68649771314E+02 -0.11057154214E+02  0.15629249691E+03  0.12499597247E+03 0.  0.
          2    1    1    2  501    0 -0.72023036189E+02  0.19118777468E+02 -0.61488619296E+03  0.61938507867E+03  0.00000000000E+00 0. -1.
          1    1    1    2  502    0  0.90285943978E+01  0.49530993845E+02  0.12977119405E+04  0.12986882287E+04  0.00000000000E+00 0. -1.
         22    1    3    3    0    0  0.45227361056E+02 -0.95550717362E+02 -0.39940640013E+02  0.11300755949E+03  0.00000000000E+00 0. -1.
         22    1    3    3    0    0  0.17767080735E+02  0.26900946048E+02  0.28883485799E+02  0.43284937427E+02  0.00000000000E+00 0. -1.
</event>
<event>
 7    1  0.5854318E-006  0.4825664E+02  0.7818608E-02  0.1467201E+00
          2   -1    0    0  502    0  0.00000000000E+00  0.00000000000E+00  0.18752957331E+04  0.18752957331E+04  0.00000000000E+00 0. -1.
          1   -1    0    0  501    0 -0.00000000000E+00 -0.00000000000E+00 -0.46632627158E+02  0.46632627158E+02  0.00000000000E+00 0. -1.
         25    2    1    2    0    0  0.24695335161E+02 -0.16056078850E+01  0.41994168355E+03  0.43884977509E+03  0.12500267982E+03 0.  0.
          2    1    1    2  501    0 -0.25665321566E+02 -0.42546590462E+02 -0.20081875225E+02  0.53592936135E+02  0.00000000000E+00 0. -1.
          1    1    1    2  502    0  0.96998640518E+00  0.44152198347E+02  0.14288032976E+04  0.14294856490E+04  0.00000000000E+00 0. -1.
         22    1    3    3    0    0 -0.14117990548E+02  0.20385388335E+02  0.37397076214E+03  0.37479195915E+03  0.00000000000E+00 0. -1.
         22    1    3    3    0    0  0.38813325708E+02 -0.21990996220E+02  0.45970921413E+02  0.64057815939E+02  0.00000000000E+00 0. -1.
</event>
<event>
 7    1  0.5854318E-006  0.9761681E+02  0.7818608E-02  0.1291011E+00
          2   -1    0    0  502    0  0.00000000000E+00  0.00000000000E+00  0.27857467287E+03  0.27857467287E+03  0.00000000000E+00 0. -1.
          1   -1    0    0  501    0 -0.00000000000E+00 -0.00000000000E+00 -0.61543923382E+03  0.61543923382E+03  0.00000000000E+00 0. -1.
         25    2    1    2    0    0 -0.12639260494E+03  0.84304770440E+02 -0.41876412634E+02  0.20114900724E+03  0.12499961711E+03 0.  0.
          2    1    1    2  501    0  0.95877420817E+02  0.31185978122E+01 -0.47812328367E+03  0.48765159680E+03  0.00000000000E+00 0. -1.
          1    1    1    2  502    0  0.30515184119E+02 -0.87423368252E+02  0.18313513535E+03  0.20521330264E+03  0.00000000000E+00 0. -1.
         22    1    3    3    0    0 -0.70952580935E+02  0.24565923299E+02  0.40464301860E+02  0.85294273278E+02  0.00000000000E+00 0. -1.
         22    1    3    3    0    0 -0.55440024001E+02  0.59738847140E+02 -0.82340714494E+02  0.11585473397E+03  0.00000000000E+00 0. -1.
</event>
<event>
 7    1  0.5854318E-006  0.1239852E+03  0.7818608E-02  0.1249648E+00
          2   -1    0    0  502    0  0.00000000000E+00  0.00000000000E+00  0.28198516648E+04  0.28198516648E+04  0.00000000000E+00 0. -1.
          1   -1    0    0  501    0 -0.00000000000E+00 -0.00000000000E+00 -0.25136788239E+03  0.25136788239E+03  0.00000000000E+00 0. -1.
         25    2    1    2    0    0 -0.10803058033E+03  0.83270119619E+02  0.17253687013E+03  0.25298070442E+03  0.12500298455E+03 0.  0.
          2    1    1    2  501    0  0.82263314539E+01 -0.12644799528E+03 -0.19088877479E+03  0.22911851165E+03  0.00000000000E+00 0. -1.
          1    1    1    2  502    0  0.99804248876E+02  0.43177875658E+02  0.25868356871E+04  0.25891203311E+04  0.00000000000E+00 0. -1.
         22    1    3    3    0    0 -0.59690871653E+02  0.31546464735E+02  0.16912473206E+03  0.18210259358E+03  0.00000000000E+00 0.  1.
         22    1    3    3    0    0 -0.48339708677E+02  0.51723654884E+02  0.34121380702E+01  0.70878110836E+02  0.00000000000E+00 0.  1.
</event>
<event>
 7    1  0.5854318E-006  0.5036797E+02  0.7818608E-02  0.1513578E+00
          2   -1    0    0  502    0  0.00000000000E+00  0.00000000000E+00  0.37719245447E+02  0.37719245447E+02  0.00000000000E+00 0. -1.
          1   -1    0    0  501    0 -0.00000000000E+00 -0.00000000000E+00 -0.18421235855E+04  0.18421235855E+04  0.00000000000E+00 0. -1.
         25    2    1    2    0    0 -0.12197218663E+02  0.59528803276E+02 -0.35609311264E+03  0.38225632856E+03  0.12500058116E+03 0.  0.
          2    1    1    2  501    0 -0.21215470890E+02 -0.22096962566E+02 -0.14470718034E+04  0.14473959984E+04  0.00000000000E+00 0. -1.
          1    1    1    2  502    0  0.33412689553E+02 -0.37431840710E+02 -0.12394240382E+01  0.50190504023E+02  0.00000000000E+00 0. -1.
         22    1    3    3    0    0  0.27635034951E+01  0.16055524202E+02 -0.32794285222E+03  0.32834727215E+03  0.00000000000E+00 0. -1.
         22    1    3    3    0    0 -0.14960722158E+02  0.43473279074E+02 -0.28150260423E+02  0.53909056408E+02  0.00000000000E+00 0. -1.
</event>
<event>
 7    1  0.5854318E-006  0.1594591E+03  0.7818608E-02  0.1350981E+00
          2   -1    0    0  502    0  0.00000000000E+00  0.00000000000E+00  0.15383066698E+04  0.15383066698E+04  0.00000000000E+00 0. -1.
          1   -1    0    0  501    0 -0.00000000000E+00 -0.00000000000E+00 -0.51040539694E+03  0.51040539694E+03  0.00000000000E+00 0. -1.
         25    2    1    2    0    0 -0.10291269924E+03  0.10589206678E+03  0.21830934894E+03  0.29169803136E+03  0.12499846477E+03 0.  0.
          2    1    1    2  501    0 -0.29984256490E+02 -0.14234613257E+02 -0.46804375081E+03  0.46921917323E+03  0.00000000000E+00 0. -1.
          1    1    1    2  502    0  0.13289695573E+03 -0.91657453519E+02  0.12776356748E+04  0.12877948622E+04  0.00000000000E+00 0. -1.
         22    1    3    3    0    0 -0.12276403638E+03  0.56583920077E+02  0.18443365715E+03  0.22866683741E+03  0.00000000000E+00 0.  1.
         22    1    3    3    0    0  0.19851337139E+02  0.49308146699E+02  0.33875691788E+02  0.63031193954E+02  0.00000000000E+00 0.  1.
</event>
<event>
 7    1  0.5854318E-006  0.4929124E+02  0.7818608E-02  0.1497691E+00
          2   -1    0    0  502    0  0.00000000000E+00  0.00000000000E+00  0.56450779254E+03  0.56450779254E+03  0.00000000000E+00 0. -1.
          1   -1    0    0  501    0 -0.00000000000E+00 -0.00000000000E+00 -0.13990445763E+03  0.13990445763E+03  0.00000000000E+00 0. -1.
         25    2    1    2    0    0 -0.23082704649E+02 -0.13505440430E+02  0.20232454533E+03  0.23932361885E+03  0.12500145887E+03 0.  0.
          2    1    1    2  501    0  0.29597492747E+01 -0.34757513974E+02 -0.11685333185E+03  0.12194894857E+03  0.00000000000E+00 0. -1.
          1    1    1    2  502    0  0.20122955374E+02  0.48262954404E+02  0.33913212143E+03  0.34313968276E+03  0.00000000000E+00 0. -1.
         22    1    3    3    0    0 -0.19537581894E+02  0.17539330130E+02 -0.74046584590E+01  0.27279555982E+02  0.00000000000E+00 0. -1.
         22    1    3    3    0    0 -0.35451227553E+01 -0.31044770560E+02  0.20972920379E+03  0.21204406286E+03  0.00000000000E+00 0. -1.
</event>
<event>
 7    1  0.7191003E-006  0.1462742E+03  0.7818608E-02  0.1281541E+00
          2   -1    0    0  502    0  0.00000000000E+00  0.00000000000E+00  0.17633543401E+04  0.17633543401E+04  0.00000000000E+00 0. -1.
          1   -1    0    0  501    0 -0.00000000000E+00 -0.00000000000E+00 -0.12807032395E+04  0.12807032395E+04  0.00000000000E+00 0. -1.
         25    2    1    2    0    0 -0.36608624320E+02  0.13738291565E+03 -0.19089494842E+03  0.26884914330E+03  0.12499889454E+03 0.  0.
          2    1    1    2  501    0  0.98825689345E+02 -0.11104918877E+03 -0.10449067240E+04  0.10554281127E+04  0.00000000000E+00 0. -1.
          1    1    1    2  502    0 -0.62217065025E+02 -0.26333726871E+02  0.17184527730E+04  0.17197803236E+04  0.00000000000E+00 0. -1.
         22    1    3    3    0    0 -0.56386047319E+02  0.86437353263E+02 -0.18758370445E+03  0.21409915587E+03  0.00000000000E+00 0. -1.
         22    1    3    3    0    0  0.19777422999E+02  0.50945562383E+02 -0.33112439773E+01  0.54749987431E+02  0.00000000000E+00 0. -1.
</event>
<event>
 7    1  0.5854318E-006  0.5771202E+02  0.7818608E-02  0.1498745E+00
          2   -1    0    0  502    0  0.00000000000E+00  0.00000000000E+00  0.63821999098E+03  0.63821999098E+03  0.00000000000E+00 0. -1.
          1   -1    0    0  501    0 -0.00000000000E+00 -0.00000000000E+00 -0.50565881641E+03  0.50565881641E+03  0.00000000000E+00 0. -1.
         25    2    1    2    0    0 -0.36825046840E+02 -0.74222214876E+02  0.98573177983E+02  0.17946402284E+03  0.12500257126E+03 0.  0.
          2    1    1    2  501    0  0.36092830055E+02  0.44653353931E+02 -0.46300046924E+03  0.46654694181E+03  0.00000000000E+00 0. -1.
          1    1    1    2  502    0  0.73221678438E+00  0.29568860945E+02  0.49698846582E+03  0.49786784274E+03  0.00000000000E+00 0. -1.
         22    1    3    3    0    0  0.28151587380E+02 -0.75767978811E+01 -0.14866984683E+02  0.32725326151E+02  0.00000000000E+00 0. -1.
         22    1    3    3    0    0 -0.64976634219E+02 -0.66645416995E+02  0.11344016267E+03  0.14673869669E+03  0.00000000000E+00 0. -1.
</event>
<event>
 7    1  0.5854318E-006  0.6443466E+02  0.7818608E-02  0.1448635E+00
          2   -1    0    0  502    0  0.00000000000E+00  0.00000000000E+00  0.64491908654E+03  0.64491908654E+03  0.00000000000E+00 0. -1.
          1   -1    0    0  501    0 -0.00000000000E+00 -0.00000000000E+00 -0.21180615491E+03  0.21180615491E+03  0.00000000000E+00 0. -1.
         25    2    1    2    0    0 -0.48075894971E+02  0.83643616726E+02 -0.67914550869E+02  0.17188566224E+03  0.12499899346E+03 0.  0.
          2    1    1    2  501    0  0.30112065393E+02 -0.50311182131E+02 -0.81877044497E+02  0.10070651392E+03  0.00000000000E+00 0. -1.
          1    1    1    2  502    0  0.17963829579E+02 -0.33332434595E+02  0.58290452700E+03  0.58413306529E+03  0.00000000000E+00 0. -1.
         22    1    3    3    0    0  0.12991750180E+01 -0.25960897517E+02 -0.41241542364E+02  0.48749573046E+02  0.00000000000E+00 0. -1.
         22    1    3    3    0    0 -0.49375069989E+02  0.10960451424E+03 -0.26673008505E+02  0.12313608919E+03  0.00000000000E+00 0. -1.
</event>
<event>
 7    1  0.5854318E-006  0.9974280E+02  0.7818608E-02  0.1360383E+00
          2   -1    0    0  502    0  0.00000000000E+00  0.00000000000E+00  0.20960948692E+03  0.20960948692E+03  0.00000000000E+00 0. -1.
          1   -1    0    0  501    0 -0.00000000000E+00 -0.00000000000E+00 -0.14063393268E+04  0.14063393268E+04  0.00000000000E+00 0. -1.
         25    2    1    2    0    0 -0.58334732249E+02  0.45545542925E+02 -0.35665748066E+03  0.38510605694E+03  0.12499911644E+03 0.  0.
          2    1    1    2  501    0  0.16294490020E+02  0.46218623844E+02 -0.10217951399E+04  0.10229696865E+04  0.00000000000E+00 0. -1.
          1    1    1    2  502    0  0.42040242229E+02 -0.91764166770E+02  0.18172278075E+03  0.20787307020E+03  0.00000000000E+00 0. -1.
         22    1    3    3    0    0  0.91971756490E+01 -0.11183105682E+02 -0.23173395060E+03  0.23218586036E+03  0.00000000000E+00 0. -1.
         22    1    3    3    0    0 -0.67531907898E+02  0.56728648607E+02 -0.12492353007E+03  0.15292019658E+03  0.00000000000E+00 0. -1.
</event>
<event>
 7    1  0.5854318E-006  0.1065816E+03  0.7818608E-02  0.1436698E+00
          2   -1    0    0  502    0  0.00000000000E+00  0.00000000000E+00  0.12993603646E+04  0.12993603646E+04  0.00000000000E+00 0. -1.
          1   -1    0    0  501    0 -0.00000000000E+00 -0.00000000000E+00 -0.14555531746E+04  0.14555531746E+04  0.00000000000E+00 0. -1.
         25    2    1    2    0    0  0.31714345898E+02 -0.84429689597E+02  0.54427180908E+03  0.56567806374E+03  0.12500278964E+03 0.  0.
          2    1    1    2  501    0  0.17973035228E+02 -0.17404577014E+02 -0.14404288224E+04  0.14406460848E+04  0.00000000000E+00 0. -1.
          1    1    1    2  502    0 -0.49687381126E+02  0.10183426661E+03  0.73996420330E+03  0.74858939070E+03  0.00000000000E+00 0. -1.
         22    1    3    3    0    0  0.22571547135E+02 -0.70037264807E+02  0.54365890574E+03  0.54861616727E+03  0.00000000000E+00 0.  1.
         22    1    3    3    0    0  0.91427987632E+01 -0.14392424790E+02  0.61290333788E+00  0.17061896467E+02  0.00000000000E+00 0.  1.
</event>
<event>
 7    1  0.5854318E-006  0.3480814E+02  0.7818608E-02  0.1596266E+00
          2   -1    0    0  502    0  0.00000000000E+00  0.00000000000E+00  0.60877850998E+03  0.60877850998E+03  0.00000000000E+00 0. -1.
          1   -1    0    0  501    0 -0.00000000000E+00 -0.00000000000E+00 -0.34766795931E+03  0.34766795931E+03  0.00000000000E+00 0. -1.
         25    2    1    2    0    0 -0.13952860160E+02 -0.15306896698E+01 -0.18246942955E+03  0.22162342866E+03  0.12499930437E+03 0.  0.
          2    1    1    2  501    0  0.34773783685E+02 -0.14277590861E+02 -0.14289957292E+03  0.14776113688E+03  0.00000000000E+00 0. -1.
          1    1    1    2  502    0 -0.20820923525E+02  0.15808280531E+02  0.58647955313E+03  0.58706190375E+03  0.00000000000E+00 0. -1.
         22    1    3    3    0    0 -0.20692778498E+02 -0.14012027634E+02 -0.19858676057E+03  0.20015301516E+03  0.00000000000E+00 0. -1.
         22    1    3    3    0    0  0.67399183381E+01  0.12481337964E+02  0.16117331027E+02  0.21470413504E+02  0.00000000000E+00 0. -1.
</event>
<event>
 7    1  0.5854318E-006  0.6853662E+02  0.7818608E-02  0.1374727E+00
          2   -1    0    0  502    0  0.00000000000E+00  0.00000000000E+00  0.15871482851E+04  0.15871482851E+04  0.00000000000E+00 0. -1.
          1   -1    0    0  501    0 -0.00000000000E+00 -0.00000000000E+00 -0.27475022692E+03  0.27475022692E+03  0.00000000000E+00 0. -1.
         25    2    1    2    0    0  0.58342619510E+02  0.54586703720E+02  0.39319305223E+02  0.15345882844E+03  0.12498013758E+03 0.  0.
          2    1    1    2  501    0  0.32224943167E+01 -0.69339858948E+02 -0.21145482247E+03  0.22255682972E+03  0.00000000000E+00 0. -1.
          1    1    1    2  502    0 -0.61565113827E+02  0.14753155228E+02  0.14845335754E+04  0.14858828538E+04  0.00000000000E+00 0. -1.
         22    1    3    3    0    0  0.30118052810E+02  0.79992070499E+02 -0.15403188338E+02  0.86850945065E+02  0.00000000000E+00 0. -1.
         22    1    3    3    0    0  0.28224566701E+02 -0.25405366779E+02  0.54722493561E+02  0.66607883378E+02  0.00000000000E+00 0. -1.
</event>
<event>
 7    1  0.5854318E-006  0.5525113E+02  0.7818608E-02  0.1544972E+00
          2   -1    0    0  502    0  0.00000000000E+00  0.00000000000E+00  0.12580981244E+04  0.12580981244E+04  0.00000000000E+00 0. -1.
          1   -1    0    0  501    0 -0.00000000000E+00 -0.00000000000E+00 -0.70682977833E+02  0.70682977833E+02  0.00000000000E+00 0. -1.
         25    2    1    2    0    0 -0.44113926355E+02 -0.59838446946E+02  0.25812874830E+03  0.29627945406E+03  0.12499754385E+03 0.  0.
          2    1    1    2  501    0  0.19853278914E+02  0.10999049677E+02 -0.48314996642E+02  0.53380433475E+02  0.00000000000E+00 0. -1.
          1    1    1    2  502    0  0.24260647441E+02  0.48839397269E+02  0.97760139489E+03  0.97912121467E+03  0.00000000000E+00 0. -1.
         22    1    3    3    0    0 -0.58681061735E+02 -0.29213166954E+02  0.42776523708E+02  0.78273284780E+02  0.00000000000E+00 0.  1.
         22    1    3    3    0    0  0.14567135380E+02 -0.30625279992E+02  0.21535222459E+03  0.21800616928E+03  0.00000000000E+00 0.  1.
</event>
<event>
 7    1  0.5854318E-006  0.1716893E+03  0.7818608E-02  0.1329021E+00
          2   -1    0    0  502    0  0.00000000000E+00  0.00000000000E+00  0.15546092673E+04  0.15546092673E+04  0.00000000000E+00 0. -1.
          1   -1    0    0  501    0 -0.00000000000E+00 -0.00000000000E+00 -0.58356486547E+03  0.58356486547E+03  0.00000000000E+00 0. -1.
         25    2    1    2    0    0  0.16383818231E+03 -0.30518796357E+02 -0.20395807856E+03  0.29154110947E+03  0.12499189489E+03 0.  0.
          2    1    1    2  501    0 -0.16204230930E+03  0.67762062038E+02 -0.31259962097E+03  0.35856370436E+03  0.00000000000E+00 0. -1.
          1    1    1    2  502    0 -0.17958730128E+01 -0.37243265681E+02  0.14876021013E+04  0.14880693189E+04  0.00000000000E+00 0. -1.
         22    1    3    3    0    0  0.15549446074E+03  0.28578940009E+01 -0.10730416411E+03  0.18894676106E+03  0.00000000000E+00 0. -1.
         22    1    3    3    0    0  0.83437215779E+01 -0.33376690358E+02 -0.96653914446E+02  0.10259434842E+03  0.00000000000E+00 0. -1.
</event>
<event>
 7    1  0.5854318E-006  0.1315293E+03  0.7818608E-02  0.1326879E+00
          2   -1    0    0  502    0  0.00000000000E+00  0.00000000000E+00  0.35282496704E+02  0.35282496704E+02  0.00000000000E+00 0. -1.
          1   -1    0    0  501    0 -0.00000000000E+00 -0.00000000000E+00 -0.11066354177E+04  0.11066354177E+04  0.00000000000E+00 0. -1.
         25    2    1    2    0    0 -0.11189658382E+03 -0.68498205618E+02 -0.33661214497E+03  0.38228986852E+03  0.12499983115E+03 0.  0.
          2    1    1    2  501    0  0.13182007236E+03  0.23075614075E+02 -0.62548064542E+03  0.63963665720E+03  0.00000000000E+00 0. -1.
          1    1    1    2  502    0 -0.19923488533E+02  0.45422591544E+02 -0.10926013060E+03  0.11999138868E+03  0.00000000000E+00 0. -1.
         22    1    3    3    0    0 -0.10592041639E+03 -0.33020720603E+02 -0.32662191110E+03  0.34495126526E+03  0.00000000000E+00 0.  1.
         22    1    3    3    0    0 -0.59761674323E+01 -0.35477485015E+02 -0.99902338695E+01  0.37338603254E+02  0.00000000000E+00 0.  1.
</event>
<event>
 7    1  0.5854318E-006  0.1010812E+03  0.7818608E-02  0.1425535E+00
          2   -1    0    0  502    0  0.00000000000E+00  0.00000000000E+00  0.15427444473E+04  0.15427444473E+04  0.00000000000E+00 0. -1.
          1   -1    0    0  501    0 -0.00000000000E+00 -0.00000000000E+00 -0.28174271275E+03  0.28174271275E+03  0.00000000000E+00 0. -1.
         25    2    1    2    0    0  0.34634596361E+01 -0.99435175678E+02  0.80956735570E+03  0.82518069679E+03  0.12499811687E+03 0.  0.
          2    1    1    2  501    0 -0.28701121270E+02 -0.53128561627E+00 -0.26950622356E+03  0.27103070152E+03  0.00000000000E+00 0. -1.
          1    1    1    2  502    0  0.25237661634E+02  0.99966461294E+02  0.72094060238E+03  0.72827576172E+03  0.00000000000E+00 0. -1.
         22    1    3    3    0    0 -0.14931840718E+01 -0.91284047383E+02  0.81047215177E+03  0.81559801109E+03  0.00000000000E+00 0. -1.
         22    1    3    3    0    0  0.49566437078E+01 -0.81511282946E+01 -0.90479606278E+00  0.95826857006E+01  0.00000000000E+00 0. -1.
</event>
<event>
 7    1  0.5854318E-006  0.9392042E+02  0.7818608E-02  0.1391891E+00
          2   -1    0    0  502    0  0.00000000000E+00  0.00000000000E+00  0.11510843569E+04  0.11510843569E+04  0.00000000000E+00 0. -1.
          1   -1    0    0  501    0 -0.00000000000E+00 -0.00000000000E+00 -0.30255796849E+03  0.30255796849E+03  0.00000000000E+00 0. -1.
         25    2    1    2    0    0 -0.20494138664E+02  0.12575881389E+03  0.32180132448E+03  0.36798965069E+03  0.12500000636E+03 0.  0.
          2    1    1    2  501    0 -0.30236580256E+01 -0.93167400288E+02 -0.27117072846E+03  0.28674530677E+03  0.00000000000E+00 0. -1.
          1    1    1    2  502    0  0.23517796690E+02 -0.32591413602E+02  0.79789579240E+03  0.79890736793E+03  0.00000000000E+00 0. -1.
         22    1    3    3    0    0 -0.19677119012E+02  0.15102861636E+03  0.26181007195E+03  0.30288833875E+03  0.00000000000E+00 0.  1.
         22    1    3    3    0    0 -0.81701965155E+00 -0.25269802466E+02  0.59991252520E+02  0.65101311944E+02  0.00000000000E+00 0.  1.
</event>
<event>
 7    1  0.5854318E-006  0.5718899E+02  0.7818608E-02  0.1456596E+00
          2   -1    0    0  502    0  0.00000000000E+00  0.00000000000E+00  0.11860742257E+03  0.11860742257E+03  0.00000000000E+00 0. -1.
          1   -1    0    0  501    0 -0.00000000000E+00 -0.00000000000E+00 -0.40297400955E+03  0.40297400955E+03  0.00000000000E+00 0. -1.
         25    2    1    2    0    0  0.11943139459E+02 -0.23828634244E+02 -0.19903646646E+03  0.23653510502E+03  0.12499159385E+03 0.  0.
          2    1    1    2  501    0 -0.21504726232E+02 -0.34012778684E+02 -0.17408574313E+03  0.17867615488E+03  0.00000000000E+00 0. -1.
          1    1    1    2  502    0  0.95615867727E+01  0.57841412928E+02  0.88755622612E+02  0.10637017221E+03  0.00000000000E+00 0. -1.
         22    1    3    3    0    0 -0.24920540288E+02 -0.64710798638E+02 -0.83383785417E+02  0.10844987994E+03  0.00000000000E+00 0.  1.
         22    1    3    3    0    0  0.36863679747E+02  0.40882164394E+02 -0.11565268105E+03  0.12808522508E+03  0.00000000000E+00 0.  1.
</event>
<event>
 7    1  0.5854318E-006  0.6435592E+02  0.7818608E-02  0.1412347E+00
          2   -1    0    0  502    0  0.00000000000E+00  0.00000000000E+00  0.16697264536E+03  0.16697264536E+03  0.00000000000E+00 0. -1.
          1   -1    0    0  501    0 -0.00000000000E+00 -0.00000000000E+00 -0.39504720616E+03  0.39504720616E+03  0.00000000000E+00 0. -1.
         25    2    1    2    0    0 -0.82321311704E+02  0.65126288557E+02 -0.10892517023E+03  0.19623284172E+03  0.12499761453E+03 0.  0.
          2    1    1    2  501    0  0.34679588234E+02 -0.50257250114E+02 -0.23332368015E+03  0.24118126948E+03  0.00000000000E+00 0. -1.
          1    1    1    2  502    0  0.47641723469E+02 -0.14869038443E+02  0.11417428958E+03  0.12460574032E+03  0.00000000000E+00 0. -1.
         22    1    3    3    0    0 -0.43347938713E+02  0.27625928150E+02 -0.12874758635E+03  0.13862963857E+03  0.00000000000E+00 0.  1.
         22    1    3    3    0    0 -0.38973372990E+02  0.37500360407E+02  0.19822416123E+02  0.57603203156E+02  0.00000000000E+00 0.  1.
</event>
<event>
 7    1  0.5854318E-006  0.1478837E+03  0.7818608E-02  0.1281518E+00
          2   -1    0    0  502    0  0.00000000000E+00  0.00000000000E+00  0.10240773216E+04  0.10240773216E+04  0.00000000000E+00 0. -1.
          1   -1    0    0  501    0 -0.00000000000E+00 -0.00000000000E+00 -0.12753714050E+04  0.12753714050E+04  0.00000000000E+00 0. -1.
         25    2    1    2    0    0  0.12522432199E+01 -0.14062733972E+03  0.30902985378E+03  0.36180320075E+03  0.12499795500E+03 0.  0.
          2    1    1    2  501    0 -0.67519113963E+02  0.13189412601E+03 -0.12429521722E+04  0.12517527686E+04  0.00000000000E+00 0. -1.
          1    1    1    2  502    0  0.66266870743E+02  0.87332137059E+01  0.68262823510E+03  0.68589275731E+03  0.00000000000E+00 0. -1.
         22    1    3    3    0    0  0.29867522080E+02 -0.54237395436E+02  0.23922759981E+03  0.24711051869E+03  0.00000000000E+00 0. -1.
         22    1    3    3    0    0 -0.28615278860E+02 -0.86389944280E+02  0.69802253972E+02  0.11469268205E+03  0.00000000000E+00 0. -1.
</event>
<event>
 7    1  0.5854318E-006  0.5290442E+02  0.7818608E-02  0.1464537E+00
          2   -1    0    0  502    0  0.00000000000E+00  0.00000000000E+00  0.11854372262E+04  0.11854372262E+04  0.00000000000E+00 0. -1.
          1   -1    0    0  501    0 -0.00000000000E+00 -0.00000000000E+00 -0.41694193543E+03  0.41694193543E+03  0.00000000000E+00 0. -1.
         25    2    1    2    0    0  0.29656479190E+02 -0.30627452248E+01 -0.93106500267E+02  0.15869170053E+03  0.12500139303E+03 0.  0.
          2    1    1    2  501    0 -0.42192395223E+02 -0.36040599576E+02 -0.28802802329E+03  0.29332450500E+03  0.00000000000E+00 0. -1.
          1    1    1    2  502    0  0.12535916034E+02  0.39103344801E+02  0.11496298143E+04  0.11503629561E+04  0.00000000000E+00 0. -1.
         22    1    3    3    0    0 -0.45180500355E+02  0.14958037885E+02 -0.17255923788E+02  0.50623980636E+02  0.00000000000E+00 0.  1.
         22    1    3    3    0    0  0.74836979545E+02 -0.18020783110E+02 -0.75850576480E+02  0.10806771990E+03  0.00000000000E+00 0.  1.
</event>
<event>
 7    1  0.5854318E-006  0.1081263E+03  0.7818608E-02  0.1342582E+00
          2   -1    0    0  502    0  0.00000000000E+00  0.00000000000E+00  0.29921208325E+03  0.29921208325E+03  0.00000000000E+00 0. -1.
          1   -1    0    0  501    0 -0.00000000000E+00 -0.00000000000E+00 -0.33809754991E+03  0.33809754991E+03  0.00000000000E+00 0. -1.
         25    2    1    2    0    0  0.43150046641E+02  0.43571861124E+02 -0.58899732651E+02  0.15118144507E+03  0.12500486878E+03 0.  0.
          2    1    1    2  501    0  0.35747584412E+02  0.38591081320E+02 -0.21693423677E+03  0.22322102148E+03  0.00000000000E+00 0. -1.
          1    1    1    2  502    0 -0.78897631052E+02 -0.82162942444E+02  0.23694850276E+03  0.26290716661E+03  0.00000000000E+00 0. -1.
         22    1    3    3    0    0  0.68930311369E+02  0.70103245457E+02 -0.58058562696E+02  0.11417814831E+03  0.00000000000E+00 0. -1.
         22    1    3    3    0    0 -0.25780264729E+02 -0.26531384333E+02 -0.84116995485E+00  0.37003296758E+02  0.00000000000E+00 0. -1.
</event>
<event>
 7    1  0.5854318E-006  0.7172746E+02  0.7818608E-02  0.1436950E+00
          2   -1    0    0  502    0  0.00000000000E+00  0.00000000000E+00  0.34667689470E+02  0.34667689470E+02  0.00000000000E+00 0. -1.
          1   -1    0    0  501    0 -0.00000000000E+00 -0.00000000000E+00 -0.20078920562E+04  0.20078920562E+04  0.00000000000E+00 0. -1.
         25    2    1    2    0    0 -0.60170982246E+02  0.35940320385E+02 -0.96223142619E+03  0.97284495172E+03  0.12500291513E+03 0.  0.
          2    1    1    2  501    0 -0.12051188714E+02 -0.35094564892E+02 -0.99505945777E+03  0.99575106535E+03  0.00000000000E+00 0. -1.
          1    1    1    2  502    0  0.72222170960E+02 -0.84575549360E+00 -0.15933482798E+02  0.73963728642E+02  0.00000000000E+00 0. -1.
         22    1    3    3    0    0 -0.19262823885E+02  0.77838577272E+02 -0.67183876280E+03  0.67660714132E+03  0.00000000000E+00 0.  1.
         22    1    3    3    0    0 -0.40908158361E+02 -0.41898256887E+02 -0.29039266340E+03  0.29623781039E+03  0.00000000000E+00 0.  1.
</event>
<event>
 7    1  0.5854318E-006  0.6402230E+02  0.7818608E-02  0.1537949E+00
          2   -1    0    0  502    0  0.00000000000E+00  0.00000000000E+00  0.21350380497E+03  0.21350380497E+03  0.00000000000E+00 0. -1.
          1   -1    0    0  501    0 -0.00000000000E+00 -0.00000000000E+00 -0.68151888787E+03  0.68151888787E+03  0.00000000000E+00 0. -1.
         25    2    1    2    0    0 -0.48807163359E+02  0.32680483292E+02  0.53759565273E+02  0.14820712996E+03  0.12500043732E+03 0.  0.
          2    1    1    2  501    0  0.39196439111E+02 -0.50789619493E+02 -0.63172289975E+03  0.63497225795E+03  0.00000000000E+00 0. -1.
          1    1    1    2  502    0  0.96107242479E+01  0.18109136201E+02  0.10994825157E+03  0.11184330493E+03  0.00000000000E+00 0. -1.
         22    1    3    3    0    0  0.17881185264E+02  0.16119562872E+02  0.72986098714E+02  0.76854067550E+02  0.00000000000E+00 0.  1.
         22    1    3    3    0    0 -0.66688348622E+02  0.16560920420E+02 -0.19226533440E+02  0.71353062410E+02  0.00000000000E+00 0.  1.
</event>
<event>
 7    1  0.5854318E-006  0.1473040E+03  0.7818608E-02  0.1300221E+00
          2   -1    0    0  502    0  0.00000000000E+00  0.00000000000E+00  0.62187359802E+03  0.62187359802E+03  0.00000000000E+00 0. -1.
          1   -1    0    0  501    0 -0.00000000000E+00 -0.00000000000E+00 -0.16736228019E+04  0.16736228019E+04  0.00000000000E+00 0. -1.
         25    2    1    2    0    0 -0.16597101044E+02 -0.12173631649E+03 -0.37806206852E+02  0.17930385409E+03  0.12500147319E+03 0.  0.
          2    1    1    2  501    0  0.50641208477E+02 -0.24679525427E+02 -0.15542977624E+04  0.15553183421E+04  0.00000000000E+00 0. -1.
          1    1    1    2  502    0 -0.34044107432E+02  0.14641584192E+03  0.54035476535E+03  0.56087420377E+03  0.00000000000E+00 0. -1.
         22    1    3    3    0    0  0.16770146094E+02 -0.75569771607E+02 -0.77764357383E+02  0.10972385092E+03  0.00000000000E+00 0. -1.
         22    1    3    3    0    0 -0.33367247138E+02 -0.46166544884E+02  0.39958150531E+02  0.69580003176E+02  0.00000000000E+00 0. -1.
</event>
<event>
 7    1  0.5854318E-006  0.1635324E+03  0.7818608E-02  0.1285297E+00
          2   -1    0    0  502    0  0.00000000000E+00  0.00000000000E+00  0.29957923041E+04  0.29957923041E+04  0.00000000000E+00 0. -1.
          1   -1    0    0  501    0 -0.00000000000E+00 -0.00000000000E+00 -0.75412691676E+02  0.75412691676E+02  0.00000000000E+00 0. -1.
         25    2    1    2    0    0 -0.61071176532E+01  0.12526776042E+03  0.85665983092E+03  0.87476869580E+03  0.12499958615E+03 0.  0.
          2    1    1    2  501    0 -0.36828017866E+02 -0.16473714389E+03  0.42098385759E+02  0.17397385884E+03  0.00000000000E+00 0. -1.
          1    1    1    2  502    0  0.42935135519E+02  0.39469383469E+02  0.20216213957E+04  0.20224624411E+04  0.00000000000E+00 0. -1.
         22    1    3    3    0    0 -0.42929632963E+02  0.69822231287E+02  0.22234345730E+03  0.23696985118E+03  0.00000000000E+00 0.  1.
         22    1    3    3    0    0  0.36822515310E+02  0.55445529135E+02  0.63431637363E+03  0.63779884461E+03  0.00000000000E+00 0.  1.
</event>
<event>
 7    1  0.5854318E-006  0.3947627E+02  0.7818608E-02  0.1589266E+00
          2   -1    0    0  502    0  0.00000000000E+00  0.00000000000E+00  0.15302108647E+04  0.15302108647E+04  0.00000000000E+00 0. -1.
          1   -1    0    0  501    0 -0.00000000000E+00 -0.00000000000E+00 -0.27813172752E+02  0.27813172752E+02  0.00000000000E+00 0. -1.
         25    2    1    2    0    0 -0.92039899996E+01  0.16741295358E+02  0.37702714665E+03  0.39766714370E+03  0.12499881385E+03 0.  0.
          2    1    1    2  501    0  0.57737183196E+01  0.23348576820E+02 -0.86968711402E+01  0.25575915045E+02  0.00000000000E+00 0. -1.
          1    1    1    2  502    0  0.34302716800E+01 -0.40089872178E+02  0.11340674164E+04  0.11347809787E+04  0.00000000000E+00 0. -1.
         22    1    3    3    0    0  0.15752236977E+02  0.69112894590E+01 -0.23336618828E+01  0.17359287703E+02  0.00000000000E+00 0. -1.
         22    1    3    3    0    0 -0.24956226977E+02  0.98300058993E+01  0.37936080854E+03  0.38030785600E+03  0.00000000000E+00 0. -1.
</event>
<event>
 7    1  0.5854318E-006  0.3327919E+02  0.7818608E-02  0.1617054E+00
          2   -1    0    0  502    0  0.00000000000E+00  0.00000000000E+00  0.14289560361E+03  0.14289560361E+03  0.00000000000E+00 0. -1.
          1   -1    0    0  501    0 -0.00000000000E+00 -0.00000000000E+00 -0.10750909012E+03  0.10750909012E+03  0.00000000000E+00 0. -1.
         25    2    1    2    0    0  0.47889355639E+02  0.23268971204E+02 -0.34042799162E+02  0.14008057904E+03  0.12501528325E+03 0.  0.
          2    1    1    2  501    0 -0.24136835719E+02 -0.91732144318E+00 -0.86896649944E+01  0.25669799276E+02  0.00000000000E+00 0. -1.
          1    1    1    2  502    0 -0.23752519920E+02 -0.22351649761E+02  0.78118977640E+02  0.84654315408E+02  0.00000000000E+00 0. -1.
         22    1    3    3    0    0  0.30300724202E+02  0.38350747335E+02 -0.77041053507E+02  0.91237260118E+02  0.00000000000E+00 0.  1.
         22    1    3    3    0    0  0.17588631437E+02 -0.15081776130E+02  0.42998254345E+02  0.48843318926E+02  0.00000000000E+00 0.  1.
</event>
<event>
 7    1  0.5854318E-006  0.1068724E+03  0.7818608E-02  0.1334573E+00
          2   -1    0    0  502    0  0.00000000000E+00  0.00000000000E+00  0.17198942971E+04  0.17198942971E+04  0.00000000000E+00 0. -1.
          1   -1    0    0  501    0 -0.00000000000E+00 -0.00000000000E+00 -0.47061877565E+03  0.47061877565E+03  0.00000000000E+00 0. -1.
         25    2    1    2    0    0  0.81512398267E+01 -0.10923590559E+03 -0.36119998915E+02  0.17008414088E+03  0.12500013950E+03 0.  0.
          2    1    1    2  501    0  0.47601728243E+02  0.97124638916E+02 -0.35905304608E+03  0.37499094644E+03  0.00000000000E+00 0. -1.
          1    1    1    2  502    0 -0.55752968069E+02  0.12111266674E+02  0.16444485664E+04  0.16454379854E+04  0.00000000000E+00 0. -1.
         22    1    3    3    0    0  0.35291624793E+02 -0.85424925293E+01 -0.53197256006E+02  0.64408237095E+02  0.00000000000E+00 0.  1.
         22    1    3    3    0    0 -0.27140384966E+02 -0.10069341306E+03  0.17077257091E+02  0.10567590378E+03  0.00000000000E+00 0.  1.
</event>
<event>
 7    1  0.5854318E-006  0.4318268E+02  0.7818608E-02  0.1566843E+00
          2   -1    0    0  502    0  0.00000000000E+00  0.00000000000E+00  0.36284427202E+03  0.36284427202E+03  0.00000000000E+00 0. -1.
          1   -1    0    0  501    0 -0.00000000000E+00 -0.00000000000E+00 -0.18499880363E+03  0.18499880363E+03  0.00000000000E+00 0. -1.
         25    2    1    2    0    0  0.28879802390E+02  0.37674531107E+02  0.71945805554E+02  0.15183405250E+03  0.12499586905E+03 0.  0.
          2    1    1    2  501    0 -0.41982774103E+01 -0.43056028249E+02 -0.14117085344E+03  0.14765045534E+03  0.00000000000E+00 0. -1.
          1    1    1    2  502    0 -0.24681524980E+02  0.53814971423E+01  0.24707051628E+03  0.24835856781E+03  0.00000000000E+00 0. -1.
         22    1    3    3    0    0  0.54252548637E+02  0.72019119498E+02  0.40725779648E+02  0.98937766979E+02  0.00000000000E+00 0.  1.
         22    1    3    3    0    0 -0.25372746247E+02 -0.34344588391E+02  0.31220025906E+02  0.52896285516E+02  0.00000000000E+00 0.  1.
</event>
<event>
 7    1  0.5854318E-006  0.3172920E+03  0.7818608E-02  0.1100109E+00
          2   -1    0    0  502    0  0.00000000000E+00  0.00000000000E+00  0.72931464856E+03  0.72931464856E+03  0.00000000000E+00 0. -1.
          1   -1    0    0  501    0 -0.00000000000E+00 -0.00000000000E+00 -0.50241207007E+03  0.50241207007E+03  0.00000000000E+00 0. -1.
         25    2    1    2    0    0  0.19162120027E+03  0.51141714457E+02  0.14547334645E+03  0.27590252414E+03  0.12500219577E+03 0.  0.
          2    1    1    2  501    0 -0.36081778560E+03  0.10944001888E+03 -0.31801566487E+03  0.49325506103E+03  0.00000000000E+00 0. -1.
          1    1    1    2  502    0  0.16919658533E+03 -0.16058173333E+03  0.39944489690E+03  0.46256913346E+03  0.00000000000E+00 0. -1.
         22    1    3    3    0    0  0.13634902117E+03 -0.26405666397E+02  0.93377093159E+02  0.16735470211E+03  0.00000000000E+00 0. -1.
         22    1    3    3    0    0  0.55272179102E+02  0.77547380853E+02  0.52096253293E+02  0.10854782203E+03  0.00000000000E+00 0. -1.
</event>
<event>
 7    1  0.5854318E-006  0.1201978E+03  0.7818608E-02  0.1327615E+00
          2   -1    0    0  502    0  0.00000000000E+00  0.00000000000E+00  0.30433196864E+04  0.30433196864E+04  0.00000000000E+00 0. -1.
          1   -1    0    0  501    0 -0.00000000000E+00 -0.00000000000E+00 -0.22432444997E+03  0.22432444997E+03  0.00000000000E+00 0. -1.
         25    2    1    2    0    0  0.31189401836E+02  0.61244174296E+02  0.14827607971E+04  0.14896067193E+04  0.12499987713E+03 0.  0.
          2    1    1    2  501    0 -0.37562398076E+02 -0.11479043262E+03 -0.20388491123E+03  0.23697433236E+03  0.00000000000E+00 0. -1.
          1    1    1    2  502    0  0.63729962401E+01  0.53546258328E+02  0.15401193506E+04  0.15410630847E+04  0.00000000000E+00 0. -1.
         22    1    3    3    0    0  0.15456040450E+02 -0.37215157439E+02  0.30858471188E+03  0.31120472608E+03  0.00000000000E+00 0.  1.
         22    1    3    3    0    0  0.15733361386E+02  0.98459331735E+02  0.11741760852E+04  0.11784019933E+04  0.00000000000E+00 0.  1.
</event>
<event>
 7    1  0.5854318E-006  0.1432134E+03  0.7818608E-02  0.1422967E+00
          2   -1    0    0  502    0  0.00000000000E+00  0.00000000000E+00  0.14295486521E+03  0.14295486521E+03  0.00000000000E+00 0. -1.
          1   -1    0    0  501    0 -0.00000000000E+00 -0.00000000000E+00 -0.72293065828E+03  0.72293065828E+03  0.00000000000E+00 0. -1.
         25    2    1    2    0    0  0.83724832919E+02  0.97629888628E+02 -0.98708737097E+02  0.20471699289E+03  0.12499675835E+03 0.  0.
          2    1    1    2  501    0  0.14976926729E+02  0.14234887516E+02 -0.50900828509E+03  0.50942749695E+03  0.00000000000E+00 0. -1.
          1    1    1    2  502    0 -0.98701759648E+02 -0.11186477614E+03  0.27741229111E+02  0.15174103365E+03  0.00000000000E+00 0. -1.
         22    1    3    3    0    0 -0.32285437967E+02  0.16196664396E+02 -0.31169162381E+02  0.47709518189E+02  0.00000000000E+00 0.  1.
         22    1    3    3    0    0  0.11601027089E+03  0.81433224232E+02 -0.67539574716E+02  0.15700747470E+03  0.00000000000E+00 0.  1.
</event>
<event>
 7    1  0.5854318E-006  0.2710354E+02  0.7818608E-02  0.1679489E+00
          2   -1    0    0  502    0  0.00000000000E+00  0.00000000000E+00  0.11437224233E+04  0.11437224233E+04  0.00000000000E+00 0. -1.
          1   -1    0    0  501    0 -0.00000000000E+00 -0.00000000000E+00 -0.31927175729E+02  0.31927175729E+02  0.00000000000E+00 0. -1.
         25    2    1    2    0    0 -0.46783889939E+02  0.16269117537E+01  0.32565625524E+03  0.35194946611E+03  0.12500020367E+03 0.  0.
          2    1    1    2  501    0  0.26166867049E+02 -0.45821169964E+01 -0.91815148940E+01  0.28106955422E+02  0.00000000000E+00 0. -1.
          1    1    1    2  502    0  0.20617022890E+02  0.29552052428E+01  0.79532050721E+03  0.79559317748E+03  0.00000000000E+00 0. -1.
         22    1    3    3    0    0  0.19568452138E+02 -0.46627744149E+02  0.10521878167E+03  0.11673929441E+03  0.00000000000E+00 0.  1.
         22    1    3    3    0    0 -0.66352342077E+02  0.48254655902E+02  0.22043747357E+03  0.23521017170E+03  0.00000000000E+00 0.  1.
</event>
<event>
 7    1  0.5854318E-006  0.9227202E+02  0.7818608E-02  0.1364532E+00
          2   -1    0    0  502    0  0.00000000000E+00  0.00000000000E+00  0.14100204115E+04  0.14100204115E+04  0.00000000000E+00 0. -1.
          1   -1    0    0  501    0 -0.00000000000E+00 -0.00000000000E+00 -0.22210209800E+04  0.22210209800E+04  0.00000000000E+00 0. -1.
         25    2    1    2    0    0 -0.56333195897E+02  0.72144093807E+01 -0.96632564237E+01  0.13763955651E+03  0.12500316927E+03 0.  0.
          2    1    1    2  501    0  0.75035649525E+02 -0.54840018761E+02 -0.21458771187E+04  0.21478888205E+04  0.00000000000E+00 0. -1.
          1    1    1    2  502    0 -0.18702453629E+02  0.47625609380E+02  0.13445398067E+04  0.13455130145E+04  0.00000000000E+00 0. -1.
         22    1    3    3    0    0  0.55173631850E+01 -0.26505699799E+02  0.42216581405E+02  0.50152100293E+02  0.00000000000E+00 0. -1.
         22    1    3    3    0    0 -0.61850559082E+02  0.33720109179E+02 -0.51879837829E+02  0.87487456215E+02  0.00000000000E+00 0. -1.
</event>
<event>
 7    1  0.5854318E-006  0.5185862E+02  0.7818608E-02  0.1510671E+00
          2   -1    0    0  502    0  0.00000000000E+00  0.00000000000E+00  0.11623789189E+03  0.11623789189E+03  0.00000000000E+00 0. -1.
          1   -1    0    0  501    0 -0.00000000000E+00 -0.00000000000E+00 -0.13816713261E+04  0.13816713261E+04  0.00000000000E+00 0. -1.
         25    2    1    2    0    0  0.55398442730E+01  0.69792935380E+02 -0.22819136051E+03  0.26944043051E+03  0.12500041952E+03 0.  0.
          2    1    1    2  501    0  0.18349162731E+02 -0.24165655608E+02 -0.11257005689E+04  0.11261094270E+04  0.00000000000E+00 0. -1.
          1    1    1    2  502    0 -0.23889007004E+02 -0.45627279771E+02  0.88458495183E+02  0.10235936051E+03  0.00000000000E+00 0. -1.
         22    1    3    3    0    0  0.93810893343E+00  0.10595057575E+03 -0.15616425201E+03  0.18871586620E+03  0.00000000000E+00 0. -1.
         22    1    3    3    0    0  0.46017353395E+01 -0.36157640367E+02 -0.72027108502E+02  0.80724564317E+02  0.00000000000E+00 0. -1.
</event>
<event>
 7    1  0.5854318E-006  0.7018806E+02  0.7818608E-02  0.1422431E+00
          2   -1    0    0  502    0  0.00000000000E+00  0.00000000000E+00  0.23397839155E+03  0.23397839155E+03  0.00000000000E+00 0. -1.
          1   -1    0    0  501    0 -0.00000000000E+00 -0.00000000000E+00 -0.25769189762E+04  0.25769189762E+04  0.00000000000E+00 0. -1.
         25    2    1    2    0    0  0.82987128528E+02 -0.61646136805E+02 -0.16342774932E+02  0.16303135016E+03  0.12500010063E+03 0.  0.
          2    1    1    2  501    0 -0.40933768844E+02  0.56780562422E+02 -0.24839411019E+04  0.24849271626E+04  0.00000000000E+00 0. -1.
          1    1    1    2  502    0 -0.42053359684E+02  0.48655743835E+01  0.15734329217E+03  0.16293885500E+03  0.00000000000E+00 0. -1.
         22    1    3    3    0    0  0.92722006034E+02 -0.86731853134E+01 -0.43415917388E+02  0.10274987313E+03  0.00000000000E+00 0.  1.
         22    1    3    3    0    0 -0.97348775052E+01 -0.52972951492E+02  0.27073142456E+02  0.60281477025E+02  0.00000000000E+00 0.  1.
</event>
<event>
 7    1  0.5854318E-006  0.1245990E+03  0.7818608E-02  0.1246915E+00
          2   -1    0    0  502    0  0.00000000000E+00  0.00000000000E+00  0.12624084713E+04  0.12624084713E+04  0.00000000000E+00 0. -1.
          1   -1    0    0  501    0 -0.00000000000E+00 -0.00000000000E+00 -0.65515194938E+03  0.65515194938E+03  0.00000000000E+00 0. -1.
         25    2    1    2    0    0 -0.16192780027E+02 -0.18038066723E+01  0.49591790048E+03  0.51168663260E+03  0.12499274426E+03 0.  0.
          2    1    1    2  501    0  0.10904240789E+03  0.63015327255E+02 -0.63699297478E+03  0.64932366976E+03  0.00000000000E+00 0. -1.
          1    1    1    2  502    0 -0.92849627859E+02 -0.61211520583E+02  0.74833159626E+03  0.75655011837E+03  0.00000000000E+00 0. -1.
         22    1    3    3    0    0 -0.24390002186E+02  0.49670479854E+02  0.38703706920E+03  0.39097278896E+03  0.00000000000E+00 0. -1.
         22    1    3    3    0    0  0.81972221584E+01 -0.51474286526E+02  0.10888083128E+03  0.12071384364E+03  0.00000000000E+00 0. -1.
</event>
<event>
 7    1  0.5854318E-006  0.1222456E+03  0.7818608E-02  0.1338947E+00
          2   -1    0    0  502    0  0.00000000000E+00  0.00000000000E+00  0.48289703178E+03  0.48289703178E+03  0.00000000000E+00 0. -1.
          1   -1    0    0  501    0 -0.00000000000E+00 -0.00000000000E+00 -0.84779066801E+03  0.84779066801E+03  0.00000000000E+00 0. -1.
         25    2    1    2    0    0 -0.45747711446E+02  0.84279668240E+02 -0.10622319353E+03  0.19001239395E+03  0.12500170971E+03 0.  0.
          2    1    1    2  501    0 -0.47932034433E+02 -0.28152646266E+01 -0.69008502741E+03  0.69175338864E+03  0.00000000000E+00 0. -1.
          1    1    1    2  502    0  0.93679745880E+02 -0.81464403614E+02  0.43141458471E+03  0.44892191720E+03  0.00000000000E+00 0. -1.
         22    1    3    3    0    0 -0.12669994309E+02  0.94925215537E+02 -0.21091598492E+02  0.98062127386E+02  0.00000000000E+00 0.  1.
         22    1    3    3    0    0 -0.33077717138E+02 -0.10645547297E+02 -0.85131595038E+02  0.91950266568E+02  0.00000000000E+00 0.  1.
</event>
<event>
 7    1  0.5854318E-006  0.3073629E+03  0.7818608E-02  0.1239032E+00
          2   -1    0    0  502    0  0.00000000000E+00  0.00000000000E+00  0.22588120595E+04  0.22588120595E+04  0.00000000000E+00 0. -1.
          1   -1    0    0  501    0 -0.00000000000E+00 -0.00000000000E+00 -0.24576862247E+03  0.24576862247E+03  0.00000000000E+00 0. -1.
         25    2    1    2    0    0 -0.26960221310E+03 -0.65926452573E+02  0.12554084237E+04  0.12917843981E+04  0.12499988143E+03 0.  0.
          2    1    1    2  501    0  0.30794489599E+03  0.35705165391E+02 -0.12101531864E+03  0.33279066265E+03  0.00000000000E+00 0. -1.
          1    1    1    2  502    0 -0.38342682896E+02  0.30221287182E+02  0.87865033202E+03  0.88000562128E+03  0.00000000000E+00 0. -1.
         22    1    3    3    0    0 -0.15555004319E+03 -0.33412275944E+02  0.44171587427E+03  0.46949452574E+03  0.00000000000E+00 0. -1.
         22    1    3    3    0    0 -0.11405216991E+03 -0.32514176629E+02  0.81369254944E+03  0.82228987234E+03  0.00000000000E+00 0. -1.
</event>
<event>
 7    1  0.5854318E-006  0.1167861E+03  0.7818608E-02  0.1293354E+00
          2   -1    0    0  502    0  0.00000000000E+00  0.00000000000E+00  0.15144399218E+04  0.15144399218E+04  0.00000000000E+00 0. -1.
          1   -1    0    0  501    0 -0.00000000000E+00 -0.00000000000E+00 -0.68869499249E+02  0.68869499249E+02  0.00000000000E+00 0. -1.
         25    2    1    2    0    0 -0.18207412159E+01 -0.13119277087E+03  0.20630027007E+03  0.27459103034E+03  0.12500229712E+03 0.  0.
          2    1    1    2  501    0 -0.65926751607E+02  0.97364978709E+02  0.69682195996E+02  0.13668168895E+03  0.00000000000E+00 0. -1.
          1    1    1    2  502    0  0.67747492823E+02  0.33827792161E+02  0.11695879565E+04  0.11720367017E+04  0.00000000000E+00 0. -1.
         22    1    3    3    0    0  0.18315194871E+02 -0.38642731693E+02 -0.49796390130E+01  0.43052338851E+02  0.00000000000E+00 0.  1.
         22    1    3    3    0    0 -0.20135936086E+02 -0.92550039177E+02  0.21127990908E+03  0.23153869148E+03  0.00000000000E+00 0.  1.
</event>
<event>
 7    1  0.5854318E-006  0.1311118E+03  0.7818608E-02  0.1332477E+00
          2   -1    0    0  502    0  0.00000000000E+00  0.00000000000E+00  0.15909278554E+04  0.15909278554E+04  0.00000000000E+00 0. -1.
          1   -1    0    0  501    0 -0.00000000000E+00 -0.00000000000E+00 -0.44217329867E+03  0.44217329867E+03  0.00000000000E+00 0. -1.
         25    2    1    2    0    0  0.17489632297E+03 -0.17755518139E+02  0.17838120140E+03  0.27990705035E+03  0.12499648639E+03 0.  0.
          2    1    1    2  501    0 -0.47213250107E+02  0.38019341463E+01 -0.38693429647E+03  0.38982264618E+03  0.00000000000E+00 0. -1.
          1    1    1    2  502    0 -0.12768307287E+03  0.13953583993E+02  0.13573076518E+04  0.13633714575E+04  0.00000000000E+00 0. -1.
         22    1    3    3    0    0  0.37169744949E+02 -0.60487332784E+02  0.49985851727E+02  0.86826797360E+02  0.00000000000E+00 0. -1.
         22    1    3    3    0    0  0.13772657803E+03  0.42731814645E+02  0.12839534968E+03  0.19308025299E+03  0.00000000000E+00 0. -1.
</event>
<event>
 7    1  0.5854318E-006  0.1078448E+03  0.7818608E-02  0.1361575E+00
          2   -1    0    0  502    0  0.00000000000E+00  0.00000000000E+00  0.60819145821E+03  0.60819145821E+03  0.00000000000E+00 0. -1.
          1   -1    0    0  501    0 -0.00000000000E+00 -0.00000000000E+00 -0.31475587050E+03  0.31475587050E+03  0.00000000000E+00 0. -1.
         25    2    1    2    0    0  0.98806032624E+02 -0.17982326136E+02  0.80283850454E+02  0.17932024520E+03  0.12499703020E+03 0.  0.
          2    1    1    2  501    0 -0.89921261693E+02  0.61968105439E+02 -0.25287330948E+03  0.27544652847E+03  0.00000000000E+00 0. -1.
          1    1    1    2  502    0 -0.88847709306E+01 -0.43985779302E+02  0.46602504674E+03  0.46818055504E+03  0.00000000000E+00 0. -1.
         22    1    3    3    0    0  0.11851823901E+03 -0.45626148481E+01  0.28016671210E+02  0.12187011241E+03  0.00000000000E+00 0. -1.
         22    1    3    3    0    0 -0.19712206386E+02 -0.13419711288E+02  0.52267179244E+02  0.57450132792E+02  0.00000000000E+00 0. -1.
</event>
<event>
 7    1  0.5854318E-006  0.1223539E+03  0.7818608E-02  0.1438931E+00
          2   -1    0    0  502    0  0.00000000000E+00  0.00000000000E+00  0.19008790176E+04  0.19008790176E+04  0.00000000000E+00 0. -1.
          1   -1    0    0  501    0 -0.00000000000E+00 -0.00000000000E+00 -0.65790156176E+02  0.65790156176E+02  0.00000000000E+00 0. -1.
         25    2    1    2    0    0  0.74893270157E+02 -0.80599054345E+02  0.57657902303E+03  0.60014364868E+03  0.12499527902E+03 0.  0.
          2    1    1    2  501    0 -0.14328458482E+01 -0.21384163749E+02 -0.48741837870E+02  0.53245678373E+02  0.00000000000E+00 0. -1.
          1    1    1    2  502    0 -0.73460424309E+02  0.10198321809E+03  0.13072516762E+04  0.13132798467E+04  0.00000000000E+00 0. -1.
         22    1    3    3    0    0  0.10432211400E+03 -0.84863952751E+02  0.42845262314E+03  0.44906196034E+03  0.00000000000E+00 0. -1.
         22    1    3    3    0    0 -0.29428843843E+02  0.42648984058E+01  0.14812639989E+03  0.15108168834E+03  0.00000000000E+00 0. -1.
</event>
<event>
 7    1  0.5854318E-006  0.1877212E+03  0.7818608E-02  0.1279778E+00
          2   -1    0    0  502    0  0.00000000000E+00  0.00000000000E+00  0.15689728521E+04  0.15689728521E+04  0.00000000000E+00 0. -1.
          1   -1    0    0  501    0 -0.00000000000E+00 -0.00000000000E+00 -0.96566340169E+03  0.96566340169E+03  0.00000000000E+00 0. -1.
         25    2    1    2    0    0  0.14564783239E+03 -0.34593747688E+02 -0.28239071860E+03  0.34319439996E+03  0.12501143848E+03 0.  0.
          2    1    1    2  501    0  0.23806761235E+02 -0.47948959898E+02 -0.64598656409E+03  0.64820097626E+03  0.00000000000E+00 0. -1.
          1    1    1    2  502    0 -0.16945459363E+03  0.82542707586E+02  0.15316867331E+04  0.15432408776E+04  0.00000000000E+00 0. -1.
         22    1    3    3    0    0  0.10152535193E+03  0.39318305883E+02 -0.15281108986E+03  0.18762877030E+03  0.00000000000E+00 0. -1.
         22    1    3    3    0    0  0.44122480467E+02 -0.73912053571E+02 -0.12957962874E+03  0.15556562966E+03  0.00000000000E+00 0. -1.
</event>
<event>
 7    1  0.5854318E-006  0.2457808E+03  0.7818608E-02  0.1289869E+00
          2   -1    0    0  502    0  0.00000000000E+00  0.00000000000E+00  0.57655661896E+03  0.57655661896E+03  0.00000000000E+00 0. -1.
          1   -1    0    0  501    0 -0.00000000000E+00 -0.00000000000E+00 -0.50110669629E+03  0.50110669629E+03  0.00000000000E+00 0. -1.
         25    2    1    2    0    0 -0.17779840740E+03 -0.18499246417E+03 -0.15425771307E+03  0.32442953072E+03  0.12499837154E+03 0.  0.
          2    1    1    2  501    0  0.14158525656E+03  0.19337824947E+03 -0.20594500407E+03  0.31599822301E+03  0.00000000000E+00 0. -1.
          1    1    1    2  502    0  0.36213150845E+02 -0.83857853063E+01  0.43565263981E+03  0.43723556152E+03  0.00000000000E+00 0. -1.
         22    1    3    3    0    0 -0.51806227185E+02 -0.14179929903E+03 -0.66755608476E+02  0.16506737304E+03  0.00000000000E+00 0. -1.
         22    1    3    3    0    0 -0.12599218021E+03 -0.43193165139E+02 -0.87502104595E+02  0.15936215767E+03  0.00000000000E+00 0. -1.
</event>
<event>
 7    1  0.6515357E-006  0.5545885E+02  0.7818608E-02  0.1448473E+00
          2   -1    0    0  502    0  0.00000000000E+00  0.00000000000E+00  0.30886094279E+04  0.30886094279E+04  0.00000000000E+00 0. -1.
          1   -1    0    0  501    0 -0.00000000000E+00 -0.00000000000E+00 -0.39365831542E+03  0.39365831542E+03  0.00000000000E+00 0. -1.
         25    2    1    2    0    0  0.68706223470E+02  0.67271592158E+02  0.35453032825E+02  0.16164231343E+03  0.12500123079E+03 0.  0.
          2    1    1    2  501    0 -0.30597657442E+02 -0.45185727278E+02 -0.32814804990E+03  0.33265463959E+03  0.00000000000E+00 0. -1.
          1    1    1    2  502    0 -0.38108566028E+02 -0.22085864879E+02  0.29876461296E+04  0.29879707903E+04  0.00000000000E+00 0. -1.
         22    1    3    3    0    0 -0.21797594906E+02 -0.19168909940E+02  0.20639804677E+02  0.35617183902E+02  0.00000000000E+00 0.  1.
         22    1    3    3    0    0  0.90503818376E+02  0.86440502098E+02  0.14813228148E+02  0.12602512952E+03  0.00000000000E+00 0.  1.
</event>
<event>
 7    1  0.6140875E-006  0.1313666E+03  0.7818608E-02  0.1248538E+00
          2   -1    0    0  502    0  0.00000000000E+00  0.00000000000E+00  0.10633871261E+04  0.10633871261E+04  0.00000000000E+00 0. -1.
          1   -1    0    0  501    0 -0.00000000000E+00 -0.00000000000E+00 -0.15660971991E+04  0.15660971991E+04  0.00000000000E+00 0. -1.
         25    2    1    2    0    0  0.19180388712E+03  0.38351445702E+02 -0.38929257192E+03  0.45324757606E+03  0.12500037659E+03 0.  0.
          2    1    1    2  501    0 -0.97213100246E+02 -0.81044598367E+02 -0.11387016221E+04  0.11457137504E+04  0.00000000000E+00 0. -1.
          1    1    1    2  502    0 -0.94590786870E+02  0.42693152665E+02  0.10252841209E+04  0.10305229987E+04  0.00000000000E+00 0. -1.
         22    1    3    3    0    0  0.13370963410E+03 -0.29214877284E+02 -0.18288030226E+03  0.22842281030E+03  0.00000000000E+00 0. -1.
         22    1    3    3    0    0  0.58094253012E+02  0.67566322986E+02 -0.20641226966E+03  0.22482476576E+03  0.00000000000E+00 0. -1.
</event>
<event>
 7    1  0.5854318E-006  0.8272890E+02  0.7818608E-02  0.1490052E+00
          2   -1    0    0  502    0  0.00000000000E+00  0.00000000000E+00  0.29319172451E+02  0.29319172451E+02  0.00000000000E+00 0. -1.
          1   -1    0    0  501    0 -0.00000000000E+00 -0.00000000000E+00 -0.18920134347E+04  0.18920134347E+04  0.00000000000E+00 0. -1.
         25    2    1    2    0    0  0.78919334449E+02 -0.13820244251E+02 -0.17222588435E+04  0.17286467370E+04  0.12499902738E+03 0.  0.
          2    1    1    2  501    0  0.36575640538E+01  0.21606462330E+02 -0.96239015298E+02  0.98702406530E+02  0.00000000000E+00 0. -1.
          1    1    1    2  502    0 -0.82576898503E+02 -0.77862180785E+01 -0.44196403484E+02  0.93983463648E+02  0.00000000000E+00 0. -1.
         22    1    3    3    0    0 -0.12289293702E+02 -0.35290033304E+02 -0.19702942950E+03  0.20054178936E+03  0.00000000000E+00 0. -1.
         22    1    3    3    0    0  0.91208628152E+02  0.21469789053E+02 -0.15252294140E+04  0.15281049477E+04  0.00000000000E+00 0. -1.
</event>
<event>
 7    1  0.5854318E-006  0.5988929E+02  0.7818608E-02  0.1423880E+00
          2   -1    0    0  502    0  0.00000000000E+00  0.00000000000E+00  0.63605034746E+03  0.63605034746E+03  0.00000000000E+00 0. -1.
          1   -1    0    0  501    0 -0.00000000000E+00 -0.00000000000E+00 -0.33165392598E+03  0.33165392598E+03  0.00000000000E+00 0. -1.
         25    2    1    2    0    0  0.10070956055E+03  0.32523789307E+02  0.19162114134E+03  0.25208083034E+03  0.12500348300E+03 0.  0.
          2    1    1    2  501    0 -0.47470434186E+02 -0.12412245491E+02 -0.29744977078E+03  0.30146952101E+03  0.00000000000E+00 0. -1.
          1    1    1    2  502    0 -0.53239126361E+02 -0.20111543816E+02  0.41022505093E+03  0.41415392209E+03  0.00000000000E+00 0. -1.
         22    1    3    3    0    0  0.13287181518E+02  0.66193440913E+02  0.10278788084E+03  0.12297751527E+03  0.00000000000E+00 0. -1.
         22    1    3    3    0    0  0.87422379029E+02 -0.33669651605E+02  0.88833260495E+02  0.12910331508E+03  0.00000000000E+00 0. -1.
</event>
<event>
 7    1  0.5854318E-006  0.1264066E+03  0.7818608E-02  0.1288359E+00
          2   -1    0    0  502    0  0.00000000000E+00  0.00000000000E+00  0.26375608721E+04  0.26375608721E+04  0.00000000000E+00 0. -1.
          1   -1    0    0  501    0 -0.00000000000E+00 -0.00000000000E+00 -0.64117082442E+03  0.64117082442E+03  0.00000000000E+00 0. -1.
         25    2    1    2    0    0 -0.53793529390E+02  0.19066000991E+03  0.76936663409E+03  0.80423442552E+03  0.12499204120E+03 0.  0.
          2    1    1    2  501    0  0.24657506770E+02 -0.12339289633E+03 -0.61665477597E+03  0.62936230601E+03  0.00000000000E+00 0. -1.
          1    1    1    2  502    0  0.29136022620E+02 -0.67267113578E+02  0.18436781895E+04  0.18451349650E+04  0.00000000000E+00 0. -1.
         22    1    3    3    0    0  0.52814534189E+01  0.79621939493E+02  0.50742815348E+03  0.51366416844E+03  0.00000000000E+00 0. -1.
         22    1    3    3    0    0 -0.59074982808E+02  0.11103807041E+03  0.26193848061E+03  0.29057025708E+03  0.00000000000E+00 0. -1.
</event>
<event>
 7    1  0.5854318E-006  0.1036613E+03  0.7818608E-02  0.1417675E+00
          2   -1    0    0  502    0  0.00000000000E+00  0.00000000000E+00  0.11523521930E+04  0.11523521930E+04  0.00000000000E+00 0. -1.
          1   -1    0    0  501    0 -0.00000000000E+00 -0.00000000000E+00 -0.15240467268E+03  0.15240467268E+03  0.00000000000E+00 0. -1.
         25    2    1    2    0    0  0.12166738434E+03 -0.37202296167E+02  0.36140798766E+02  0.18197794437E+03  0.12499140630E+03 0.  0.
          2    1    1    2  501    0 -0.19896272008E+02  0.22092970414E+02 -0.74070353166E+02  0.79814649029E+02  0.00000000000E+00 0. -1.
          1    1    1    2  502    0 -0.10177111233E+03  0.15109325753E+02  0.10378770747E+04  0.10429642723E+04  0.00000000000E+00 0. -1.
         22    1    3    3    0    0  0.10558848799E+02 -0.63169884787E+02  0.17181571152E+02  0.66310858984E+02  0.00000000000E+00 0.  1.
         22    1    3    3    0    0  0.11110853554E+03  0.25967588620E+02  0.18959227614E+02  0.11566708538E+03  0.00000000000E+00 0.  1.
</event>
<event>
 7    1  0.5854318E-006  0.7116396E+02  0.7818608E-02  0.1492503E+00
          2   -1    0    0  502    0  0.00000000000E+00  0.00000000000E+00  0.21412300310E+03  0.21412300310E+03  0.00000000000E+00 0. -1.
          1   -1    0    0  501    0 -0.00000000000E+00 -0.00000000000E+00 -0.69196422901E+03  0.69196422901E+03  0.00000000000E+00 0. -1.
         25    2    1    2    0    0  0.30526785379E+02 -0.53823616910E+02  0.10008108518E+03  0.17166865361E+03  0.12500014664E+03 0.  0.
          2    1    1    2  501    0 -0.13217465846E+02 -0.21272699596E+02 -0.63688934648E+03  0.63738157238E+03  0.00000000000E+00 0. -1.
          1    1    1    2  502    0 -0.17309319532E+02  0.75096316506E+02  0.58967035381E+02  0.97037006121E+02  0.00000000000E+00 0. -1.
         22    1    3    3    0    0  0.19417834997E+02  0.26890567042E+02  0.81657054450E+02  0.88136425236E+02  0.00000000000E+00 0. -1.
         22    1    3    3    0    0  0.11108950381E+02 -0.80714183951E+02  0.18424030734E+02  0.83532228379E+02  0.00000000000E+00 0. -1.
</event>
<event>
 7    1  0.5854318E-006  0.7518909E+02  0.7818608E-02  0.1490633E+00
          2   -1    0    0  502    0  0.00000000000E+00  0.00000000000E+00  0.59498549149E+03  0.59498549149E+03  0.00000000000E+00 0. -1.
          1   -1    0    0  501    0 -0.00000000000E+00 -0.00000000000E+00 -0.27435364176E+03  0.27435364176E+03  0.00000000000E+00 0. -1.
         25    2    1    2    0    0  0.85323467803E+02  0.17281816759E+02  0.98140507718E+02  0.18120337783E+03  0.12499739810E+03 0.  0.
          2    1    1    2  501    0 -0.18388168711E+02  0.15444976291E+02 -0.22914244851E+03  0.23039733886E+03  0.00000000000E+00 0. -1.
          1    1    1    2  502    0 -0.66935299092E+02 -0.32726793049E+02  0.45163379053E+03  0.45773841656E+03  0.00000000000E+00 0. -1.
         22    1    3    3    0    0  0.81317304476E+02  0.60507789063E+02  0.40750937729E+02  0.10924438416E+03  0.00000000000E+00 0. -1.
         22    1    3    3    0    0  0.40061633273E+01 -0.43225972304E+02  0.57389569989E+02  0.71958993669E+02  0.00000000000E+00 0. -1.
</event>
<event>
 7    1  0.5854318E-006  0.5342698E+02  0.7818608E-02  0.1441995E+00
          2   -1    0    0  502    0  0.00000000000E+00  0.00000000000E+00  0.14816276467E+03  0.14816276467E+03  0.00000000000E+00 0. -1.
          1   -1    0    0  501    0 -0.00000000000E+00 -0.00000000000E+00 -0.95872942703E+03  0.95872942703E+03  0.00000000000E+00 0. -1.
         25    2    1    2    0    0  0.26979102460E+02 -0.16044876960E+02 -0.96496551944E+02  0.16100499476E+03  0.12500285498E+03 0.  0.
          2    1    1    2  501    0  0.21405924352E+02  0.42930833195E+02 -0.82263121814E+03  0.82402875623E+03  0.00000000000E+00 0. -1.
          1    1    1    2  502    0 -0.48385026812E+02 -0.26885956235E+02  0.10856110772E+03  0.12185844071E+03  0.00000000000E+00 0. -1.
         22    1    3    3    0    0 -0.27505698524E+02 -0.81524122879E+01 -0.10173526648E+03  0.10570283687E+03  0.00000000000E+00 0. -1.
         22    1    3    3    0    0  0.54484800984E+02 -0.78924646718E+01  0.52387145336E+01  0.55302157886E+02  0.00000000000E+00 0. -1.
</event>
<event>
 7    1  0.5854318E-006  0.1297029E+03  0.7818608E-02  0.1381939E+00
          2   -1    0    0  502    0  0.00000000000E+00  0.00000000000E+00  0.14258393007E+03  0.14258393007E+03  0.00000000000E+00 0. -1.
          1   -1    0    0  501    0 -0.00000000000E+00 -0.00000000000E+00 -0.12821076367E+04  0.12821076367E+04  0.00000000000E+00 0. -1.
         25    2    1    2    0    0  0.49216932626E+02 -0.12441937062E+03 -0.25435328111E+02  0.18483903497E+03  0.12496410161E+03 0.  0.
          2    1    1    2  501    0 -0.17936221587E+02  0.12843435382E+03 -0.11691922716E+04  0.11763620443E+04  0.00000000000E+00 0. -1.
          1    1    1    2  502    0 -0.31280711039E+02 -0.40149832034E+01  0.55103893068E+02  0.63490487512E+02  0.00000000000E+00 0. -1.
         22    1    3    3    0    0 -0.25905009613E+02 -0.76419269648E+02  0.22300112578E+02  0.83715406692E+02  0.00000000000E+00 0. -1.
         22    1    3    3    0    0  0.75121942239E+02 -0.48000100973E+02 -0.47735440689E+02  0.10112362828E+03  0.00000000000E+00 0. -1.
</event>
<event>
 7    1  0.5854318E-006  0.6579071E+02  0.7818608E-02  0.1474381E+00
          2   -1    0    0  502    0  0.00000000000E+00  0.00000000000E+00  0.39742788538E+03  0.39742788538E+03  0.00000000000E+00 0. -1.
          1   -1    0    0  501    0 -0.00000000000E+00 -0.00000000000E+00 -0.39672285806E+03  0.39672285806E+03  0.00000000000E+00 0. -1.
         25    2    1    2    0    0  0.63939317403E+01  0.46994969786E+02 -0.84693303323E+02  0.15826238039E+03  0.12499846348E+03 0.  0.
          2    1    1    2  501    0  0.29473551200E+02  0.88403486042E+01 -0.27131504932E+03  0.27305438647E+03  0.00000000000E+00 0. -1.
          1    1    1    2  502    0 -0.35867482940E+02 -0.55835318390E+02  0.35671337996E+03  0.36283397657E+03  0.00000000000E+00 0. -1.
         22    1    3    3    0    0 -0.34800492660E+02 -0.29852447051E+02 -0.36733974651E+02  0.58750555555E+02  0.00000000000E+00 0. -1.
         22    1    3    3    0    0  0.41194424400E+02  0.76847416837E+02 -0.47959328672E+02  0.99511824839E+02  0.00000000000E+00 0. -1.
</event>
<event>
 7    1  0.5854318E-006  0.4796115E+02  0.7818608E-02  0.1551962E+00
          2   -1    0    0  502    0  0.00000000000E+00  0.00000000000E+00  0.71979463329E+03  0.71979463329E+03  0.00000000000E+00 0. -1.
          1   -1    0    0  501    0 -0.00000000000E+00 -0.00000000000E+00 -0.12987768892E+04  0.12987768892E+04  0.00000000000E+00 0. -1.
         25    2    1    2    0    0  0.68244304328E+02  0.16788450376E+01  0.83714484736E+02  0.16520520940E+03  0.12499817065E+03 0.  0.
          2    1    1    2  501    0 -0.46639646362E+02  0.10892706012E+02 -0.12573130025E+04  0.12582248980E+04  0.00000000000E+00 0. -1.
          1    1    1    2  502    0 -0.21604657966E+02 -0.12571551049E+02  0.59461626184E+03  0.59514141512E+03  0.00000000000E+00 0. -1.
         22    1    3    3    0    0  0.18457728963E+02  0.43863803594E+02 -0.12264300893E+02  0.49144013884E+02  0.00000000000E+00 0.  1.
         22    1    3    3    0    0  0.49786575365E+02 -0.42184958556E+02  0.95978785629E+02  0.11606119552E+03  0.00000000000E+00 0.  1.
</event>
<event>
 7    1  0.5854318E-006  0.8419167E+02  0.7818608E-02  0.1358865E+00
          2   -1    0    0  502    0  0.00000000000E+00  0.00000000000E+00  0.44873079173E+03  0.44873079173E+03  0.00000000000E+00 0. -1.
          1   -1    0    0  501    0 -0.00000000000E+00 -0.00000000000E+00 -0.93693106209E+02  0.93693106209E+02  0.00000000000E+00 0. -1.
         25    2    1    2    0    0  0.18020140103E+02 -0.34139260927E+02  0.10315076018E+03  0.16659903717E+03  0.12499978109E+03 0.  0.
          2    1    1    2  501    0  0.45982475781E+02 -0.36654952616E+02 -0.38413492477E+02  0.70239376666E+02  0.00000000000E+00 0. -1.
          1    1    1    2  502    0 -0.64002615884E+02  0.70794213542E+02  0.29030041782E+03  0.30558548411E+03  0.00000000000E+00 0. -1.
         22    1    3    3    0    0  0.42594677116E+02 -0.79682654887E+01 -0.12826864005E+02  0.45192125572E+02  0.00000000000E+00 0.  1.
         22    1    3    3    0    0 -0.24574537013E+02 -0.26170995438E+02  0.11597762418E+03  0.12140691159E+03  0.00000000000E+00 0.  1.
</event>
<event>
 7    1  0.5854318E-006  0.8557395E+02  0.7818608E-02  0.1400107E+00
          2   -1    0    0  502    0  0.00000000000E+00  0.00000000000E+00  0.34828097699E+03  0.34828097699E+03  0.00000000000E+00 0. -1.
          1   -1    0    0  501    0 -0.00000000000E+00 -0.00000000000E+00 -0.78008212745E+03  0.78008212745E+03  0.00000000000E+00 0. -1.
         25    2    1    2    0    0 -0.61200243716E+02  0.89033597399E+02  0.98139369460E+02  0.19216973989E+03  0.12500168717E+03 0.  0.
          2    1    1    2  501    0 -0.57962793732E+01 -0.40908065247E+02 -0.72407884254E+03  0.72525666965E+03  0.00000000000E+00 0. -1.
          1    1    1    2  502    0  0.66996523089E+02 -0.48125532152E+02  0.19413832262E+03  0.21093669491E+03  0.00000000000E+00 0. -1.
         22    1    3    3    0    0  0.26519246987E+02  0.50864870292E+02  0.32928388036E+01  0.57457360521E+02  0.00000000000E+00 0. -1.
         22    1    3    3    0    0 -0.87719490703E+02  0.38168727107E+02  0.94846530656E+02  0.13471237937E+03  0.00000000000E+00 0. -1.
</event>
<event>
 7    1  0.5854318E-006  0.1130088E+03  0.7818608E-02  0.1285943E+00
          2   -1    0    0  502    0  0.00000000000E+00  0.00000000000E+00  0.41384465269E+04  0.41384465269E+04  0.00000000000E+00 0. -1.
          1   -1    0    0  501    0 -0.00000000000E+00 -0.00000000000E+00 -0.10193131903E+02  0.10193131903E+02  0.00000000000E+00 0. -1.
         25    2    1    2    0    0 -0.39757601207E+02 -0.11558369843E+03  0.27364280717E+04  0.27420081994E+04  0.12502046268E+03 0.  0.
          2    1    1    2  501    0  0.83464156106E+02  0.83557129639E+01  0.72385912006E+03  0.72870303209E+03  0.00000000000E+00 0. -1.
          1    1    1    2  502    0 -0.43706554898E+02  0.10722798547E+03  0.66796620325E+03  0.67792842726E+03  0.00000000000E+00 0. -1.
         22    1    3    3    0    0 -0.15404930077E+02 -0.11142111285E+03  0.11720380653E+04  0.11774231197E+04  0.00000000000E+00 0. -1.
         22    1    3    3    0    0 -0.24352671130E+02 -0.41625855858E+01  0.15643900064E+04  0.15645850797E+04  0.00000000000E+00 0. -1.
</event>
<event>
 7    1  0.5854318E-006  0.2808638E+02  0.7818608E-02  0.1673370E+00
          2   -1    0    0  502    0  0.00000000000E+00  0.00000000000E+00  0.14944392032E+04  0.14944392032E+04  0.00000000000E+00 0. -1.
          1   -1    0    0  501    0 -0.00000000000E+00 -0.00000000000E+00 -0.28053585045E+03  0.28053585045E+03  0.00000000000E+00 0. -1.
         25    2    1    2    0    0 -0.42118897988E+00 -0.73422861334E+01 -0.10768326849E+03  0.16515076914E+03  0.12500001468E+03 0.  0.
          2    1    1    2  501    0 -0.33562503792E+01 -0.20509611941E+02 -0.14323409117E+03  0.14473394029E+03  0.00000000000E+00 0. -1.
          1    1    1    2  502    0  0.37774393591E+01  0.27851898075E+02  0.14648207124E+04  0.14650903442E+04  0.00000000000E+00 0. -1.
         22    1    3    3    0    0 -0.45353483265E+02  0.89287517213E+01  0.12028627379E+01  0.46239679177E+02  0.00000000000E+00 0.  1.
         22    1    3    3    0    0  0.44932294285E+02 -0.16271037855E+02 -0.10888613122E+03  0.11891108996E+03  0.00000000000E+00 0.  1.
</event>
<event>
 7    1  0.5854318E-006  0.3369718E+02  0.7818608E-02  0.1635042E+00
          2   -1    0    0  502    0  0.00000000000E+00  0.00000000000E+00  0.54969891595E+03  0.54969891595E+03  0.00000000000E+00 0. -1.
          1   -1    0    0  501    0 -0.00000000000E+00 -0.00000000000E+00 -0.86446879918E+03  0.86446879918E+03  0.00000000000E+00 0. -1.
         25    2    1    2    0    0  0.31986385508E+02  0.14407074976E+02 -0.24626688103E+02  0.13214565816E+03  0.12500123414E+03 0.  0.
          2    1    1    2  501    0 -0.32987830966E+02  0.70532985334E+01 -0.78548778003E+03  0.78621180263E+03  0.00000000000E+00 0. -1.
          1    1    1    2  502    0  0.10014454581E+01 -0.21460373509E+02  0.49534458490E+03  0.49581025434E+03  0.00000000000E+00 0. -1.
         22    1    3    3    0    0  0.11196165175E+02 -0.48988817325E+02 -0.39346571628E+02  0.63823279737E+02  0.00000000000E+00 0. -1.
         22    1    3    3    0    0  0.20790220333E+02  0.63395892301E+02  0.14719883524E+02  0.68322378421E+02  0.00000000000E+00 0. -1.
</event>
<event>
 7    1  0.5854318E-006  0.9743056E+02  0.7818608E-02  0.1375760E+00
          2   -1    0    0  502    0  0.00000000000E+00  0.00000000000E+00  0.10868041905E+04  0.10868041905E+04  0.00000000000E+00 0. -1.
          1   -1    0    0  501    0 -0.00000000000E+00 -0.00000000000E+00 -0.10332528284E+04  0.10332528284E+04  0.00000000000E+00 0. -1.
         25    2    1    2    0    0  0.45372704041E+02 -0.92616895246E+02  0.23798988150E+03  0.28792248984E+03  0.12499441949E+03 0.  0.
          2    1    1    2  501    0  0.30956537702E+02  0.31488572157E+02 -0.10048980882E+04  0.10058677870E+04  0.00000000000E+00 0. -1.
          1    1    1    2  502    0 -0.76329241743E+02  0.61128323089E+02  0.82045956875E+03  0.82626674203E+03  0.00000000000E+00 0. -1.
         22    1    3    3    0    0 -0.15066007436E+02  0.19546720404E+02  0.86625114934E+02  0.90072023381E+02  0.00000000000E+00 0. -1.
         22    1    3    3    0    0  0.60438711477E+02 -0.11216361565E+03  0.15136476656E+03  0.19785046646E+03  0.00000000000E+00 0. -1.
</event>
<event>
 7    1  0.5854318E-006  0.4965816E+02  0.7818608E-02  0.1451816E+00
          2   -1    0    0  502    0  0.00000000000E+00  0.00000000000E+00  0.19543433336E+04  0.19543433336E+04  0.00000000000E+00 0. -1.
          1   -1    0    0  501    0 -0.00000000000E+00 -0.00000000000E+00 -0.37701451708E+03  0.37701451708E+03  0.00000000000E+00 0. -1.
         25    2    1    2    0    0 -0.72889135322E+00  0.36664390059E+01 -0.13154157280E+02  0.12574716228E+03  0.12500137163E+03 0.  0.
          2    1    1    2  501    0  0.28646058771E+02 -0.42706518764E+02 -0.30510847692E+03  0.30941174205E+03  0.00000000000E+00 0. -1.
          1    1    1    2  502    0 -0.27917167418E+02  0.39040079758E+02  0.18955914507E+04  0.18961989463E+04  0.00000000000E+00 0. -1.
         22    1    3    3    0    0 -0.15855522180E+02 -0.44054169027E+02 -0.46188870892E+02  0.65769135516E+02  0.00000000000E+00 0. -1.
         22    1    3    3    0    0  0.15126630827E+02  0.47720608033E+02  0.33034713613E+02  0.59978026765E+02  0.00000000000E+00 0. -1.
</event>
<event>
 7    1  0.5854318E-006  0.6916855E+02  0.7818608E-02  0.1417261E+00
          2   -1    0    0  502    0  0.00000000000E+00  0.00000000000E+00  0.14466883529E+04  0.14466883529E+04  0.00000000000E+00 0. -1.
          1   -1    0    0  501    0 -0.00000000000E+00 -0.00000000000E+00 -0.21056764407E+04  0.21056764407E+04  0.00000000000E+00 0. -1.
         25    2    1    2    0    0 -0.59645288932E+02  0.30529044616E+01  0.69475320922E+03  0.70842152260E+03  0.12494859444E+03 0.  0.
          2    1    1    2  501    0  0.50878818254E+02 -0.46885463677E+02 -0.20976009773E+04  0.20987417089E+04  0.00000000000E+00 0. -1.
          1    1    1    2  502    0  0.87664706780E+01  0.43832559215E+02  0.74385968029E+03  0.74520156214E+03  0.00000000000E+00 0. -1.
         22    1    3    3    0    0 -0.67764022648E+02  0.39844780411E+02  0.24982585420E+03  0.26190175013E+03  0.00000000000E+00 0. -1.
         22    1    3    3    0    0  0.81187337155E+01 -0.36791875949E+02  0.44492735501E+03  0.44651977248E+03  0.00000000000E+00 0. -1.
</event>
<event>
 7    1  0.5854318E-006  0.1579244E+03  0.7818608E-02  0.1213512E+00
          2   -1    0    0  502    0  0.00000000000E+00  0.00000000000E+00  0.24490789735E+04  0.24490789735E+04  0.00000000000E+00 0. -1.
          1   -1    0    0  501    0 -0.00000000000E+00 -0.00000000000E+00 -0.14725203460E+04  0.14725203460E+04  0.00000000000E+00 0. -1.
         25    2    1    2    0    0 -0.14083542543E+03 -0.14906804733E+03  0.65713487351E+03  0.69964802373E+03  0.12500086137E+03 0.  0.
          2    1    1    2  501    0  0.17216641238E+02  0.15694539133E+03 -0.14447914848E+04  0.14533928248E+04  0.00000000000E+00 0. -1.
          1    1    1    2  502    0  0.12361878419E+03 -0.78773440089E+01  0.17642152388E+04  0.17685584710E+04  0.00000000000E+00 0. -1.
         22    1    3    3    0    0 -0.47883091114E+02 -0.78860322232E+02  0.47187205526E+03  0.48080659040E+03  0.00000000000E+00 0.  1.
         22    1    3    3    0    0 -0.92952334317E+02 -0.70207725094E+02  0.18526281824E+03  0.21884143333E+03  0.00000000000E+00 0.  1.
</event>
<event>
 7    1  0.5854318E-006  0.3954336E+03  0.7818608E-02  0.1185802E+00
          2   -1    0    0  502    0  0.00000000000E+00  0.00000000000E+00  0.14134531139E+04  0.14134531139E+04  0.00000000000E+00 0. -1.
          1   -1    0    0  501    0 -0.00000000000E+00 -0.00000000000E+00 -0.23163072503E+04  0.23163072503E+04  0.00000000000E+00 0. -1.
         25    2    1    2    0    0 -0.34248918793E+03  0.33251652561E+02 -0.93814243608E+03  0.10070454722E+04  0.12499934572E+03 0.  0.
          2    1    1    2  501    0 -0.54475629969E+02 -0.38752657421E+02 -0.13142726222E+04  0.13159718417E+04  0.00000000000E+00 0. -1.
          1    1    1    2  502    0  0.39696481790E+03  0.55010048600E+01  0.13495609219E+04  0.14067430503E+04  0.00000000000E+00 0. -1.
         22    1    3    3    0    0 -0.13937058258E+03  0.74528614801E+02 -0.43876352799E+03  0.46636049061E+03  0.00000000000E+00 0.  1.
         22    1    3    3    0    0 -0.20311860535E+03 -0.41276962241E+02 -0.49937890810E+03  0.54068498158E+03  0.00000000000E+00 0.  1.
</event>
<event>
 7    1  0.5854318E-006  0.2957173E+02  0.7818608E-02  0.1642047E+00
          2   -1    0    0  502    0  0.00000000000E+00  0.00000000000E+00  0.41197467547E+03  0.41197467547E+03  0.00000000000E+00 0. -1.
          1   -1    0    0  501    0 -0.00000000000E+00 -0.00000000000E+00 -0.55542316114E+02  0.55542316114E+02  0.00000000000E+00 0. -1.
         25    2    1    2    0    0  0.29247075898E+02  0.17143895543E+02  0.85781732654E+02  0.15533153787E+03  0.12498030403E+03 0.  0.
          2    1    1    2  501    0 -0.20649855750E+02  0.11255014503E+02 -0.13077970543E+02  0.26909574643E+02  0.00000000000E+00 0. -1.
          1    1    1    2  502    0 -0.85972201473E+01 -0.28398910046E+02  0.28372859725E+03  0.28527587907E+03  0.00000000000E+00 0. -1.
         22    1    3    3    0    0  0.28723196120E+02 -0.24876165602E+02  0.10310021350E+03  0.10987947777E+03  0.00000000000E+00 0.  1.
         22    1    3    3    0    0  0.52387977793E+00  0.42020061145E+02 -0.17318480846E+02  0.45452060102E+02  0.00000000000E+00 0.  1.
</event>
<event>
 7    1  0.5854318E-006  0.7299452E+02  0.7818608E-02  0.1428644E+00
          2   -1    0    0  502    0  0.00000000000E+00  0.00000000000E+00  0.86931909444E+03  0.86931909444E+03  0.00000000000E+00 0. -1.
          1   -1    0    0  501    0 -0.00000000000E+00 -0.00000000000E+00 -0.21639118417E+03  0.21639118417E+03  0.00000000000E+00 0. -1.
         25    2    1    2    0    0  0.62783292066E+02 -0.45142261063E+02 -0.80573978953E+02  0.16762086631E+03  0.12500009297E+03 0.  0.
          2    1    1    2  501    0 -0.32438100164E+02 -0.21328165402E+02 -0.86513674350E+02  0.94824769081E+02  0.00000000000E+00 0. -1.
          1    1    1    2  502    0 -0.30345191903E+02  0.66470426466E+02  0.82001556358E+03  0.82326464322E+03  0.00000000000E+00 0. -1.
         22    1    3    3    0    0 -0.11694770688E+00  0.12073642160E+02 -0.81696040359E+02  0.82583470029E+02  0.00000000000E+00 0.  1.
         22    1    3    3    0    0  0.62900239773E+02 -0.57215903223E+02  0.11220614055E+01  0.85037396286E+02  0.00000000000E+00 0.  1.
</event>
<event>
 7    1  0.5854318E-006  0.1184136E+03  0.7818608E-02  0.1327808E+00
          2   -1    0    0  502    0  0.00000000000E+00  0.00000000000E+00  0.14773456894E+03  0.14773456894E+03  0.00000000000E+00 0. -1.
          1   -1    0    0  501    0 -0.00000000000E+00 -0.00000000000E+00 -0.58604209146E+03  0.58604209146E+03  0.00000000000E+00 0. -1.
         25    2    1    2    0    0 -0.28585066078E+02  0.74299345215E+02 -0.66544239734E+02  0.16242964695E+03  0.12497101930E+03 0.  0.
          2    1    1    2  501    0 -0.12648345898E+02  0.53159791351E+02 -0.42403937192E+03  0.42754570868E+03  0.00000000000E+00 0. -1.
          1    1    1    2  502    0  0.41233411976E+02 -0.12745913657E+03  0.52276089133E+02  0.14380130477E+03  0.00000000000E+00 0. -1.
         22    1    3    3    0    0 -0.21249072489E+02 -0.14807350389E+02 -0.68256588270E+02  0.73005085778E+02  0.00000000000E+00 0.  1.
         22    1    3    3    0    0 -0.73359935899E+01  0.89106695604E+02  0.17123485361E+01  0.89424561173E+02  0.00000000000E+00 0.  1.
</event>
<event>
 7    1  0.5854318E-006  0.5963840E+02  0.7818608E-02  0.1546971E+00
          2   -1    0    0  502    0  0.00000000000E+00  0.00000000000E+00  0.11394971901E+04  0.11394971901E+04  0.00000000000E+00 0. -1.
          1   -1    0    0  501    0 -0.00000000000E+00 -0.00000000000E+00 -0.13995187406E+04  0.13995187406E+04  0.00000000000E+00 0. -1.
         25    2    1    2    0    0  0.48522787696E+02 -0.58559703876E+02 -0.12084678807E+04  0.12172932105E+04  0.12499776683E+03 0.  0.
          2    1    1    2  501    0 -0.25361992267E+01  0.20601676534E+02 -0.18527511874E+03  0.18643425384E+03  0.00000000000E+00 0. -1.
          1    1    1    2  502    0 -0.45986588469E+02  0.37958027342E+02  0.11337214489E+04  0.11352884663E+04  0.00000000000E+00 0. -1.
         22    1    3    3    0    0  0.68840835285E+02  0.14612373634E+02 -0.58157224296E+03  0.58581469413E+03  0.00000000000E+00 0. -1.
         22    1    3    3    0    0 -0.20318047589E+02 -0.73172077510E+02 -0.62689563772E+03  0.63147851633E+03  0.00000000000E+00 0. -1.
</event>
<event>
 7    1  0.5854318E-006  0.8112497E+02  0.7818608E-02  0.1327684E+00
          2   -1    0    0  502    0  0.00000000000E+00  0.00000000000E+00  0.20611152651E+03  0.20611152651E+03  0.00000000000E+00 0. -1.
          1   -1    0    0  501    0 -0.00000000000E+00 -0.00000000000E+00 -0.10861798934E+04  0.10861798934E+04  0.00000000000E+00 0. -1.
         25    2    1    2    0    0  0.27877507028E+02 -0.51647208964E+02 -0.17286468135E+03  0.22125970587E+03  0.12501627811E+03 0.  0.
          2    1    1    2  501    0 -0.84162979732E+02 -0.67754406814E+01 -0.87794595941E+03  0.88199683752E+03  0.00000000000E+00 0. -1.
          1    1    1    2  502    0  0.56285472703E+02  0.58422649645E+02  0.17074227391E+03  0.18903487648E+03  0.00000000000E+00 0. -1.
         22    1    3    3    0    0  0.70394282303E+02 -0.62599374533E+02 -0.11820739008E+03  0.15115231967E+03  0.00000000000E+00 0. -1.
         22    1    3    3    0    0 -0.42516775274E+02  0.10952165570E+02 -0.54657291272E+02  0.70107386199E+02  0.00000000000E+00 0. -1.
</event>
<event>
 7    1  0.5854318E-006  0.3813138E+02  0.7818608E-02  0.1555630E+00
          2   -1    0    0  502    0  0.00000000000E+00  0.00000000000E+00  0.10804926555E+03  0.10804926555E+03  0.00000000000E+00 0. -1.
          1   -1    0    0  501    0 -0.00000000000E+00 -0.00000000000E+00 -0.12622195656E+04  0.12622195656E+04  0.00000000000E+00 0. -1.
         25    2    1    2    0    0 -0.43099728398E+02 -0.53163692876E+02 -0.46470830734E+03  0.48606955746E+03  0.12500335575E+03 0.  0.
          2    1    1    2  501    0  0.21137865502E+02  0.22279559651E+02 -0.78283068833E+03  0.78343287825E+03  0.00000000000E+00 0. -1.
          1    1    1    2  502    0  0.21961862896E+02  0.30884133225E+02  0.93368695669E+02  0.10076639538E+03  0.00000000000E+00 0. -1.
         22    1    3    3    0    0  0.20488551755E+02 -0.67226493694E+02 -0.31608768766E+03  0.32380643678E+03  0.00000000000E+00 0.  1.
         22    1    3    3    0    0 -0.63588280153E+02  0.14062800818E+02 -0.14862061968E+03  0.16226312068E+03  0.00000000000E+00 0.  1.
</event>
<event>
 7    1  0.5854318E-006  0.1248630E+03  0.7818608E-02  0.1318885E+00
          2   -1    0    0  502    0  0.00000000000E+00  0.00000000000E+00  0.49155156639E+03  0.49155156639E+03  0.00000000000E+00 0. -1.
          1   -1    0    0  501    0 -0.00000000000E+00 -0.00000000000E+00 -0.71595960392E+03  0.71595960392E+03  0.00000000000E+00 0. -1.
         25    2    1    2    0    0 -0.16660873443E+02  0.15182766013E+03  0.24603925396E+03  0.31541921256E+03  0.12499896831E+03 0.  0.
          2    1    1    2  501    0  0.55552932052E+02 -0.11139945959E+03 -0.67171509290E+03  0.68315235043E+03  0.00000000000E+00 0. -1.
          1    1    1    2  502    0 -0.38892058609E+02 -0.40428200538E+02  0.20126780142E+03  0.20893960732E+03  0.00000000000E+00 0. -1.
         22    1    3    3    0    0  0.31218121708E+02  0.52856416594E+02  0.17263063976E+03  0.18322038555E+03  0.00000000000E+00 0.  1.
         22    1    3    3    0    0 -0.47878995151E+02  0.98971243537E+02  0.73408614202E+02  0.13219882701E+03  0.00000000000E+00 0.  1.
</event>
<event>
 7    1  0.5854318E-006  0.5095721E+02  0.7818608E-02  0.1561496E+00
          2   -1    0    0  502    0  0.00000000000E+00  0.00000000000E+00  0.12956868599E+03  0.12956868599E+03  0.00000000000E+00 0. -1.
          1   -1    0    0  501    0 -0.00000000000E+00 -0.00000000000E+00 -0.16494597472E+03  0.16494597472E+03  0.00000000000E+00 0. -1.
         25    2    1    2    0    0  0.71075107368E+02 -0.67805405967E+01 -0.46684686752E+02  0.15133600218E+03  0.12500191583E+03 0.  0.
          2    1    1    2  501    0 -0.21924041649E+02  0.30929465847E+01 -0.55732464557E+02  0.59969471620E+02  0.00000000000E+00 0. -1.
          1    1    1    2  502    0 -0.49151065719E+02  0.36875940121E+01  0.67039862578E+02  0.83209186905E+02  0.00000000000E+00 0. -1.
         22    1    3    3    0    0  0.95528829946E+02  0.25191133263E+02 -0.14612000769E+02  0.99869220045E+02  0.00000000000E+00 0. -1.
         22    1    3    3    0    0 -0.24453722578E+02 -0.31971673860E+02 -0.32072685982E+02  0.51466782136E+02  0.00000000000E+00 0. -1.
</event>
<event>
 7    1  0.6223983E-006  0.5487099E+02  0.7818608E-02  0.1464489E+00
          2   -1    0    0  502    0  0.00000000000E+00  0.00000000000E+00  0.13698977190E+04  0.13698977190E+04  0.00000000000E+00 0. -1.
          1   -1    0    0  501    0 -0.00000000000E+00 -0.00000000000E+00 -0.13578526536E+04  0.13578526536E+04  0.00000000000E+00 0. -1.
         25    2    1    2    0    0 -0.42130238226E+02  0.35804282479E+02 -0.53650101137E+03  0.55363847269E+03  0.12500127850E+03 0.  0.
          2    1    1    2  501    0  0.78895733492E+01 -0.55708671584E+02 -0.81152057138E+03  0.81346870820E+03  0.00000000000E+00 0. -1.
          1    1    1    2  502    0  0.34240664876E+02  0.19904389104E+02  0.13600666481E+04  0.13606431917E+04  0.00000000000E+00 0. -1.
         22    1    3    3    0    0 -0.25325682728E+02  0.81670027736E+02 -0.28995170419E+03  0.30229683160E+03  0.00000000000E+00 0.  1.
         22    1    3    3    0    0 -0.16804555498E+02 -0.45865745257E+02 -0.24654930718E+03  0.25134164109E+03  0.00000000000E+00 0.  1.
</event>
<event>
 7    1  0.5854318E-006  0.7834143E+02  0.7818608E-02  0.1409851E+00
          2   -1    0    0  502    0  0.00000000000E+00  0.00000000000E+00  0.32459867184E+03  0.32459867184E+03  0.00000000000E+00 0. -1.
          1   -1    0    0  501    0 -0.00000000000E+00 -0.00000000000E+00 -0.83373221855E+02  0.83373221855E+02  0.00000000000E+00 0. -1.
         25    2    1    2    0    0  0.61205790390E+01  0.94647808197E+02  0.64970778282E+02  0.16982952068E+03  0.12500077991E+03 0.  0.
          2    1    1    2  501    0 -0.34812197958E+02 -0.23143829013E+02 -0.41161017585E+01  0.42005573936E+02  0.00000000000E+00 0. -1.
          1    1    1    2  502    0  0.28691618919E+02 -0.71503979185E+02  0.18037077346E+03  0.19613679908E+03  0.00000000000E+00 0. -1.
         22    1    3    3    0    0  0.28200406068E+02  0.11425992929E+02  0.77092067453E+02  0.82879449087E+02  0.00000000000E+00 0. -1.
         22    1    3    3    0    0 -0.22079827029E+02  0.83221815269E+02 -0.12121289171E+02  0.86950071589E+02  0.00000000000E+00 0. -1.
</event>
<event>
 7    1  0.5854318E-006  0.8038259E+02  0.7818608E-02  0.1370036E+00
          2   -1    0    0  502    0  0.00000000000E+00  0.00000000000E+00  0.36145044238E+03  0.36145044238E+03  0.00000000000E+00 0. -1.
          1   -1    0    0  501    0 -0.00000000000E+00 -0.00000000000E+00 -0.75999108827E+03  0.75999108827E+03  0.00000000000E+00 0. -1.
         25    2    1    2    0    0  0.73155245381E+01  0.27467846070E+02  0.73040857039E+02  0.14754538526E+03  0.12500669761E+03 0.  0.
          2    1    1    2  501    0 -0.48671471381E+02 -0.65385838655E+02 -0.71726779442E+03  0.72188455374E+03  0.00000000000E+00 0. -1.
          1    1    1    2  502    0  0.41355946843E+02  0.37917992585E+02  0.24568629149E+03  0.25201159165E+03  0.00000000000E+00 0. -1.
         22    1    3    3    0    0  0.62356568923E+02  0.16413689132E+02  0.13822354136E+02  0.65945495317E+02  0.00000000000E+00 0. -1.
         22    1    3    3    0    0 -0.55041044385E+02  0.11054156938E+02  0.59218502903E+02  0.81599889943E+02  0.00000000000E+00 0. -1.
</event>
<event>
 7    1  0.5854318E-006  0.6066771E+02  0.7818608E-02  0.1437001E+00
          2   -1    0    0  502    0  0.00000000000E+00  0.00000000000E+00  0.27268872363E+04  0.27268872363E+04  0.00000000000E+00 0. -1.
          1   -1    0    0  501    0 -0.00000000000E+00 -0.00000000000E+00 -0.34552793808E+03  0.34552793808E+03  0.00000000000E+00 0. -1.
         25    2    1    2    0    0  0.69127756625E+02 -0.76664545186E+02  0.41151360548E+02  0.16728358741E+03  0.12503705418E+03 0.  0.
          2    1    1    2  501    0 -0.39066582219E+02  0.44735246766E+02 -0.27915420541E+03  0.28540236606E+03  0.00000000000E+00 0. -1.
          1    1    1    2  502    0 -0.30061174406E+02  0.31929298419E+02  0.26193621431E+04  0.26197292209E+04  0.00000000000E+00 0. -1.
         22    1    3    3    0    0  0.68207086677E+01  0.89745798706E+01 -0.35045971155E+02  0.36814198956E+02  0.00000000000E+00 0. -1.
         22    1    3    3    0    0  0.62307047957E+02 -0.85639125056E+02  0.76197331703E+02  0.13046938846E+03  0.00000000000E+00 0. -1.
</event>
<event>
 7    1  0.5854318E-006  0.3545392E+02  0.7818608E-02  0.1548969E+00
          2   -1    0    0  502    0  0.00000000000E+00  0.00000000000E+00  0.24102307016E+04  0.24102307016E+04  0.00000000000E+00 0. -1.
          1   -1    0    0  501    0 -0.00000000000E+00 -0.00000000000E+00 -0.31029816308E+03  0.31029816308E+03  0.00000000000E+00 0. -1.
         25    2    1    2    0    0 -0.70122188691E+01 -0.13975202958E+02  0.28640866525E+03  0.31288919365E+03  0.12500098583E+03 0.  0.
          2    1    1    2  501    0 -0.28347598307E+02  0.19611052319E+02 -0.29590549554E+03  0.29790643161E+03  0.00000000000E+00 0. -1.
          1    1    1    2  502    0  0.35359817176E+02 -0.56358493603E+01  0.21094293689E+04  0.21097332395E+04  0.00000000000E+00 0. -1.
         22    1    3    3    0    0  0.16920358005E+02  0.29821898297E+02  0.15864555969E+02  0.37779998269E+02  0.00000000000E+00 0. -1.
         22    1    3    3    0    0 -0.23932576874E+02 -0.43797101256E+02  0.27054410928E+03  0.27510919538E+03  0.00000000000E+00 0. -1.
</event>
<event>
 7    1  0.5854318E-006  0.5128680E+02  0.7818608E-02  0.1565320E+00
          2   -1    0    0  502    0  0.00000000000E+00  0.00000000000E+00  0.20300376466E+03  0.20300376466E+03  0.00000000000E+00 0. -1.
          1   -1    0    0  501    0 -0.00000000000E+00 -0.00000000000E+00 -0.13031090427E+03  0.13031090427E+03  0.00000000000E+00 0. -1.
         25    2    1    2    0    0  0.39214481846E+02 -0.42541385279E+02 -0.43361673090E+01  0.13779866936E+03  0.12498850300E+03 0.  0.
          2    1    1    2  501    0 -0.18287011913E+02  0.47357055442E+02 -0.47276126325E+02  0.69369572761E+02  0.00000000000E+00 0. -1.
          1    1    1    2  502    0 -0.20927469933E+02 -0.48156701629E+01  0.12430515403E+03  0.12614642680E+03  0.00000000000E+00 0. -1.
         22    1    3    3    0    0  0.50048417927E+02  0.21475643986E+02  0.32228989164E+02  0.63283134910E+02  0.00000000000E+00 0.  1.
         22    1    3    3    0    0 -0.10833936081E+02 -0.64017029265E+02 -0.36565156473E+02  0.74515534453E+02  0.00000000000E+00 0.  1.
</event>
<event>
 7    1  0.5854318E-006  0.4560935E+03  0.7818608E-02  0.1178407E+00
          2   -1    0    0  502    0  0.00000000000E+00  0.00000000000E+00  0.44554664804E+04  0.44554664804E+04  0.00000000000E+00 0. -1.
          1   -1    0    0  501    0 -0.00000000000E+00 -0.00000000000E+00 -0.13064259155E+04  0.13064259155E+04  0.00000000000E+00 0. -1.
         25    2    1    2    0    0 -0.48201563805E+03 -0.15263207920E+03  0.17653438303E+03  0.54993188163E+03  0.12500023644E+03 0.  0.
          2    1    1    2  501    0  0.61221275722E+02 -0.14720678059E+02 -0.11063009076E+04  0.11080913505E+04  0.00000000000E+00 0. -1.
          1    1    1    2  502    0  0.42079436233E+03  0.16735275726E+03  0.40788070894E+04  0.41038691638E+04  0.00000000000E+00 0. -1.
         22    1    3    3    0    0 -0.35372817746E+03 -0.51913993290E+02  0.12842753027E+03  0.37988460980E+03  0.00000000000E+00 0. -1.
         22    1    3    3    0    0 -0.12828746059E+03 -0.10071808591E+03  0.48106852758E+02  0.17004727183E+03  0.00000000000E+00 0. -1.
</event>
<event>
 7    1  0.5854318E-006  0.9368464E+02  0.7818608E-02  0.1351895E+00
          2   -1    0    0  502    0  0.00000000000E+00  0.00000000000E+00  0.24125382120E+02  0.24125382120E+02  0.00000000000E+00 0. -1.
          1   -1    0    0  501    0 -0.00000000000E+00 -0.00000000000E+00 -0.23894790878E+04  0.23894790878E+04  0.00000000000E+00 0. -1.
         25    2    1    2    0    0  0.17394813897E+01  0.43705275326E+02 -0.11792041432E+04  0.11866194287E+04  0.12502032050E+03 0.  0.
          2    1    1    2  501    0  0.16427056519E+02  0.53595812048E+02 -0.10814555740E+04  0.10829074373E+04  0.00000000000E+00 0. -1.
          1    1    1    2  502    0 -0.18166537908E+02 -0.97301087374E+02 -0.10469398853E+03  0.14407760387E+03  0.00000000000E+00 0. -1.
         22    1    3    3    0    0 -0.35071023499E+02 -0.32458312186E+02 -0.44466470969E+03  0.44722502475E+03  0.00000000000E+00 0. -1.
         22    1    3    3    0    0  0.36810504889E+02  0.76163587512E+02 -0.73453943346E+03  0.73939440399E+03  0.00000000000E+00 0. -1.
</event>
<event>
 7    1  0.5854318E-006  0.5898918E+02  0.7818608E-02  0.1516880E+00
          2   -1    0    0  502    0  0.00000000000E+00  0.00000000000E+00  0.23064451901E+04  0.23064451901E+04  0.00000000000E+00 0. -1.
          1   -1    0    0  501    0 -0.00000000000E+00 -0.00000000000E+00 -0.25852175427E+02  0.25852175427E+02  0.00000000000E+00 0. -1.
         25    2    1    2    0    0 -0.21244499432E+02 -0.41192658202E+02  0.92170040388E+03  0.93129538127E+03  0.12502515273E+03 0.  0.
          2    1    1    2  501    0  0.46550887981E+02  0.37453981929E+02  0.21702435895E+02  0.63567142912E+02  0.00000000000E+00 0. -1.
          1    1    1    2  502    0 -0.25306388550E+02  0.37386762728E+01  0.13371901749E+04  0.13374348413E+04  0.00000000000E+00 0. -1.
         22    1    3    3    0    0  0.92038867979E+01 -0.47081885302E+02  0.12346296692E+03  0.13245572716E+03  0.00000000000E+00 0. -1.
         22    1    3    3    0    0 -0.30448386229E+02  0.58892271004E+01  0.79823743696E+03  0.79883965411E+03  0.00000000000E+00 0. -1.
</event>
<event>
 7    1  0.5854318E-006  0.1159348E+03  0.7818608E-02  0.1428871E+00
          2   -1    0    0  502    0  0.00000000000E+00  0.00000000000E+00  0.76775408906E+03  0.76775408906E+03  0.00000000000E+00 0. -1.
          1   -1    0    0  501    0 -0.00000000000E+00 -0.00000000000E+00 -0.26472049658E+03  0.26472049658E+03  0.00000000000E+00 0. -1.
         25    2    1    2    0    0 -0.84294702109E+02  0.42573650586E+02 -0.13515594908E+03  0.20690607752E+03  0.12499952726E+03 0.  0.
          2    1    1    2  501    0 -0.14038187344E+02  0.19958051341E+02 -0.87368565515E+02  0.90711965900E+02  0.00000000000E+00 0. -1.
          1    1    1    2  502    0  0.98332889453E+02 -0.62531701927E+02  0.72555810708E+03  0.73485654222E+03  0.00000000000E+00 0. -1.
         22    1    3    3    0    0 -0.47653928033E+02  0.22068104720E+02 -0.15264115967E+03  0.16142249449E+03  0.00000000000E+00 0.  1.
         22    1    3    3    0    0 -0.36640774075E+02  0.20505545866E+02  0.17485210584E+02  0.45483583030E+02  0.00000000000E+00 0.  1.
</event>
<event>
 7    1  0.5854318E-006  0.5552382E+02  0.7818608E-02  0.1476456E+00
          2   -1    0    0  502    0  0.00000000000E+00  0.00000000000E+00  0.27075384001E+02  0.27075384001E+02  0.00000000000E+00 0. -1.
          1   -1    0    0  501    0 -0.00000000000E+00 -0.00000000000E+00 -0.12141652197E+04  0.12141652197E+04  0.00000000000E+00 0. -1.
         25    2    1    2    0    0 -0.43111132071E+00  0.67938367228E+02 -0.33576967898E+03  0.36466565894E+03  0.12499583150E+03 0.  0.
          2    1    1    2  501    0  0.29498585077E+02 -0.46824244350E+02 -0.83548068859E+03  0.83731156530E+03  0.00000000000E+00 0. -1.
          1    1    1    2  502    0 -0.29067473757E+02 -0.21114122878E+02 -0.15839468125E+02  0.39263379452E+02  0.00000000000E+00 0. -1.
         22    1    3    3    0    0 -0.54040828424E+02  0.69729920738E+01 -0.19173597065E+03  0.19932816207E+03  0.00000000000E+00 0.  1.
         22    1    3    3    0    0  0.53609717103E+02  0.60965375155E+02 -0.14403370833E+03  0.16533749687E+03  0.00000000000E+00 0.  1.
</event>
<event>
 7    1  0.5854318E-006  0.6203190E+02  0.7818608E-02  0.1482876E+00
          2   -1    0    0  502    0  0.00000000000E+00  0.00000000000E+00  0.67851939518E+03  0.67851939518E+03  0.00000000000E+00 0. -1.
          1   -1    0    0  501    0 -0.00000000000E+00 -0.00000000000E+00 -0.32692263202E+02  0.32692263202E+02  0.00000000000E+00 0. -1.
         25    2    1    2    0    0 -0.14527248232E+02 -0.84162836521E+02  0.26362894292E+03  0.30400540027E+03  0.12499855941E+03 0.  0.
          2    1    1    2  501    0  0.93195263974E+00  0.56602497025E+02  0.56222581329E+02  0.79785273431E+02  0.00000000000E+00 0. -1.
          1    1    1    2  502    0  0.13595295593E+02  0.27560339496E+02  0.32597560774E+03  0.32742098469E+03  0.00000000000E+00 0. -1.
         22    1    3    3    0    0 -0.25363081497E+02 -0.15057658259E+02 -0.17641398062E+01  0.29548792946E+02  0.00000000000E+00 0. -1.
         22    1    3    3    0    0  0.10835833265E+02 -0.69105178262E+02  0.26539308272E+03  0.27445660732E+03  0.00000000000E+00 0. -1.
</event>
<event>
 7    1  0.5854318E-006  0.8440265E+02  0.7818608E-02  0.1416317E+00
          2   -1    0    0  502    0  0.00000000000E+00  0.00000000000E+00  0.83553601863E+03  0.83553601863E+03  0.00000000000E+00 0. -1.
          1   -1    0    0  501    0 -0.00000000000E+00 -0.00000000000E+00 -0.28289445954E+03  0.28289445954E+03  0.00000000000E+00 0. -1.
         25    2    1    2    0    0  0.49688439329E+02  0.64182596636E+02  0.17721219370E+03  0.23155155852E+03  0.12499446364E+03 0.  0.
          2    1    1    2  501    0 -0.75754677133E+02 -0.38063589275E+02 -0.24813762003E+03  0.26222106401E+03  0.00000000000E+00 0. -1.
          1    1    1    2  502    0  0.26066237804E+02 -0.26119007361E+02  0.62356698543E+03  0.62465785564E+03  0.00000000000E+00 0. -1.
         22    1    3    3    0    0  0.12613127615E+02 -0.37056888572E+02  0.31252501364E+02  0.50090146939E+02  0.00000000000E+00 0.  1.
         22    1    3    3    0    0  0.37075311714E+02  0.10123948521E+03  0.14595969234E+03  0.18146141158E+03  0.00000000000E+00 0.  1.
</event>
<event>
 7    1  0.5854318E-006  0.8933127E+02  0.7818608E-02  0.1332949E+00
          2   -1    0    0  502    0  0.00000000000E+00  0.00000000000E+00  0.97734105645E+02  0.97734105645E+02  0.00000000000E+00 0. -1.
          1   -1    0    0  501    0 -0.00000000000E+00 -0.00000000000E+00 -0.21010258975E+04  0.21010258975E+04  0.00000000000E+00 0. -1.
         25    2    1    2    0    0 -0.27381497852E+02 -0.42248098381E+02 -0.56889116311E+02  0.14627301812E+03  0.12499910414E+03 0.  0.
          2    1    1    2  501    0  0.89801599792E+02  0.12300065648E+02 -0.19753629108E+04  0.19774413388E+04  0.00000000000E+00 0. -1.
          1    1    1    2  502    0 -0.62420101940E+02  0.29948032733E+02  0.28960235271E+02  0.75045646228E+02  0.00000000000E+00 0. -1.
         22    1    3    3    0    0 -0.25841298609E+02 -0.39072531766E+02  0.32372151464E+02  0.56942002448E+02  0.00000000000E+00 0.  1.
         22    1    3    3    0    0 -0.15401992426E+01 -0.31755666146E+01 -0.89261267775E+02  0.89331015676E+02  0.00000000000E+00 0.  1.
</event>
<event>
 7    1  0.5854318E-006  0.9888812E+02  0.7818608E-02  0.1292955E+00
          2   -1    0    0  502    0  0.00000000000E+00  0.00000000000E+00  0.50847273862E+03  0.50847273862E+03  0.00000000000E+00 0. -1.
          1   -1    0    0  501    0 -0.00000000000E+00 -0.00000000000E+00 -0.96683126408E+03  0.96683126408E+03  0.00000000000E+00 0. -1.
         25    2    1    2    0    0 -0.14306254551E+03 -0.76320629312E+02 -0.12214683790E+03  0.23840451968E+03  0.12500053844E+03 0.  0.
          2    1    1    2  501    0  0.45484156243E+02  0.77384992648E+02 -0.77866045458E+03  0.78381716559E+03  0.00000000000E+00 0. -1.
          1    1    1    2  502    0  0.97578389264E+02 -0.10643633364E+01  0.44244876702E+03  0.45308231742E+03  0.00000000000E+00 0. -1.
         22    1    3    3    0    0 -0.27677565016E+02 -0.45899057754E+02 -0.10494930775E+03  0.11784366044E+03  0.00000000000E+00 0. -1.
         22    1    3    3    0    0 -0.11538498049E+03 -0.30421571557E+02 -0.17197530152E+02  0.12056085925E+03  0.00000000000E+00 0. -1.
</event>
<event>
 7    1  0.5854318E-006  0.1856043E+03  0.7818608E-02  0.1359819E+00
          2   -1    0    0  502    0  0.00000000000E+00  0.00000000000E+00  0.63574518575E+03  0.63574518575E+03  0.00000000000E+00 0. -1.
          1   -1    0    0  501    0 -0.00000000000E+00 -0.00000000000E+00 -0.16633072672E+04  0.16633072672E+04  0.00000000000E+00 0. -1.
         25    2    1    2    0    0  0.90056620347E+02  0.16420077662E+03 -0.88603850534E+02  0.24196850607E+03  0.12500410268E+03 0.  0.
          2    1    1    2  501    0 -0.65366637590E+02 -0.17371890303E+03 -0.14919540840E+04  0.15034553679E+04  0.00000000000E+00 0. -1.
          1    1    1    2  502    0 -0.24689982756E+02  0.95181264058E+01  0.55299585305E+03  0.55362857899E+03  0.00000000000E+00 0. -1.
         22    1    3    3    0    0  0.19108664130E+02  0.27715552059E+02  0.32042432302E+02  0.46475911380E+02  0.00000000000E+00 0. -1.
         22    1    3    3    0    0  0.70947956217E+02  0.13648522456E+03 -0.12064628284E+03  0.19549259469E+03  0.00000000000E+00 0. -1.
</event>
<event>
 7    1  0.5854318E-006  0.9912310E+02  0.7818608E-02  0.1410272E+00
          2   -1    0    0  502    0  0.00000000000E+00  0.00000000000E+00  0.33649483266E+04  0.33649483266E+04  0.00000000000E+00 0. -1.
          1   -1    0    0  501    0 -0.00000000000E+00 -0.00000000000E+00 -0.21620419060E+02  0.21620419060E+02  0.00000000000E+00 0. -1.
         25    2    1    2    0    0  0.16490809305E+02  0.12874150396E+03  0.51441984013E+03  0.54506802132E+03  0.12500021725E+03 0.  0.
          2    1    1    2  501    0 -0.93492030683E+01 -0.31575838033E+02  0.44352042748E+02  0.55240789653E+02  0.00000000000E+00 0. -1.
          1    1    1    2  502    0 -0.71416062369E+01 -0.97165665925E+02  0.27845560246E+04  0.27862599347E+04  0.00000000000E+00 0. -1.
         22    1    3    3    0    0  0.38151453436E+02  0.30161906099E+02  0.34071715946E+03  0.34417067965E+03  0.00000000000E+00 0. -1.
         22    1    3    3    0    0 -0.21660644131E+02  0.98579597859E+02  0.17370268067E+03  0.20089734167E+03  0.00000000000E+00 0. -1.
</event>
<event>
 7    1  0.5854318E-006  0.3650816E+02  0.7818608E-02  0.1615270E+00
          2   -1    0    0  502    0  0.00000000000E+00  0.00000000000E+00  0.12085614956E+03  0.12085614956E+03  0.00000000000E+00 0. -1.
          1   -1    0    0  501    0 -0.00000000000E+00 -0.00000000000E+00 -0.71916823085E+03  0.71916823085E+03  0.00000000000E+00 0. -1.
         25    2    1    2    0    0 -0.43358911955E+02  0.38415217556E+02 -0.60353195594E+02  0.15040669757E+03  0.12499576901E+03 0.  0.
          2    1    1    2  501    0  0.29615120863E+02 -0.20916611326E+02 -0.61160751931E+03  0.61268125293E+03  0.00000000000E+00 0. -1.
          1    1    1    2  502    0  0.13743791092E+02 -0.17498606230E+02  0.73648633612E+02  0.76936429905E+02  0.00000000000E+00 0. -1.
         22    1    3    3    0    0 -0.16662977592E+01 -0.18486313094E+02  0.30304914291E+02  0.35537419015E+02  0.00000000000E+00 0.  1.
         22    1    3    3    0    0 -0.41692614196E+02  0.56901530651E+02 -0.90658109885E+02  0.11486927856E+03  0.00000000000E+00 0.  1.
</event>
<event>
 7    1  0.5854318E-006  0.3908286E+02  0.7818608E-02  0.1608238E+00
          2   -1    0    0  502    0  0.00000000000E+00  0.00000000000E+00  0.68672933434E+03  0.68672933434E+03  0.00000000000E+00 0. -1.
          1   -1    0    0  501    0 -0.00000000000E+00 -0.00000000000E+00 -0.14828548458E+04  0.14828548458E+04  0.00000000000E+00 0. -1.
         25    2    1    2    0    0 -0.70277949797E+01 -0.16801128855E+02 -0.23988137960E+03  0.27110662876E+03  0.12499624013E+03 0.  0.
          2    1    1    2  501    0 -0.13082068162E+00 -0.21668859816E+02 -0.12266946849E+04  0.12268860610E+04  0.00000000000E+00 0. -1.
          1    1    1    2  502    0  0.71586156613E+01  0.38469988671E+02  0.67045055309E+03  0.67159149038E+03  0.00000000000E+00 0. -1.
         22    1    3    3    0    0  0.41060491220E+02  0.27779936235E+02 -0.16136772392E+03  0.16881122925E+03  0.00000000000E+00 0.  1.
         22    1    3    3    0    0 -0.48088286200E+02 -0.44581065090E+02 -0.78513655679E+02  0.10229539952E+03  0.00000000000E+00 0.  1.
</event>
<event>
 7    1  0.5854318E-006  0.2008124E+03  0.7818608E-02  0.1356531E+00
          2   -1    0    0  502    0  0.00000000000E+00  0.00000000000E+00  0.38119894114E+03  0.38119894114E+03  0.00000000000E+00 0. -1.
          1   -1    0    0  501    0 -0.00000000000E+00 -0.00000000000E+00 -0.61816602605E+03  0.61816602605E+03  0.00000000000E+00 0. -1.
         25    2    1    2    0    0 -0.12735784166E+03  0.13160042876E+03 -0.61802708969E+01  0.22181425044E+03  0.12499869307E+03 0.  0.
          2    1    1    2  501    0  0.15202978381E+03 -0.13645043234E+03 -0.48282413715E+03  0.52426226554E+03  0.00000000000E+00 0. -1.
          1    1    1    2  502    0 -0.24671942153E+02  0.48500035845E+01  0.25203732313E+03  0.25328845121E+03  0.00000000000E+00 0. -1.
         22    1    3    3    0    0 -0.84028731537E+02  0.27347952734E+01  0.10953871398E+02  0.84783808169E+02  0.00000000000E+00 0.  1.
         22    1    3    3    0    0 -0.43329110123E+02  0.12886563348E+03 -0.17134142295E+02  0.13703044227E+03  0.00000000000E+00 0.  1.
</event>
<event>
 7    1  0.5854318E-006  0.5200650E+03  0.7818608E-02  0.1197158E+00
          2   -1    0    0  502    0  0.00000000000E+00  0.00000000000E+00  0.15090367625E+04  0.15090367625E+04  0.00000000000E+00 0. -1.
          1   -1    0    0  501    0 -0.00000000000E+00 -0.00000000000E+00 -0.49997984279E+03  0.49997984279E+03  0.00000000000E+00 0. -1.
         25    2    1    2    0    0  0.29690958391E+03  0.47042876783E+03  0.60223167404E+03  0.82931706160E+03  0.12500109127E+03 0.  0.
          2    1    1    2  501    0 -0.27463050991E+03 -0.43150002177E+03 -0.21602919579E+03  0.55523220295E+03  0.00000000000E+00 0. -1.
          1    1    1    2  502    0 -0.22279074001E+02 -0.38928746059E+02  0.62285444146E+03  0.62446734074E+03  0.00000000000E+00 0. -1.
         22    1    3    3    0    0  0.11444900827E+03  0.19298243351E+03  0.33441910313E+03  0.40271197111E+03  0.00000000000E+00 0.  1.
         22    1    3    3    0    0  0.18246057564E+03  0.27744633433E+03  0.26781257091E+03  0.42660509049E+03  0.00000000000E+00 0.  1.
</event>
<event>
 7    1  0.5854318E-006  0.7553076E+02  0.7818608E-02  0.1464453E+00
          2   -1    0    0  502    0  0.00000000000E+00  0.00000000000E+00  0.12352872566E+04  0.12352872566E+04  0.00000000000E+00 0. -1.
          1   -1    0    0  501    0 -0.00000000000E+00 -0.00000000000E+00 -0.10491462221E+04  0.10491462221E+04  0.00000000000E+00 0. -1.
         25    2    1    2    0    0 -0.12392257276E+02 -0.10039849439E+03  0.15760722632E+03  0.22516138901E+03  0.12499675033E+03 0.  0.
          2    1    1    2  501    0 -0.17463919685E+01  0.75331061713E+02 -0.10137722713E+04  0.10165687566E+04  0.00000000000E+00 0. -1.
          1    1    1    2  502    0  0.14138649244E+02  0.25067432676E+02  0.10423060795E+04  0.10427033332E+04  0.00000000000E+00 0. -1.
         22    1    3    3    0    0 -0.25047054326E+02 -0.76180144474E+02  0.17518752618E+03  0.19266924682E+03  0.00000000000E+00 0.  1.
         22    1    3    3    0    0  0.12654797050E+02 -0.24218349915E+02 -0.17580299852E+02  0.32492142186E+02  0.00000000000E+00 0.  1.
</event>
<event>
 7    1  0.5854318E-006  0.6154637E+02  0.7818608E-02  0.1420483E+00
          2   -1    0    0  502    0  0.00000000000E+00  0.00000000000E+00  0.15094093283E+04  0.15094093283E+04  0.00000000000E+00 0. -1.
          1   -1    0    0  501    0 -0.00000000000E+00 -0.00000000000E+00 -0.16637885126E+03  0.16637885126E+03  0.00000000000E+00 0. -1.
         25    2    1    2    0    0  0.77315337478E+01 -0.13007786573E+02  0.15689134448E+03  0.20116718788E+03  0.12499745750E+03 0.  0.
          2    1    1    2  501    0  0.59267897893E+01 -0.48645445736E+02 -0.13930509416E+03  0.14767334048E+03  0.00000000000E+00 0. -1.
          1    1    1    2  502    0 -0.13658323537E+02  0.61653232309E+02  0.13254442267E+04  0.13269476512E+04  0.00000000000E+00 0. -1.
         22    1    3    3    0    0 -0.16051625501E+01  0.55435442059E+02  0.55320200538E+02  0.78332556263E+02  0.00000000000E+00 0. -1.
         22    1    3    3    0    0  0.93366962980E+01 -0.68443228632E+02  0.10157114395E+03  0.12283463162E+03  0.00000000000E+00 0. -1.
</event>
<event>
 7    1  0.5854318E-006  0.1050425E+03  0.7818608E-02  0.1293431E+00
          2   -1    0    0  502    0  0.00000000000E+00  0.00000000000E+00  0.33600205844E+03  0.33600205844E+03  0.00000000000E+00 0. -1.
          1   -1    0    0  501    0 -0.00000000000E+00 -0.00000000000E+00 -0.41759554596E+03  0.41759554596E+03  0.00000000000E+00 0. -1.
         25    2    1    2    0    0 -0.54255073465E+02  0.11051762876E+03 -0.21678450017E+03  0.27888594332E+03  0.12499636237E+03 0.  0.
          2    1    1    2  501    0  0.98708793802E+02 -0.39092964956E+02 -0.14638742588E+03  0.18083407958E+03  0.00000000000E+00 0. -1.
          1    1    1    2  502    0 -0.44453720336E+02 -0.71424663803E+02  0.28157843854E+03  0.29387758149E+03  0.00000000000E+00 0. -1.
         22    1    3    3    0    0  0.18115432521E+01  0.82723200612E+01  0.16238996681E+02  0.18314420039E+02  0.00000000000E+00 0. -1.
         22    1    3    3    0    0 -0.56066616718E+02  0.10224530870E+03 -0.23302349685E+03  0.26057152329E+03  0.00000000000E+00 0. -1.
</event>
<event>
 7    1  0.5854318E-006  0.1060591E+03  0.7818608E-02  0.1420958E+00
          2   -1    0    0  502    0  0.00000000000E+00  0.00000000000E+00  0.14105772574E+03  0.14105772574E+03  0.00000000000E+00 0. -1.
          1   -1    0    0  501    0 -0.00000000000E+00 -0.00000000000E+00 -0.31347158151E+03  0.31347158151E+03  0.00000000000E+00 0. -1.
         25    2    1    2    0    0 -0.79987179212E+02 -0.36343731577E+02 -0.47271523855E+02  0.15992991713E+03  0.12499666301E+03 0.  0.
          2    1    1    2  501    0 -0.15865388843E+02 -0.23475889688E+02 -0.17050708010E+03  0.17284528436E+03  0.00000000000E+00 0. -1.
          1    1    1    2  502    0  0.95852568055E+02  0.59819621264E+02  0.45364748192E+02  0.12175410576E+03  0.00000000000E+00 0. -1.
         22    1    3    3    0    0  0.28097522972E+01 -0.40051617106E+02 -0.63834372296E+02  0.75411231439E+02  0.00000000000E+00 0.  1.
         22    1    3    3    0    0 -0.82796931509E+02  0.37078855294E+01  0.16562848441E+02  0.84518685691E+02  0.00000000000E+00 0.  1.
</event>
<event>
 7    1  0.5854318E-006  0.8471313E+02  0.7818608E-02  0.1338040E+00
          2   -1    0    0  502    0  0.00000000000E+00  0.00000000000E+00  0.58305908874E+03  0.58305908874E+03  0.00000000000E+00 0. -1.
          1   -1    0    0  501    0 -0.00000000000E+00 -0.00000000000E+00 -0.20084590000E+03  0.20084590000E+03  0.00000000000E+00 0. -1.
         25    2    1    2    0    0  0.66170704748E+01  0.40855400715E+02  0.13146698917E+03  0.18606887673E+03  0.12500043303E+03 0.  0.
          2    1    1    2  501    0  0.57963963372E+02 -0.67431089564E+02 -0.15900332567E+03  0.18217801861E+03  0.00000000000E+00 0. -1.
          1    1    1    2  502    0 -0.64581033847E+02  0.26575688849E+02  0.40974952524E+03  0.41565809339E+03  0.00000000000E+00 0. -1.
         22    1    3    3    0    0 -0.74983338523E+01 -0.40876824483E+02  0.74952586639E+02  0.85703150667E+02  0.00000000000E+00 0. -1.
         22    1    3    3    0    0  0.14115404327E+02  0.81732225198E+02  0.56514402533E+02  0.10036572607E+03  0.00000000000E+00 0. -1.
</event>
<event>
 7    1  0.5854318E-006  0.1811491E+03  0.7818608E-02  0.1276984E+00
          2   -1    0    0  502    0  0.00000000000E+00  0.00000000000E+00  0.30860936414E+03  0.30860936414E+03  0.00000000000E+00 0. -1.
          1   -1    0    0  501    0 -0.00000000000E+00 -0.00000000000E+00 -0.81239796264E+03  0.81239796264E+03  0.00000000000E+00 0. -1.
         25    2    1    2    0    0 -0.21917843788E+03 -0.29033795082E+02 -0.12910760582E+03  0.28491444251E+03  0.12500126712E+03 0.  0.
          2    1    1    2  501    0  0.44184763455E+02  0.35969225282E+02 -0.57052648371E+03  0.57336423598E+03  0.00000000000E+00 0. -1.
          1    1    1    2  502    0  0.17499367442E+03 -0.69354302001E+01  0.19584549103E+03  0.26272864829E+03  0.00000000000E+00 0. -1.
         22    1    3    3    0    0 -0.14497918883E+03 -0.78315935085E+02 -0.79451523841E+02  0.18293412892E+03  0.00000000000E+00 0.  1.
         22    1    3    3    0    0 -0.74199249045E+02  0.49282140003E+02 -0.49656081980E+02  0.10198031359E+03  0.00000000000E+00 0.  1.
</event>
<event>
 7    1  0.5854318E-006  0.1490615E+03  0.7818608E-02  0.1421415E+00
          2   -1    0    0  502    0  0.00000000000E+00  0.00000000000E+00  0.10541672697E+04  0.10541672697E+04  0.00000000000E+00 0. -1.
          1   -1    0    0  501    0 -0.00000000000E+00 -0.00000000000E+00 -0.28764523671E+03  0.28764523671E+03  0.00000000000E+00 0. -1.
         25    2    1    2    0    0 -0.15854507120E+03  0.37404838421E+02  0.29366059160E+03  0.35831875990E+03  0.12498051489E+03 0.  0.
          2    1    1    2  501    0  0.14067491838E+03 -0.46583443373E+02 -0.23365912767E+03  0.27668761773E+03  0.00000000000E+00 0. -1.
          1    1    1    2  502    0  0.17870152816E+02  0.91786049521E+01  0.70652056910E+03  0.70680612880E+03  0.00000000000E+00 0. -1.
         22    1    3    3    0    0 -0.14825095519E+03  0.25424875049E+02  0.30418226906E+03  0.33933998114E+03  0.00000000000E+00 0. -1.
         22    1    3    3    0    0 -0.10294116008E+02  0.11979963371E+02 -0.10521677464E+02  0.18978778765E+02  0.00000000000E+00 0. -1.
</event>
<event>
 7    1  0.5854318E-006  0.9332980E+02  0.7818608E-02  0.1378290E+00
          2   -1    0    0  502    0  0.00000000000E+00  0.00000000000E+00  0.28352861623E+04  0.28352861623E+04  0.00000000000E+00 0. -1.
          1   -1    0    0  501    0 -0.00000000000E+00 -0.00000000000E+00 -0.36414620925E+03  0.36414620925E+03  0.00000000000E+00 0. -1.
         25    2    1    2    0    0 -0.65949063252E+02  0.29119953207E+02  0.70927401031E+02  0.16078769314E+03  0.12499894171E+03 0.  0.
          2    1    1    2  501    0  0.94934654838E+02  0.54997686797E+01 -0.31194191785E+03  0.32611439137E+03  0.00000000000E+00 0. -1.
          1    1    1    2  502    0 -0.28985591586E+02 -0.34619721887E+02  0.27121544699E+04  0.27125302871E+04  0.00000000000E+00 0. -1.
         22    1    3    3    0    0 -0.75931911652E+02 -0.16334761226E+02  0.82006244017E+02  0.11294911991E+03  0.00000000000E+00 0. -1.
         22    1    3    3    0    0  0.99828484001E+01  0.45454714433E+02 -0.11078842986E+02  0.47838573225E+02  0.00000000000E+00 0. -1.
</event>
<event>
 7    1  0.5854318E-006  0.6400757E+02  0.7818608E-02  0.1443961E+00
          2   -1    0    0  502    0  0.00000000000E+00  0.00000000000E+00  0.80820593946E+03  0.80820593946E+03  0.00000000000E+00 0. -1.
          1   -1    0    0  501    0 -0.00000000000E+00 -0.00000000000E+00 -0.58477398308E+03  0.58477398308E+03  0.00000000000E+00 0. -1.
         25    2    1    2    0    0 -0.70380069659E+02 -0.59826109163E+02  0.31414799687E+02  0.15857124138E+03  0.12500172563E+03 0.  0.
          2    1    1    2  501    0  0.31172072373E+02  0.55370475377E+02 -0.51870973262E+03  0.52258719306E+03  0.00000000000E+00 0. -1.
          1    1    1    2  502    0  0.39207997286E+02  0.44556337861E+01  0.71072688932E+03  0.71182148810E+03  0.00000000000E+00 0. -1.
         22    1    3    3    0    0 -0.19530699699E+02 -0.17121091953E+02  0.74847169740E+02  0.79225493615E+02  0.00000000000E+00 0.  1.
         22    1    3    3    0    0 -0.50849369960E+02 -0.42705017210E+02 -0.43432370053E+02  0.79345747766E+02  0.00000000000E+00 0.  1.
</event>
<event>
 7    1  0.5854318E-006  0.5460651E+02  0.7818608E-02  0.1540161E+00
          2   -1    0    0  502    0  0.00000000000E+00  0.00000000000E+00  0.41359662710E+02  0.41359662710E+02  0.00000000000E+00 0. -1.
          1   -1    0    0  501    0 -0.00000000000E+00 -0.00000000000E+00 -0.52215192603E+03  0.52215192603E+03  0.00000000000E+00 0. -1.
         25    2    1    2    0    0  0.70586032107E+02  0.80453050040E+01 -0.38025567177E+03  0.40651874823E+03  0.12496400235E+03 0.  0.
          2    1    1    2  501    0 -0.20668273311E+02  0.11582459168E+02 -0.10060263455E+03  0.10335483037E+03  0.00000000000E+00 0. -1.
          1    1    1    2  502    0 -0.49917758795E+02 -0.19627764172E+02  0.66043013791E-01  0.53638010135E+02  0.00000000000E+00 0. -1.
         22    1    3    3    0    0  0.94314644043E+02 -0.28218589439E+01 -0.36340019567E+03  0.37545028590E+03  0.00000000000E+00 0. -1.
         22    1    3    3    0    0 -0.23728611937E+02  0.10867163948E+02 -0.16855476102E+02  0.31068462327E+02  0.00000000000E+00 0. -1.
</event>
<event>
 7    1  0.5854318E-006  0.1527242E+03  0.7818608E-02  0.1275578E+00
          2   -1    0    0  502    0  0.00000000000E+00  0.00000000000E+00  0.43233576848E+03  0.43233576848E+03  0.00000000000E+00 0. -1.
          1   -1    0    0  501    0 -0.00000000000E+00 -0.00000000000E+00 -0.60561920969E+03  0.60561920969E+03  0.00000000000E+00 0. -1.
         25    2    1    2    0    0 -0.61445379627E+02  0.74046952122E+02  0.11707386983E+03  0.19644541147E+03  0.12500409151E+03 0.  0.
          2    1    1    2  501    0  0.12781101123E+03 -0.90988913115E+02 -0.55054185617E+03  0.57246045479E+03  0.00000000000E+00 0. -1.
          1    1    1    2  502    0 -0.66365631602E+02  0.16941960993E+02  0.26018454513E+03  0.26904911192E+03  0.00000000000E+00 0. -1.
         22    1    3    3    0    0 -0.56150073028E+02  0.10139607424E+03  0.12186242039E+03  0.16817979687E+03  0.00000000000E+00 0. -1.
         22    1    3    3    0    0 -0.52953065989E+01 -0.27349122114E+02 -0.47885505559E+01  0.28265614601E+02  0.00000000000E+00 0. -1.
</event>
<event>
 7    1  0.5854318E-006  0.5150053E+02  0.7818608E-02  0.1498172E+00
          2   -1    0    0  502    0  0.00000000000E+00  0.00000000000E+00  0.78669515644E+01  0.78669515644E+01  0.00000000000E+00 0. -1.
          1   -1    0    0  501    0 -0.00000000000E+00 -0.00000000000E+00 -0.20067976971E+04  0.20067976971E+04  0.00000000000E+00 0. -1.
         25    2    1    2    0    0 -0.10066042985E+02  0.30330302876E+02 -0.10026976712E+04  0.10109647391E+04  0.12500332496E+03 0.  0.
          2    1    1    2  501    0  0.21186954995E+02  0.25660058720E+02 -0.75774058449E+03  0.75847090852E+03  0.00000000000E+00 0. -1.
          1    1    1    2  502    0 -0.11120912010E+02 -0.55990361596E+02 -0.23849248982E+03  0.24522900109E+03  0.00000000000E+00 0. -1.
         22    1    3    3    0    0  0.55696043693E+01  0.32849199103E+02 -0.99027836186E+03  0.99083869744E+03  0.00000000000E+00 0.  1.
         22    1    3    3    0    0 -0.15635647355E+02 -0.25188962264E+01 -0.12419309374E+02  0.20126041631E+02  0.00000000000E+00 0.  1.
</event>
<event>
 7    1  0.5854318E-006  0.5286625E+02  0.7818608E-02  0.1468244E+00
          2   -1    0    0  502    0  0.00000000000E+00  0.00000000000E+00  0.37407785393E+03  0.37407785393E+03  0.00000000000E+00 0. -1.
          1   -1    0    0  501    0 -0.00000000000E+00 -0.00000000000E+00 -0.31496723637E+03  0.31496723637E+03  0.00000000000E+00 0. -1.
         25    2    1    2    0    0 -0.19148706837E+02 -0.23203782109E+01 -0.78537365964E+02  0.14888064628E+03  0.12500108741E+03 0.  0.
          2    1    1    2  501    0  0.54478883054E+02 -0.16458791049E+02 -0.19601576660E+03  0.20411031639E+03  0.00000000000E+00 0. -1.
          1    1    1    2  502    0 -0.35330176217E+02  0.18779169260E+02  0.33366375013E+03  0.33605412763E+03  0.00000000000E+00 0. -1.
         22    1    3    3    0    0  0.43546025869E+01 -0.49174983754E+02 -0.82681140079E+02  0.96298040041E+02  0.00000000000E+00 0. -1.
         22    1    3    3    0    0 -0.23503309424E+02  0.46854605544E+02  0.41437741145E+01  0.52582606235E+02  0.00000000000E+00 0. -1.
</event>
<event>
 7    1  0.5854318E-006  0.5588963E+02  0.7818608E-02  0.1469521E+00
          2   -1    0    0  502    0  0.00000000000E+00  0.00000000000E+00  0.23141848040E+04  0.23141848040E+04  0.00000000000E+00 0. -1.
          1   -1    0    0  501    0 -0.00000000000E+00 -0.00000000000E+00 -0.73524126866E+01  0.73524126866E+01  0.00000000000E+00 0. -1.
         25    2    1    2    0    0  0.17129266711E+02 -0.17085202895E+02  0.91805588154E+03  0.92684248318E+03  0.12500028427E+03 0.  0.
          2    1    1    2  501    0  0.30959895268E+02 -0.21162224285E+02  0.15815909075E+03  0.16254431039E+03  0.00000000000E+00 0. -1.
          1    1    1    2  502    0 -0.48089161979E+02  0.38247427181E+02  0.12306174190E+04  0.12321504231E+04  0.00000000000E+00 0. -1.
         22    1    3    3    0    0  0.27328185344E+02  0.21156030661E+02  0.82495162321E+03  0.82567523154E+03  0.00000000000E+00 0. -1.
         22    1    3    3    0    0 -0.10198918633E+02 -0.38241233557E+02  0.93104258329E+02  0.10116725164E+03  0.00000000000E+00 0. -1.
</event>
<event>
 7    1  0.5854318E-006  0.6563203E+02  0.7818608E-02  0.1406052E+00
          2   -1    0    0  502    0  0.00000000000E+00  0.00000000000E+00  0.14175175118E+04  0.14175175118E+04  0.00000000000E+00 0. -1.
          1   -1    0    0  501    0 -0.00000000000E+00 -0.00000000000E+00 -0.14178416727E+03  0.14178416727E+03  0.00000000000E+00 0. -1.
         25    2    1    2    0    0 -0.69596551359E+02  0.11532697455E+02  0.33691411590E+03  0.36621405571E+03  0.12499972012E+03 0.  0.
          2    1    1    2  501    0  0.39264477680E+02 -0.53034097903E+02 -0.11790470303E+03  0.13511415079E+03  0.00000000000E+00 0. -1.
          1    1    1    2  502    0  0.30332073679E+02  0.41501400448E+02  0.10567239316E+04  0.10579734726E+04  0.00000000000E+00 0. -1.
         22    1    3    3    0    0  0.34882518299E+02  0.12953132894E+01  0.52512736571E+02  0.63055970546E+02  0.00000000000E+00 0. -1.
         22    1    3    3    0    0 -0.10447906966E+03  0.10237384165E+02  0.28440137933E+03  0.30315808516E+03  0.00000000000E+00 0. -1.
</event>
<event>
 7    1  0.5854318E-006  0.2347994E+03  0.7818608E-02  0.1342083E+00
          2   -1    0    0  502    0  0.00000000000E+00  0.00000000000E+00  0.21432851495E+03  0.21432851495E+03  0.00000000000E+00 0. -1.
          1   -1    0    0  501    0 -0.00000000000E+00 -0.00000000000E+00 -0.11943592983E+04  0.11943592983E+04  0.00000000000E+00 0. -1.
         25    2    1    2    0    0 -0.22044604914E+03 -0.10101957477E+03 -0.17630862707E+03  0.32482541536E+03  0.12500161367E+03 0.  0.
          2    1    1    2  501    0  0.22052456824E+03  0.76690742225E+02 -0.92815643999E+03  0.95707206220E+03  0.00000000000E+00 0. -1.
          1    1    1    2  502    0 -0.78519107395E-01  0.24328832543E+02  0.12443428372E+03  0.12679033568E+03  0.00000000000E+00 0. -1.
         22    1    3    3    0    0 -0.19214711372E+03 -0.58042711695E+02 -0.80874872147E+02  0.21640289886E+03  0.00000000000E+00 0.  1.
         22    1    3    3    0    0 -0.28298935419E+02 -0.42976863073E+02 -0.95433754923E+02  0.10842251650E+03  0.00000000000E+00 0.  1.
</event>
<event>
 7    1  0.5854318E-006  0.1082469E+03  0.7818608E-02  0.1361272E+00
          2   -1    0    0  502    0  0.00000000000E+00  0.00000000000E+00  0.21508689058E+03  0.21508689058E+03  0.00000000000E+00 0. -1.
          1   -1    0    0  501    0 -0.00000000000E+00 -0.00000000000E+00 -0.99137653147E+03  0.99137653147E+03  0.00000000000E+00 0. -1.
         25    2    1    2    0    0 -0.89802823497E+02  0.51725768326E+02 -0.10772117830E+03  0.19485663150E+03  0.12500060947E+03 0.  0.
          2    1    1    2  501    0 -0.19344257465E+02 -0.40431731235E+02 -0.82186429546E+03  0.82308556381E+03  0.00000000000E+00 0. -1.
          1    1    1    2  502    0  0.10914708096E+03 -0.11294037091E+02  0.15329583287E+03  0.18852122674E+03  0.00000000000E+00 0. -1.
         22    1    3    3    0    0 -0.32448251207E+02 -0.41607243659E+02 -0.32501048405E+02  0.61970717913E+02  0.00000000000E+00 0. -1.
         22    1    3    3    0    0 -0.57354572290E+02  0.93333011985E+02 -0.75220129897E+02  0.13288591359E+03  0.00000000000E+00 0. -1.
</event>
<event>
 7    1  0.5854318E-006  0.9868780E+02  0.7818608E-02  0.1358449E+00
          2   -1    0    0  502    0  0.00000000000E+00  0.00000000000E+00  0.36611243704E+03  0.36611243704E+03  0.00000000000E+00 0. -1.
          1   -1    0    0  501    0 -0.00000000000E+00 -0.00000000000E+00 -0.99965915641E+03  0.99965915641E+03  0.00000000000E+00 0. -1.
         25    2    1    2    0    0  0.49207761582E+02 -0.10165411784E+03 -0.61076186118E+03  0.63356935556E+03  0.12500045504E+03 0.  0.
          2    1    1    2  501    0  0.69343364314E+00  0.94999198294E+02 -0.36967046421E+03  0.38168256527E+03  0.00000000000E+00 0. -1.
          1    1    1    2  502    0 -0.49901195226E+02  0.66549195472E+01  0.34688560601E+03  0.35051967262E+03  0.00000000000E+00 0. -1.
         22    1    3    3    0    0  0.76536395732E+02 -0.26735641242E+02 -0.40201679062E+03  0.41010988079E+03  0.00000000000E+00 0. -1.
         22    1    3    3    0    0 -0.27328634150E+02 -0.74918476599E+02 -0.20874507056E+03  0.22345947477E+03  0.00000000000E+00 0. -1.
</event>
<event>
 7    1  0.5854318E-006  0.9416221E+02  0.7818608E-02  0.1410339E+00
          2   -1    0    0  502    0  0.00000000000E+00  0.00000000000E+00  0.55201191382E+03  0.55201191382E+03  0.00000000000E+00 0. -1.
          1   -1    0    0  501    0 -0.00000000000E+00 -0.00000000000E+00 -0.48245294311E+03  0.48245294311E+03  0.00000000000E+00 0. -1.
         25    2    1    2    0    0 -0.79732661559E+01 -0.61611809623E+02 -0.65722877878E+02  0.15428413563E+03  0.12499803908E+03 0.  0.
          2    1    1    2  501    0  0.72721988720E+01 -0.33875693841E+02 -0.36713683130E+03  0.36876808485E+03  0.00000000000E+00 0. -1.
          1    1    1    2  502    0  0.70106728381E+00  0.95487503464E+02  0.50241867989E+03  0.51141263644E+03  0.00000000000E+00 0. -1.
         22    1    3    3    0    0  0.19196931890E+02  0.12199398265E+02 -0.71877607539E+02  0.75390569553E+02  0.00000000000E+00 0. -1.
         22    1    3    3    0    0 -0.27170198046E+02 -0.73811207888E+02  0.61547296604E+01  0.78893566081E+02  0.00000000000E+00 0. -1.
</event>
<event>
 7    1  0.5854318E-006  0.1851501E+03  0.7818608E-02  0.1329439E+00
          2   -1    0    0  502    0  0.00000000000E+00  0.00000000000E+00  0.36287440208E+04  0.36287440208E+04  0.00000000000E+00 0. -1.
          1   -1    0    0  501    0 -0.00000000000E+00 -0.00000000000E+00 -0.22271529454E+03  0.22271529454E+03  0.00000000000E+00 0. -1.
         25    2    1    2    0    0 -0.95865474154E+02 -0.17558405755E+03  0.69601605724E+03  0.73490408801E+03  0.12500286488E+03 0.  0.
          2    1    1    2  501    0  0.34320259347E+02  0.29719787505E+01 -0.19890743143E+03  0.20186846989E+03  0.00000000000E+00 0. -1.
          1    1    1    2  502    0  0.61545214807E+02  0.17261207880E+03  0.29089201005E+04  0.29146867575E+04  0.00000000000E+00 0. -1.
         22    1    3    3    0    0 -0.10279117768E+03 -0.96298065059E+02  0.30614908216E+03  0.33699644516E+03  0.00000000000E+00 0. -1.
         22    1    3    3    0    0  0.69257035297E+01 -0.79285992494E+02  0.38986697508E+03  0.39790764285E+03  0.00000000000E+00 0. -1.
</event>
<event>
 7    1  0.5854318E-006  0.2172125E+03  0.7818608E-02  0.1241034E+00
          2   -1    0    0  502    0  0.00000000000E+00  0.00000000000E+00  0.14031162715E+04  0.14031162715E+04  0.00000000000E+00 0. -1.
          1   -1    0    0  501    0 -0.00000000000E+00 -0.00000000000E+00 -0.49641159628E+03  0.49641159628E+03  0.00000000000E+00 0. -1.
         25    2    1    2    0    0  0.25240204477E+02 -0.15882805237E+03  0.67227522076E+02  0.21449541538E+03  0.12500130141E+03 0.  0.
          2    1    1    2  501    0  0.34833135704E+02 -0.58043113497E+02 -0.40994983177E+03  0.41550116117E+03  0.00000000000E+00 0. -1.
          1    1    1    2  502    0 -0.60073340181E+02  0.21687116586E+03  0.12494269849E+04  0.12695312913E+04  0.00000000000E+00 0. -1.
         22    1    3    3    0    0  0.54372193397E+02 -0.11621200627E+03 -0.17816316144E+01  0.12831500312E+03  0.00000000000E+00 0. -1.
         22    1    3    3    0    0 -0.29131988921E+02 -0.42616046098E+02  0.69009153690E+02  0.86180412256E+02  0.00000000000E+00 0. -1.
</event>
<event>
 7    1  0.5854318E-006  0.7941799E+02  0.7818608E-02  0.1333745E+00
          2   -1    0    0  502    0  0.00000000000E+00  0.00000000000E+00  0.43689638733E+03  0.43689638733E+03  0.00000000000E+00 0. -1.
          1   -1    0    0  501    0 -0.00000000000E+00 -0.00000000000E+00 -0.24232361274E+03  0.24232361274E+03  0.00000000000E+00 0. -1.
         25    2    1    2    0    0  0.16510155853E+01  0.20109001494E+02  0.76045712130E+02  0.14769989660E+03  0.12500084531E+03 0.  0.
          2    1    1    2  501    0 -0.56868036524E+02  0.52407381283E+02 -0.19247882504E+03  0.20743337552E+03  0.00000000000E+00 0. -1.
          1    1    1    2  502    0  0.55217020939E+02 -0.72516382778E+02  0.31100588750E+03  0.32408672794E+03  0.00000000000E+00 0. -1.
         22    1    3    3    0    0  0.29348902176E+02  0.31803728092E+02 -0.19550355900E+02  0.47487383538E+02  0.00000000000E+00 0. -1.
         22    1    3    3    0    0 -0.27697886590E+02 -0.11694726598E+02  0.95596068030E+02  0.10021251306E+03  0.00000000000E+00 0. -1.
</event>
<event>
 7    1  0.5854318E-006  0.3773609E+02  0.7818608E-02  0.1553806E+00
          2   -1    0    0  502    0  0.00000000000E+00  0.00000000000E+00  0.23369015028E+04  0.23369015028E+04  0.00000000000E+00 0. -1.
          1   -1    0    0  501    0 -0.00000000000E+00 -0.00000000000E+00 -0.38793976060E+02  0.38793976060E+02  0.00000000000E+00 0. -1.
         25    2    1    2    0    0 -0.39987765286E+02  0.55850136108E+02  0.83458448800E+03  0.84668444633E+03  0.12500009986E+03 0.  0.
          2    1    1    2  501    0  0.20669299716E+02 -0.31100620803E+02 -0.21877147743E+02  0.43279072986E+02  0.00000000000E+00 0. -1.
          1    1    1    2  502    0  0.19318465569E+02 -0.24749515305E+02  0.14854001865E+04  0.14857319596E+04  0.00000000000E+00 0. -1.
         22    1    3    3    0    0 -0.72364347189E+02  0.53312053018E+02  0.36223066310E+03  0.37321552356E+03  0.00000000000E+00 0.  1.
         22    1    3    3    0    0  0.32376581904E+02  0.25380830901E+01  0.47235382491E+03  0.47346892277E+03  0.00000000000E+00 0.  1.
</event>
<event>
 7    1  0.5854318E-006  0.5044530E+02  0.7818608E-02  0.1518131E+00
          2   -1    0    0  502    0  0.00000000000E+00  0.00000000000E+00  0.23920951705E+03  0.23920951705E+03  0.00000000000E+00 0. -1.
          1   -1    0    0  501    0 -0.00000000000E+00 -0.00000000000E+00 -0.96466303622E+03  0.96466303622E+03  0.00000000000E+00 0. -1.
         25    2    1    2    0    0 -0.51216904119E+02  0.13176208630E+02  0.11887856597E+03  0.18042663837E+03  0.12499949858E+03 0.  0.
          2    1    1    2  501    0  0.16342974970E+02  0.24755664119E+02 -0.92622031299E+03  0.92669520552E+03  0.00000000000E+00 0. -1.
          1    1    1    2  502    0  0.34873929149E+02 -0.37931872750E+02  0.81888227845E+02  0.96750709373E+02  0.00000000000E+00 0. -1.
         22    1    3    3    0    0 -0.71006648091E+02 -0.14004190125E+02  0.18692327557E+02  0.74749344638E+02  0.00000000000E+00 0. -1.
         22    1    3    3    0    0  0.19789743972E+02  0.27180398755E+02  0.10018623842E+03  0.10567729373E+03  0.00000000000E+00 0. -1.
</event>
<event>
 7    1  0.5854318E-006  0.7501585E+02  0.7818608E-02  0.1390648E+00
          2   -1    0    0  502    0  0.00000000000E+00  0.00000000000E+00  0.16221950379E+04  0.16221950379E+04  0.00000000000E+00 0. -1.
          1   -1    0    0  501    0 -0.00000000000E+00 -0.00000000000E+00 -0.77907214259E+02  0.77907214259E+02  0.00000000000E+00 0. -1.
         25    2    1    2    0    0  0.92031480530E+01  0.24469713739E+02  0.13173802055E+03  0.18347553567E+03  0.12499960522E+03 0.  0.
          2    1    1    2  501    0  0.15364770779E+02  0.48444841321E+02 -0.38362185388E+02  0.63676024526E+02  0.00000000000E+00 0. -1.
          1    1    1    2  502    0 -0.24567918832E+02 -0.72914555060E+02  0.14509119885E+04  0.14529506920E+04  0.00000000000E+00 0. -1.
         22    1    3    3    0    0 -0.23780429951E+00  0.43785344454E+02  0.14937955301E+03  0.15566458749E+03  0.00000000000E+00 0.  1.
         22    1    3    3    0    0  0.94409523525E+01 -0.19315630715E+02 -0.17641532458E+02  0.27810948181E+02  0.00000000000E+00 0.  1.
</event>
<event>
 7    1  0.5854318E-006  0.1828577E+03  0.7818608E-02  0.1211651E+00
          2   -1    0    0  502    0  0.00000000000E+00  0.00000000000E+00  0.27781089120E+04  0.27781089120E+04  0.00000000000E+00 0. -1.
          1   -1    0    0  501    0 -0.00000000000E+00 -0.00000000000E+00 -0.11207143644E+03  0.11207143644E+03  0.00000000000E+00 0. -1.
         25    2    1    2    0    0 -0.13663044242E+03  0.19477216933E+03  0.68316827202E+03  0.73413103936E+03  0.12500167726E+03 0.  0.
          2    1    1    2  501    0 -0.17946341603E+02 -0.10763059194E+03 -0.46734319379E+02  0.11870346291E+03  0.00000000000E+00 0. -1.
          1    1    1    2  502    0  0.15457678402E+03 -0.87141577387E+02  0.20296035230E+04  0.20373458462E+04  0.00000000000E+00 0. -1.
         22    1    3    3    0    0 -0.25445834855E+01 -0.47609826978E+01 -0.36093374833E+01  0.64937799802E+01  0.00000000000E+00 0. -1.
         22    1    3    3    0    0 -0.13408585893E+03  0.19953315202E+03  0.68677760950E+03  0.72763725938E+03  0.00000000000E+00 0. -1.
</event>
<event>
 7    1  0.5854318E-006  0.5173135E+02  0.7818608E-02  0.1484017E+00
          2   -1    0    0  502    0  0.00000000000E+00  0.00000000000E+00  0.17746668985E+03  0.17746668985E+03  0.00000000000E+00 0. -1.
          1   -1    0    0  501    0 -0.00000000000E+00 -0.00000000000E+00 -0.75681195466E+03  0.75681195466E+03  0.00000000000E+00 0. -1.
         25    2    1    2    0    0  0.56413833389E+02  0.16876233471E+01 -0.44726142904E+03  0.46781693651E+03  0.12499812600E+03 0.  0.
          2    1    1    2  501    0 -0.42240641434E+02  0.32008812425E+02 -0.29488351607E+03  0.29960828412E+03  0.00000000000E+00 0. -1.
          1    1    1    2  502    0 -0.14173191954E+02 -0.33696435772E+02  0.16279968031E+03  0.16685342389E+03  0.00000000000E+00 0. -1.
         22    1    3    3    0    0 -0.65215776655E+01 -0.34637674084E+02 -0.36736768672E+02  0.50910604137E+02  0.00000000000E+00 0. -1.
         22    1    3    3    0    0  0.62935411054E+02  0.36325297431E+02 -0.41052466037E+03  0.41690633237E+03  0.00000000000E+00 0. -1.
</event>
<event>
 7    1  0.5854318E-006  0.1631461E+03  0.7818608E-02  0.1277348E+00
          2   -1    0    0  502    0  0.00000000000E+00  0.00000000000E+00  0.70612358066E+03  0.70612358066E+03  0.00000000000E+00 0. -1.
          1   -1    0    0  501    0 -0.00000000000E+00 -0.00000000000E+00 -0.26908339387E+04  0.26908339387E+04  0.00000000000E+00 0. -1.
         25    2    1    2    0    0  0.36306999738E+01 -0.18470007567E+03 -0.60914797818E+03  0.64870396524E+03  0.12501310036E+03 0.  0.
          2    1    1    2  501    0  0.50814409018E+02  0.15291904129E+03 -0.20573030982E+04  0.20636042196E+04  0.00000000000E+00 0. -1.
          1    1    1    2  502    0 -0.54445108992E+02  0.31781034382E+02  0.68174071840E+03  0.68464933445E+03  0.00000000000E+00 0. -1.
         22    1    3    3    0    0 -0.47444608913E+01 -0.13784265430E+03 -0.57180439939E+03  0.58820351785E+03  0.00000000000E+00 0.  1.
         22    1    3    3    0    0  0.83751608651E+01 -0.46857421371E+02 -0.37343578788E+02  0.60500447385E+02  0.00000000000E+00 0.  1.
</event>
<event>
 7    1  0.5854318E-006  0.8899992E+02  0.7818608E-02  0.1328764E+00
          2   -1    0    0  502    0  0.00000000000E+00  0.00000000000E+00  0.15314796547E+03  0.15314796547E+03  0.00000000000E+00 0. -1.
          1   -1    0    0  501    0 -0.00000000000E+00 -0.00000000000E+00 -0.21447967871E+04  0.21447967871E+04  0.00000000000E+00 0. -1.
         25    2    1    2    0    0 -0.10888998973E+02 -0.45306012618E+02 -0.67349327284E+03  0.68657747676E+03  0.12499695180E+03 0.  0.
          2    1    1    2  501    0 -0.71572139304E+02  0.86464376560E+01 -0.14498932780E+04  0.14516844870E+04  0.00000000000E+00 0. -1.
          1    1    1    2  502    0  0.82461138277E+02  0.36659574962E+02  0.13173772922E+03  0.15968278887E+03  0.00000000000E+00 0. -1.
         22    1    3    3    0    0 -0.12095780822E+02 -0.43549018794E+02 -0.67908801635E+03  0.68059044872E+03  0.00000000000E+00 0.  1.
         22    1    3    3    0    0  0.12067818487E+01 -0.17569938241E+01  0.55947435100E+01  0.59870280333E+01  0.00000000000E+00 0.  1.
</event>
<event>
 7    1  0.5854318E-006  0.9464309E+02  0.7818608E-02  0.1296483E+00
          2   -1    0    0  502    0  0.00000000000E+00  0.00000000000E+00  0.70263903602E+03  0.70263903602E+03  0.00000000000E+00 0. -1.
          1   -1    0    0  501    0 -0.00000000000E+00 -0.00000000000E+00 -0.11681104612E+03  0.11681104612E+03  0.00000000000E+00 0. -1.
         25    2    1    2    0    0 -0.13469558447E+02 -0.37501805604E+02  0.42124123034E+03  0.44119956628E+03  0.12500027487E+03 0.  0.
          2    1    1    2  501    0 -0.71910025212E+02  0.68292177952E+02 -0.73507714013E+02  0.12344333645E+03  0.00000000000E+00 0. -1.
          1    1    1    2  502    0  0.85379583660E+02 -0.30790372347E+02  0.23809447357E+03  0.25480717941E+03  0.00000000000E+00 0. -1.
         22    1    3    3    0    0 -0.56672392903E+02  0.12803075600E+02  0.12822702791E+03  0.14077588412E+03  0.00000000000E+00 0.  1.
         22    1    3    3    0    0  0.43202834456E+02 -0.50304881204E+02  0.29301420243E+03  0.30042368216E+03  0.00000000000E+00 0.  1.
</event>
<event>
 7    1  0.5854318E-006  0.1524782E+03  0.7818608E-02  0.1345549E+00
          2   -1    0    0  502    0  0.00000000000E+00  0.00000000000E+00  0.21318340443E+04  0.21318340443E+04  0.00000000000E+00 0. -1.
          1   -1    0    0  501    0 -0.00000000000E+00 -0.00000000000E+00 -0.15919936974E+04  0.15919936974E+04  0.00000000000E+00 0. -1.
         25    2    1    2    0    0 -0.12893450456E+03  0.20257024312E+02  0.29981326355E+03  0.35006717209E+03  0.12499831387E+03 0.  0.
          2    1    1    2  501    0  0.14297361458E+03 -0.53799324174E+02 -0.15629596680E+04  0.15704071910E+04  0.00000000000E+00 0. -1.
          1    1    1    2  502    0 -0.14039110017E+02  0.33542299862E+02  0.18029867514E+04  0.18033533786E+04  0.00000000000E+00 0. -1.
         22    1    3    3    0    0 -0.71628024985E+02  0.64426793469E+02  0.10625424779E+03  0.14342716219E+03  0.00000000000E+00 0. -1.
         22    1    3    3    0    0 -0.57306479580E+02 -0.44169769157E+02  0.19355901576E+03  0.20664000990E+03  0.00000000000E+00 0. -1.
</event>
<event>
 7    1  0.5854318E-006  0.1323865E+03  0.7818608E-02  0.1343164E+00
          2   -1    0    0  502    0  0.00000000000E+00  0.00000000000E+00  0.20466535846E+04  0.20466535846E+04  0.00000000000E+00 0. -1.
          1   -1    0    0  501    0 -0.00000000000E+00 -0.00000000000E+00 -0.47330999077E+03  0.47330999077E+03  0.00000000000E+00 0. -1.
         25    2    1    2    0    0 -0.16801235826E+02 -0.15964313431E+03 -0.10064050313E+02  0.20370244314E+03  0.12500075349E+03 0.  0.
          2    1    1    2  501    0 -0.25103928399E+02  0.34601313210E+02 -0.36294099089E+03  0.36544988845E+03  0.00000000000E+00 0. -1.
          1    1    1    2  502    0  0.41905164225E+02  0.12504182110E+03  0.19463486350E+04  0.19508112438E+04  0.00000000000E+00 0. -1.
         22    1    3    3    0    0  0.34250069575E+02 -0.57055586389E+02  0.41095080539E+02  0.78212613104E+02  0.00000000000E+00 0.  1.
         22    1    3    3    0    0 -0.51051305401E+02 -0.10258754792E+03 -0.51159130851E+02  0.12548983003E+03  0.00000000000E+00 0.  1.
</event>
<event>
 7    1  0.5854318E-006  0.5740331E+02  0.7818608E-02  0.1443578E+00
          2   -1    0    0  502    0  0.00000000000E+00  0.00000000000E+00  0.21480449757E+03  0.21480449757E+03  0.00000000000E+00 0. -1.
          1   -1    0    0  501    0 -0.00000000000E+00 -0.00000000000E+00 -0.19317125284E+04  0.19317125284E+04  0.00000000000E+00 0. -1.
         25    2    1    2    0    0 -0.52345149251E+02 -0.23718511425E+02 -0.33693781140E+03  0.36394264846E+03  0.12499832072E+03 0.  0.
          2    1    1    2  501    0  0.20526783373E+02  0.54290841604E+02 -0.15783143377E+04  0.15793812057E+04  0.00000000000E+00 0. -1.
          1    1    1    2  502    0  0.31818365878E+02 -0.30572330179E+02  0.19834411832E+03  0.20319317176E+03  0.00000000000E+00 0. -1.
         22    1    3    3    0    0 -0.44326231599E+02  0.77614614536E+01 -0.27360241444E+02  0.52665338730E+02  0.00000000000E+00 0.  1.
         22    1    3    3    0    0 -0.80189176515E+01 -0.31479972879E+02 -0.30957756996E+03  0.31127730973E+03  0.00000000000E+00 0.  1.
</event>
<event>
 7    1  0.5854318E-006  0.2190139E+03  0.7818608E-02  0.1303440E+00
          2   -1    0    0  502    0  0.00000000000E+00  0.00000000000E+00  0.26404394113E+04  0.26404394113E+04  0.00000000000E+00 0. -1.
          1   -1    0    0  501    0 -0.00000000000E+00 -0.00000000000E+00 -0.19970003014E+03  0.19970003014E+03  0.00000000000E+00 0. -1.
         25    2    1    2    0    0 -0.35145844788E+02 -0.18473125531E+03  0.41499605308E+03  0.47244803819E+03  0.12499823048E+03 0.  0.
          2    1    1    2  501    0  0.49351449364E+02  0.21866245364E+03 -0.97271812709E+02  0.24435760626E+03  0.00000000000E+00 0. -1.
          1    1    1    2  502    0 -0.14205604576E+02 -0.33931198337E+02  0.21230151408E+04  0.21233337970E+04  0.00000000000E+00 0. -1.
         22    1    3    3    0    0 -0.23567507510E+02 -0.82618249198E+02  0.32395645050E+03  0.33515516456E+03  0.00000000000E+00 0. -1.
         22    1    3    3    0    0 -0.11578337278E+02 -0.10211300611E+03  0.91039602577E+02  0.13729287362E+03  0.00000000000E+00 0. -1.
</event>
<event>
 7    1  0.5854318E-006  0.1274682E+03  0.7818608E-02  0.1306120E+00
          2   -1    0    0  502    0  0.00000000000E+00  0.00000000000E+00  0.46564916192E+03  0.46564916192E+03  0.00000000000E+00 0. -1.
          1   -1    0    0  501    0 -0.00000000000E+00 -0.00000000000E+00 -0.55779264853E+03  0.55779264853E+03  0.00000000000E+00 0. -1.
         25    2    1    2    0    0  0.65760810616E+02 -0.91760427221E+02 -0.11075998530E+03  0.20158609248E+03  0.12499887249E+03 0.  0.
          2    1    1    2  501    0 -0.49730776587E+02 -0.36474250953E+02 -0.38919829881E+03  0.39405435782E+03  0.00000000000E+00 0. -1.
          1    1    1    2  502    0 -0.16030034029E+02  0.12823467817E+03  0.40781479750E+03  0.42780136014E+03  0.00000000000E+00 0. -1.
         22    1    3    3    0    0 -0.35470207015E+02 -0.23796319188E+02 -0.11159052832E+02  0.44146629007E+02  0.00000000000E+00 0. -1.
         22    1    3    3    0    0  0.10123101763E+03 -0.67964108032E+02 -0.99600932466E+02  0.15743946348E+03  0.00000000000E+00 0. -1.
</event>
<event>
 7    1  0.5854318E-006  0.3988970E+02  0.7818608E-02  0.1525175E+00
          2   -1    0    0  502    0  0.00000000000E+00  0.00000000000E+00  0.89283849358E+03  0.89283849358E+03  0.00000000000E+00 0. -1.
          1   -1    0    0  501    0 -0.00000000000E+00 -0.00000000000E+00 -0.93812113783E+03  0.93812113783E+03  0.00000000000E+00 0. -1.
         25    2    1    2    0    0 -0.41951164902E+02 -0.62589102237E+02  0.18055872254E+02  0.14706875303E+03  0.12500363050E+03 0.  0.
          2    1    1    2  501    0  0.20159376704E+02  0.34196808704E+02 -0.87276808723E+03  0.87367039338E+03  0.00000000000E+00 0. -1.
          1    1    1    2  502    0  0.21791788198E+02  0.28392293533E+02  0.80942957072E+03  0.81022048501E+03  0.00000000000E+00 0. -1.
         22    1    3    3    0    0 -0.59342579908E+02 -0.20297364791E+02 -0.39072385314E+02  0.73893004416E+02  0.00000000000E+00 0. -1.
         22    1    3    3    0    0  0.17391415006E+02 -0.42291737446E+02  0.57128257568E+02  0.73175748612E+02  0.00000000000E+00 0. -1.
</event>
<event>
 7    1  0.5854318E-006  0.8703851E+02  0.7818608E-02  0.1377689E+00
          2   -1    0    0  502    0  0.00000000000E+00  0.00000000000E+00  0.73589736487E+03  0.73589736487E+03  0.00000000000E+00 0. -1.
          1   -1    0    0  501    0 -0.00000000000E+00 -0.00000000000E+00 -0.51287525449E+03  0.51287525449E+03  0.00000000000E+00 0. -1.
         25    2    1    2    0    0 -0.56518453831E+02 -0.32606757972E+02 -0.13503904339E+03  0.19523757861E+03  0.12499853029E+03 0.  0.
          2    1    1    2  501    0  0.93120143434E+02  0.55129575038E+00 -0.34064139512E+03  0.35314051752E+03  0.00000000000E+00 0. -1.
          1    1    1    2  502    0 -0.36601689604E+02  0.32055462222E+02  0.69870254890E+03  0.70039452323E+03  0.00000000000E+00 0. -1.
         22    1    3    3    0    0 -0.20215025973E+02  0.20083392564E+02 -0.12769018165E+03  0.13083108355E+03  0.00000000000E+00 0.  1.
         22    1    3    3    0    0 -0.36303427857E+02 -0.52690150536E+02 -0.73488617381E+01  0.64406495065E+02  0.00000000000E+00 0.  1.
</event>
<event>
 7    1  0.5854318E-006  0.9404078E+02  0.7818608E-02  0.1381085E+00
          2   -1    0    0  502    0  0.00000000000E+00  0.00000000000E+00  0.13985987287E+04  0.13985987287E+04  0.00000000000E+00 0. -1.
          1   -1    0    0  501    0 -0.00000000000E+00 -0.00000000000E+00 -0.35109976376E+02  0.35109976376E+02  0.00000000000E+00 0. -1.
         25    2    1    2    0    0 -0.30023603267E+02  0.10456300661E+03  0.11275260070E+04  0.11396381741E+04  0.12500172880E+03 0.  0.
          2    1    1    2  501    0  0.36652584316E+02 -0.23979880449E+02 -0.87753371579E+00  0.43808865185E+02  0.00000000000E+00 0. -1.
          1    1    1    2  502    0 -0.66289810490E+01 -0.80583126159E+02  0.23684027907E+03  0.25026166587E+03  0.00000000000E+00 0. -1.
         22    1    3    3    0    0  0.26709015639E+02  0.52481421317E+02  0.18908601624E+03  0.19804341100E+03  0.00000000000E+00 0.  1.
         22    1    3    3    0    0 -0.56732618906E+02  0.52081585290E+02  0.93843999076E+03  0.94159476307E+03  0.00000000000E+00 0.  1.
</event>
<event>
 7    1  0.5854318E-006  0.5187562E+02  0.7818608E-02  0.1454426E+00
          2   -1    0    0  502    0  0.00000000000E+00  0.00000000000E+00  0.16008494720E+04  0.16008494720E+04  0.00000000000E+00 0. -1.
          1   -1    0    0  501    0 -0.00000000000E+00 -0.00000000000E+00 -0.14992961131E+04  0.14992961131E+04  0.00000000000E+00 0. -1.
         25    2    1    2    0    0 -0.38501501390E+02  0.77327652915E+00  0.16189670603E+02  0.13179419473E+03  0.12499856305E+03 0.  0.
          2    1    1    2  501    0  0.28959930123E+02  0.43277191643E+02 -0.14406907399E+04  0.14416315067E+04  0.00000000000E+00 0. -1.
          1    1    1    2  502    0  0.95415712669E+01 -0.44050468172E+02  0.15260544282E+04  0.15267198837E+04  0.00000000000E+00 0. -1.
         22    1    3    3    0    0 -0.10203440741E+02  0.51708981286E+02 -0.27042829507E+02  0.59238868796E+02  0.00000000000E+00 0. -1.
         22    1    3    3    0    0 -0.28298060649E+02 -0.50935704756E+02  0.43232500109E+02  0.72555325933E+02  0.00000000000E+00 0. -1.
</event>
<event>
 7    1  0.5854318E-006  0.9838181E+02  0.7818608E-02  0.1333044E+00
          2   -1    0    0  502    0  0.00000000000E+00  0.00000000000E+00  0.18314871982E+04  0.18314871982E+04  0.00000000000E+00 0. -1.
          1   -1    0    0  501    0 -0.00000000000E+00 -0.00000000000E+00 -0.42408089771E+03  0.42408089771E+03  0.00000000000E+00 0. -1.
         25    2    1    2    0    0  0.60504081939E+02  0.17072330048E+02  0.16284836416E+03  0.21470213580E+03  0.12500083609E+03 0.  0.
          2    1    1    2  501    0  0.17094282157E+01  0.62787922866E+02 -0.39410503616E+03  0.39907897079E+03  0.00000000000E+00 0. -1.
          1    1    1    2  502    0 -0.62213510154E+02 -0.79860252914E+02  0.16386629725E+04  0.16417869894E+04  0.00000000000E+00 0. -1.
         22    1    3    3    0    0  0.93012481738E+02  0.34976451128E+02  0.13793753347E+03  0.17000422651E+03  0.00000000000E+00 0.  1.
         22    1    3    3    0    0 -0.32508399799E+02 -0.17904121080E+02  0.24910830689E+02  0.44697909289E+02  0.00000000000E+00 0.  1.
</event>
<event>
 7    1  0.5854318E-006  0.8255690E+02  0.7818608E-02  0.1379689E+00
          2   -1    0    0  502    0  0.00000000000E+00  0.00000000000E+00  0.42418805876E+03  0.42418805876E+03  0.00000000000E+00 0. -1.
          1   -1    0    0  501    0 -0.00000000000E+00 -0.00000000000E+00 -0.22249663322E+03  0.22249663322E+03  0.00000000000E+00 0. -1.
         25    2    1    2    0    0 -0.53399552983E+02  0.11348839936E+03 -0.20928518385E+02  0.17830803184E+03  0.12499848915E+03 0.  0.
          2    1    1    2  501    0  0.39802934715E+02 -0.64890971514E+02 -0.10899311462E+03  0.13294589437E+03  0.00000000000E+00 0. -1.
          1    1    1    2  502    0  0.13596618268E+02 -0.48597427849E+02  0.33161305854E+03  0.33543076576E+03  0.00000000000E+00 0. -1.
         22    1    3    3    0    0  0.22421517504E+02  0.24470954489E+02  0.35392369888E+02  0.48519809429E+02  0.00000000000E+00 0.  1.
         22    1    3    3    0    0 -0.75821070488E+02  0.89017444874E+02 -0.56320888273E+02  0.12978822242E+03  0.00000000000E+00 0.  1.
</event>
<event>
 7    1  0.5854318E-006  0.4205069E+02  0.7818608E-02  0.1511173E+00
          2   -1    0    0  502    0  0.00000000000E+00  0.00000000000E+00  0.96493010924E+03  0.96493010924E+03  0.00000000000E+00 0. -1.
          1   -1    0    0  501    0 -0.00000000000E+00 -0.00000000000E+00 -0.49125518389E+03  0.49125518389E+03  0.00000000000E+00 0. -1.
         25    2    1    2    0    0  0.32977309848E+02  0.67801686142E+02 -0.23274099426E+02  0.14782102305E+03  0.12499919817E+03 0.  0.
          2    1    1    2  501    0 -0.27776990597E+02 -0.30873245911E+02 -0.40425818956E+03  0.40638578020E+03  0.00000000000E+00 0. -1.
          1    1    1    2  502    0 -0.52003192507E+01 -0.36928440231E+02  0.90120721434E+03  0.90197848988E+03  0.00000000000E+00 0. -1.
         22    1    3    3    0    0 -0.10495540655E+02  0.10977147884E+02 -0.63807764735E+02  0.65590281215E+02  0.00000000000E+00 0.  1.
         22    1    3    3    0    0  0.43472850503E+02  0.56824538259E+02  0.40533665310E+02  0.82230741834E+02  0.00000000000E+00 0.  1.
</event>
<event>
 7    1  0.5854318E-006  0.4425086E+02  0.7818608E-02  0.1559768E+00
          2   -1    0    0  502    0  0.00000000000E+00  0.00000000000E+00  0.10649451815E+04  0.10649451815E+04  0.00000000000E+00 0. -1.
          1   -1    0    0  501    0 -0.00000000000E+00 -0.00000000000E+00 -0.28254946964E+03  0.28254946964E+03  0.00000000000E+00 0. -1.
         25    2    1    2    0    0 -0.14136898620E+02 -0.53191941870E+02  0.44992411066E+03  0.47019736985E+03  0.12499850671E+03 0.  0.
          2    1    1    2  501    0 -0.96145486061E+01  0.43175232690E+02 -0.27034001375E+03  0.27393477928E+03  0.00000000000E+00 0. -1.
          1    1    1    2  502    0  0.23751447226E+02  0.10016709180E+02  0.60281161493E+03  0.60336250198E+03  0.00000000000E+00 0. -1.
         22    1    3    3    0    0  0.12853796235E+02 -0.83696888940E+02  0.20326364085E+03  0.22019649631E+03  0.00000000000E+00 0. -1.
         22    1    3    3    0    0 -0.26990694855E+02  0.30504947070E+02  0.24666046981E+03  0.25000087355E+03  0.00000000000E+00 0. -1.
</event>
<event>
 7    1  0.5854318E-006  0.6105220E+02  0.7818608E-02  0.1446664E+00
          2   -1    0    0  502    0  0.00000000000E+00  0.00000000000E+00  0.33555135061E+04  0.33555135061E+04  0.00000000000E+00 0. -1.
          1   -1    0    0  501    0 -0.00000000000E+00 -0.00000000000E+00 -0.70771752123E+03  0.70771752123E+03  0.00000000000E+00 0. -1.
         25    2    1    2    0    0 -0.76487945324E+02 -0.63626132058E+02  0.85218269513E+03  0.86702882706E+03  0.12499980249E+03 0.  0.
          2    1    1    2  501    0  0.39909309105E+02  0.46126111621E+02 -0.69880121536E+03  0.70145813112E+03  0.00000000000E+00 0. -1.
          1    1    1    2  502    0  0.36578636219E+02  0.17500020437E+02  0.24944145051E+04  0.24947440692E+04  0.00000000000E+00 0. -1.
         22    1    3    3    0    0 -0.89357494003E+02 -0.91880583643E+02  0.71268104703E+03  0.72411399530E+03  0.00000000000E+00 0. -1.
         22    1    3    3    0    0  0.12869548679E+02  0.28254451585E+02  0.13950164810E+03  0.14291483177E+03  0.00000000000E+00 0. -1.
</event>
<event>
 7    1  0.5854318E-006  0.3885451E+02  0.7818608E-02  0.1542532E+00
          2   -1    0    0  502    0  0.00000000000E+00  0.00000000000E+00  0.48436508584E+02  0.48436508584E+02  0.00000000000E+00 0. -1.
          1   -1    0    0  501    0 -0.00000000000E+00 -0.00000000000E+00 -0.58748135036E+03  0.58748135036E+03  0.00000000000E+00 0. -1.
         25    2    1    2    0    0  0.39589741776E+01  0.14623219847E+01 -0.74278741596E+02  0.14546770325E+03  0.12500283747E+03 0.  0.
          2    1    1    2  501    0  0.38846641605E+02 -0.78211059658E+00 -0.43851207274E+03  0.44023006621E+03  0.00000000000E+00 0. -1.
          1    1    1    2  502    0 -0.42805615782E+02 -0.68021138808E+00 -0.26254027439E+02  0.50220089474E+02  0.00000000000E+00 0. -1.
         22    1    3    3    0    0 -0.24780327203E+02  0.12343731232E-01  0.29063668750E+02  0.38193737835E+02  0.00000000000E+00 0.  1.
         22    1    3    3    0    0  0.28739301380E+02  0.14499782534E+01 -0.10334241035E+03  0.10727396542E+03  0.00000000000E+00 0.  1.
</event>
<event>
 7    1  0.5854318E-006  0.9657369E+02  0.7818608E-02  0.1372916E+00
          2   -1    0    0  502    0  0.00000000000E+00  0.00000000000E+00  0.17246008661E+04  0.17246008661E+04  0.00000000000E+00 0. -1.
          1   -1    0    0  501    0 -0.00000000000E+00 -0.00000000000E+00 -0.29711201018E+03  0.29711201018E+03  0.00000000000E+00 0. -1.
         25    2    1    2    0    0 -0.12120216693E+03 -0.73724605278E+02 -0.17051113250E+03  0.25460879247E+03  0.12500523270E+03 0.  0.
          2    1    1    2  501    0  0.38392954734E+02  0.24609262885E+02 -0.76918398945E+02  0.89420774372E+02  0.00000000000E+00 0. -1.
          1    1    1    2  502    0  0.82809212198E+02  0.49115342393E+02  0.16749183874E+04  0.16776833095E+04  0.00000000000E+00 0. -1.
         22    1    3    3    0    0 -0.11809687340E+03 -0.10469775941E+03 -0.14582304498E+03  0.21487869317E+03  0.00000000000E+00 0. -1.
         22    1    3    3    0    0 -0.31052935294E+01  0.30973154129E+02 -0.24688087521E+02  0.39730099296E+02  0.00000000000E+00 0. -1.
</event>
<event>
 7    1  0.5854318E-006  0.1260052E+03  0.7818608E-02  0.1283637E+00
          2   -1    0    0  502    0  0.00000000000E+00  0.00000000000E+00  0.11596384720E+04  0.11596384720E+04  0.00000000000E+00 0. -1.
          1   -1    0    0  501    0 -0.00000000000E+00 -0.00000000000E+00 -0.45350035970E+03  0.45350035970E+03  0.00000000000E+00 0. -1.
         25    2    1    2    0    0 -0.10747528101E+03  0.21364165991E+02  0.32069682945E+03  0.36121799508E+03  0.12499847973E+03 0.  0.
          2    1    1    2  501    0  0.11442673656E+03  0.55207260444E+02 -0.42205998584E+03  0.44076745716E+03  0.00000000000E+00 0. -1.
          1    1    1    2  502    0 -0.69514555462E+01 -0.76571426435E+02  0.80750126870E+03  0.81115337947E+03  0.00000000000E+00 0. -1.
         22    1    3    3    0    0 -0.12549075011E+03  0.11123635789E+02  0.18423035021E+03  0.22318710889E+03  0.00000000000E+00 0. -1.
         22    1    3    3    0    0  0.18015469101E+02  0.10240530203E+02  0.13646647925E+03  0.13803088620E+03  0.00000000000E+00 0. -1.
</event>
<event>
 7    1  0.5854318E-006  0.9697434E+02  0.7818608E-02  0.1286989E+00
          2   -1    0    0  502    0  0.00000000000E+00  0.00000000000E+00  0.23341307824E+04  0.23341307824E+04  0.00000000000E+00 0. -1.
          1   -1    0    0  501    0 -0.00000000000E+00 -0.00000000000E+00 -0.48979514120E+03  0.48979514120E+03  0.00000000000E+00 0. -1.
         25    2    1    2    0    0  0.47271539494E+01  0.61696354467E+01  0.10782319471E+04  0.10854813342E+04  0.12500073901E+03 0.  0.
          2    1    1    2  501    0 -0.81259571250E+02  0.53385476127E+02 -0.47940578143E+03  0.48916564704E+03  0.00000000000E+00 0. -1.
          1    1    1    2  502    0  0.76532417300E+02 -0.59555111573E+02  0.12455094756E+04  0.12492789424E+04  0.00000000000E+00 0. -1.
         22    1    3    3    0    0 -0.68985776609E+01  0.62161574516E+02  0.40205423299E+03  0.40688973688E+03  0.00000000000E+00 0.  1.
         22    1    3    3    0    0  0.11625731610E+02 -0.55991939069E+02  0.67617771410E+03  0.67859159729E+03  0.00000000000E+00 0.  1.
</event>
<event>
 7    1  0.5854318E-006  0.8356131E+02  0.7818608E-02  0.1469239E+00
          2   -1    0    0  502    0  0.00000000000E+00  0.00000000000E+00  0.31460211318E+04  0.31460211318E+04  0.00000000000E+00 0. -1.
          1   -1    0    0  501    0 -0.00000000000E+00 -0.00000000000E+00 -0.10535609051E+03  0.10535609051E+03  0.00000000000E+00 0. -1.
         25    2    1    2    0    0 -0.53619935666E+02  0.28070238235E+02  0.21348794191E+03  0.25468347932E+03  0.12499414996E+03 0.  0.
          2    1    1    2  501    0 -0.16003505272E+02  0.19379914005E+02 -0.82271736938E+02  0.86025182049E+02  0.00000000000E+00 0. -1.
          1    1    1    2  502    0  0.69623440938E+02 -0.47450152240E+02  0.29094488363E+04  0.29106685610E+04  0.00000000000E+00 0. -1.
         22    1    3    3    0    0 -0.81863853850E+02 -0.25770624219E+01  0.18986344707E+03  0.20677635346E+03  0.00000000000E+00 0. -1.
         22    1    3    3    0    0  0.28243918184E+02  0.30647300657E+02  0.23624494839E+02  0.47907125862E+02  0.00000000000E+00 0. -1.
</event>
<event>
 7    1  0.5854318E-006  0.1710738E+03  0.7818608E-02  0.1205410E+00
          2   -1    0    0  502    0  0.00000000000E+00  0.00000000000E+00  0.17650998581E+04  0.17650998581E+04  0.00000000000E+00 0. -1.
          1   -1    0    0  501    0 -0.00000000000E+00 -0.00000000000E+00 -0.64544969977E+03  0.64544969977E+03  0.00000000000E+00 0. -1.
         25    2    1    2    0    0  0.15401714905E+03  0.14815868738E+03 -0.44125881954E+03  0.50597104724E+03  0.12500030389E+03 0.  0.
          2    1    1    2  501    0 -0.14330162404E+03 -0.23930323438E+02 -0.13842705942E+03  0.20067403074E+03  0.00000000000E+00 0. -1.
          1    1    1    2  502    0 -0.10715525008E+02 -0.12422836395E+03  0.16993360373E+04  0.17039044799E+04  0.00000000000E+00 0. -1.
         22    1    3    3    0    0  0.10166887287E+03  0.20306955375E+02 -0.24430910087E+03  0.26539756765E+03  0.00000000000E+00 0.  1.
         22    1    3    3    0    0  0.52348276186E+02  0.12785173201E+03 -0.19694971867E+03  0.24057347959E+03  0.00000000000E+00 0.  1.
</event>
<event>
 7    1  0.5854318E-006  0.2871958E+03  0.7818608E-02  0.1148043E+00
          2   -1    0    0  502    0  0.00000000000E+00  0.00000000000E+00  0.20556383983E+04  0.20556383983E+04  0.00000000000E+00 0. -1.
          1   -1    0    0  501    0 -0.00000000000E+00 -0.00000000000E+00 -0.72468363339E+03  0.72468363339E+03  0.00000000000E+00 0. -1.
         25    2    1    2    0    0 -0.16631781639E+03 -0.23691213132E+03  0.28314098764E+03  0.42377406014E+03  0.12500664444E+03 0.  0.
          2    1    1    2  501    0  0.25938004979E+03  0.12951123220E+03 -0.61908298522E+03  0.68360435347E+03  0.00000000000E+00 0. -1.
          1    1    1    2  502    0 -0.93062233404E+02  0.10740089912E+03  0.16668967625E+04  0.16729436180E+04  0.00000000000E+00 0. -1.
         22    1    3    3    0    0  0.29853580791E+01 -0.80266687538E+02  0.10574488312E+03  0.13279169325E+03  0.00000000000E+00 0. -1.
         22    1    3    3    0    0 -0.16930317446E+03 -0.15664544378E+03  0.17739610452E+03  0.29098236689E+03  0.00000000000E+00 0. -1.
</event>
<event>
 7    1  0.5854318E-006  0.1534702E+03  0.7818608E-02  0.1327590E+00
          2   -1    0    0  502    0  0.00000000000E+00  0.00000000000E+00  0.15626618213E+04  0.15626618213E+04  0.00000000000E+00 0. -1.
          1   -1    0    0  501    0 -0.00000000000E+00 -0.00000000000E+00 -0.74904250181E+02  0.74904250181E+02  0.00000000000E+00 0. -1.
         25    2    1    2    0    0  0.65686696249E+02  0.14376166038E+03  0.55578098254E+03  0.59118532450E+03  0.12500172117E+03 0.  0.
          2    1    1    2  501    0 -0.98784964070E+02 -0.11751346507E+03  0.47220094328E+02  0.16061637808E+03  0.00000000000E+00 0. -1.
          1    1    1    2  502    0  0.33098267821E+02 -0.26248195311E+02  0.88475649425E+03  0.88576436890E+03  0.00000000000E+00 0. -1.
         22    1    3    3    0    0  0.96018316216E+02  0.14156375420E+03  0.47637200221E+03  0.50615224789E+03  0.00000000000E+00 0. -1.
         22    1    3    3    0    0 -0.30331619968E+02  0.21979061797E+01  0.79408980326E+02  0.85033076611E+02  0.00000000000E+00 0. -1.
</event>
<event>
 7    1  0.5854318E-006  0.7831101E+02  0.7818608E-02  0.1434141E+00
          2   -1    0    0  502    0  0.00000000000E+00  0.00000000000E+00  0.72426663835E+03  0.72426663835E+03  0.00000000000E+00 0. -1.
          1   -1    0    0  501    0 -0.00000000000E+00 -0.00000000000E+00 -0.60403046605E+03  0.60403046605E+03  0.00000000000E+00 0. -1.
         25    2    1    2    0    0 -0.84014378369E+02 -0.20083946423E+02 -0.24284824988E+03  0.28646317036E+03  0.12499637925E+03 0.  0.
          2    1    1    2  501    0  0.62096367657E+02  0.47001027572E+02 -0.33446967789E+03  0.34341668698E+03  0.00000000000E+00 0. -1.
          1    1    1    2  502    0  0.21918010712E+02 -0.26917081148E+02  0.69755410008E+03  0.69841724706E+03  0.00000000000E+00 0. -1.
         22    1    3    3    0    0 -0.10192472458E+03  0.18596411047E+02 -0.13270880024E+03  0.16836300558E+03  0.00000000000E+00 0.  1.
         22    1    3    3    0    0  0.17910346213E+02 -0.38680357470E+02 -0.11013944964E+03  0.11810016479E+03  0.00000000000E+00 0.  1.
</event>
<event>
 7    1  0.5854318E-006  0.4592390E+02  0.7818608E-02  0.1537166E+00
          2   -1    0    0  502    0  0.00000000000E+00  0.00000000000E+00  0.22332778669E+03  0.22332778669E+03  0.00000000000E+00 0. -1.
          1   -1    0    0  501    0 -0.00000000000E+00 -0.00000000000E+00 -0.10489037836E+04  0.10489037836E+04  0.00000000000E+00 0. -1.
         25    2    1    2    0    0 -0.62699517239E+02  0.19087437740E+02  0.72216441882E+02  0.15854149036E+03  0.12499851977E+03 0.  0.
          2    1    1    2  501    0  0.35670059575E+02 -0.28817634127E+02 -0.10032969915E+04  0.10043443943E+04  0.00000000000E+00 0. -1.
          1    1    1    2  502    0  0.27029457664E+02  0.97301963865E+01  0.10550455276E+03  0.10934568558E+03  0.00000000000E+00 0. -1.
         22    1    3    3    0    0 -0.25908926635E+02  0.39230930936E+02  0.98428720312E+02  0.10908048131E+03  0.00000000000E+00 0.  1.
         22    1    3    3    0    0 -0.36790590604E+02 -0.20143493196E+02 -0.26212278430E+02  0.49461009044E+02  0.00000000000E+00 0.  1.
</event>
<event>
 7    1  0.5854318E-006  0.1233103E+03  0.7818608E-02  0.1390227E+00
          2   -1    0    0  502    0  0.00000000000E+00  0.00000000000E+00  0.17745560966E+04  0.17745560966E+04  0.00000000000E+00 0. -1.
          1   -1    0    0  501    0 -0.00000000000E+00 -0.00000000000E+00 -0.61328386580E+03  0.61328386580E+03  0.00000000000E+00 0. -1.
         25    2    1    2    0    0  0.14096186979E+03  0.42085521971E+02  0.17815373388E+03  0.26268426674E+03  0.12499132450E+03 0.  0.
          2    1    1    2  501    0 -0.20367250200E+02 -0.23400998560E+02 -0.56819923565E+03  0.56904551928E+03  0.00000000000E+00 0. -1.
          1    1    1    2  502    0 -0.12059461959E+03 -0.18684523411E+02  0.15513177326E+04  0.15561101764E+04  0.00000000000E+00 0. -1.
         22    1    3    3    0    0  0.15371432908E+03  0.12385994840E+02  0.16964442358E+03  0.22926128824E+03  0.00000000000E+00 0. -1.
         22    1    3    3    0    0 -0.12752459291E+02  0.29699527131E+02  0.85093103045E+01  0.33422978497E+02  0.00000000000E+00 0. -1.
</event>
<event>
 7    1  0.5854318E-006  0.7396405E+02  0.7818608E-02  0.1348353E+00
          2   -1    0    0  502    0  0.00000000000E+00  0.00000000000E+00  0.39265928910E+03  0.39265928910E+03  0.00000000000E+00 0. -1.
          1   -1    0    0  501    0 -0.00000000000E+00 -0.00000000000E+00 -0.76016246309E+02  0.76016246309E+02  0.00000000000E+00 0. -1.
         25    2    1    2    0    0  0.66652284501E+02 -0.37055659615E+02  0.13277391374E+03  0.19765832065E+03  0.12499700242E+03 0.  0.
          2    1    1    2  501    0  0.41394535868E+01  0.73848129355E+02  0.37956901633E+01  0.74061383656E+02  0.00000000000E+00 0. -1.
          1    1    1    2  502    0 -0.70791738088E+02 -0.36792469740E+02  0.18007343889E+03  0.19695583110E+03  0.00000000000E+00 0. -1.
         22    1    3    3    0    0  0.13582899127E+02 -0.39834356831E+00  0.13246341764E+03  0.13315859281E+03  0.00000000000E+00 0. -1.
         22    1    3    3    0    0  0.53069385374E+02 -0.36657316046E+02  0.31049609684E+00  0.64499727840E+02  0.00000000000E+00 0. -1.
</event>
<event>
 7    1  0.5854318E-006  0.4604375E+02  0.7818608E-02  0.1483392E+00
          2   -1    0    0  502    0  0.00000000000E+00  0.00000000000E+00  0.11418316688E+04  0.11418316688E+04  0.00000000000E+00 0. -1.
          1   -1    0    0  501    0 -0.00000000000E+00 -0.00000000000E+00 -0.10906580431E+03  0.10906580431E+03  0.00000000000E+00 0. -1.
         25    2    1    2    0    0 -0.27720869216E+02  0.36697710090E+02  0.22371832684E+02  0.13506650978E+03  0.12500917826E+03 0.  0.
          2    1    1    2  501    0 -0.12301632966E+02 -0.46694767089E+02 -0.41171096897E+02  0.63456998565E+02  0.00000000000E+00 0. -1.
          1    1    1    2  502    0  0.40022502182E+02  0.99970569992E+01  0.10515651287E+04  0.10523739648E+04  0.00000000000E+00 0. -1.
         22    1    3    3    0    0  0.18844076817E+02 -0.19761839748E+02  0.49894464441E+02  0.56877826288E+02  0.00000000000E+00 0.  1.
         22    1    3    3    0    0 -0.46564946033E+02  0.56459549838E+02 -0.27522631758E+02  0.78188683489E+02  0.00000000000E+00 0.  1.
</event>
<event>
 7    1  0.5854318E-006  0.1583099E+03  0.7818608E-02  0.1194957E+00
          2   -1    0    0  502    0  0.00000000000E+00  0.00000000000E+00  0.11468018158E+03  0.11468018158E+03  0.00000000000E+00 0. -1.
          1   -1    0    0  501    0 -0.00000000000E+00 -0.00000000000E+00 -0.76049773531E+03  0.76049773531E+03  0.00000000000E+00 0. -1.
         25    2    1    2    0    0  0.64381684153E+02  0.12834663226E+03 -0.36199370285E+03  0.40900178433E+03  0.12500063765E+03 0.  0.
          2    1    1    2  501    0  0.79966362590E+02 -0.19335166022E+03 -0.18688071472E+03  0.28054212730E+03  0.00000000000E+00 0. -1.
          1    1    1    2  502    0 -0.14434804674E+03  0.65005027958E+02 -0.96943136166E+02  0.18563400526E+03  0.00000000000E+00 0. -1.
         22    1    3    3    0    0 -0.21036928285E+02  0.60302431287E+02 -0.59076016031E+02  0.86999489889E+02  0.00000000000E+00 0.  1.
         22    1    3    3    0    0  0.85418612438E+02  0.68044200976E+02 -0.30291768682E+03  0.32200229444E+03  0.00000000000E+00 0.  1.
</event>
<event>
 7    1  0.5854318E-006  0.1220282E+03  0.7818608E-02  0.1294353E+00
          2   -1    0    0  502    0  0.00000000000E+00  0.00000000000E+00  0.76957229780E+03  0.76957229780E+03  0.00000000000E+00 0. -1.
          1   -1    0    0  501    0 -0.00000000000E+00 -0.00000000000E+00 -0.12401268774E+03  0.12401268774E+03  0.00000000000E+00 0. -1.
         25    2    1    2    0    0  0.49171914762E+02 -0.37777570752E+02  0.37081901214E+03  0.39620256261E+03  0.12499883519E+03 0.  0.
          2    1    1    2  501    0 -0.12075640525E+03  0.43329743234E+02 -0.69378662233E+02  0.14585257910E+03  0.00000000000E+00 0. -1.
          1    1    1    2  502    0  0.71584490491E+02 -0.55521724811E+01  0.34411926014E+03  0.35152984382E+03  0.00000000000E+00 0. -1.
         22    1    3    3    0    0 -0.21994760959E+02 -0.12345099139E+02  0.26483297322E+03  0.26603134155E+03  0.00000000000E+00 0. -1.
         22    1    3    3    0    0  0.71166675722E+02 -0.25432471613E+02  0.10598603892E+03  0.13017122106E+03  0.00000000000E+00 0. -1.
</event>
<event>
 7    1  0.5854318E-006  0.5977347E+02  0.7818608E-02  0.1490989E+00
          2   -1    0    0  502    0  0.00000000000E+00  0.00000000000E+00  0.16385234094E+04  0.16385234094E+04  0.00000000000E+00 0. -1.
          1   -1    0    0  501    0 -0.00000000000E+00 -0.00000000000E+00 -0.15219577557E+03  0.15219577557E+03  0.00000000000E+00 0. -1.
         25    2    1    2    0    0  0.56144169112E+01 -0.79211376574E+02  0.20206448633E+03  0.25052043440E+03  0.12499787022E+03 0.  0.
          2    1    1    2  501    0 -0.23051903756E+02  0.54636838164E+02 -0.12092756110E+03  0.13468500059E+03  0.00000000000E+00 0. -1.
          1    1    1    2  502    0  0.17437486845E+02  0.24574538410E+02  0.14051907086E+04  0.14055137500E+04  0.00000000000E+00 0. -1.
         22    1    3    3    0    0 -0.30456636626E+02  0.16792766871E+02  0.16485473544E+02  0.38488629123E+02  0.00000000000E+00 0.  1.
         22    1    3    3    0    0  0.36071053537E+02 -0.96004143445E+02  0.18557901278E+03  0.21203180527E+03  0.00000000000E+00 0.  1.
</event>
<event>
 7    1  0.5854318E-006  0.1053310E+03  0.7818608E-02  0.1305705E+00
          2   -1    0    0  502    0  0.00000000000E+00  0.00000000000E+00  0.39824138627E+03  0.39824138627E+03  0.00000000000E+00 0. -1.
          1   -1    0    0  501    0 -0.00000000000E+00 -0.00000000000E+00 -0.21007375069E+03  0.21007375069E+03  0.00000000000E+00 0. -1.
         25    2    1    2    0    0 -0.15998866616E+03 -0.59138438685E+02  0.89858666466E+02  0.22976852803E+03  0.12500107321E+03 0.  0.
          2    1    1    2  501    0  0.86013655482E+02  0.47291063124E+02 -0.11574435877E+03  0.15176149105E+03  0.00000000000E+00 0. -1.
          1    1    1    2  502    0  0.73975010679E+02  0.11847375561E+02  0.21405332789E+03  0.22678511788E+03  0.00000000000E+00 0. -1.
         22    1    3    3    0    0 -0.56487701806E+02 -0.87031027436E+02  0.52246685399E+02  0.11616787993E+03  0.00000000000E+00 0.  1.
         22    1    3    3    0    0 -0.10350096436E+03  0.27892588751E+02  0.37611981067E+02  0.11360064810E+03  0.00000000000E+00 0.  1.
</event>
<event>
 7    1  0.9693888E-006  0.6125382E+02  0.7818608E-02  0.1440504E+00
          2   -1    0    0  502    0  0.00000000000E+00  0.00000000000E+00  0.26277379567E+04  0.26277379567E+04  0.00000000000E+00 0. -1.
          1   -1    0    0  501    0 -0.00000000000E+00 -0.00000000000E+00 -0.17596608585E+04  0.17596608585E+04  0.00000000000E+00 0. -1.
         25    2    1    2    0    0  0.66331993493E+02 -0.58407775559E+02 -0.15326922108E+03  0.21662920489E+03  0.12500142669E+03 0.  0.
          2    1    1    2  501    0 -0.58533969644E+02  0.16822927887E+02 -0.15739502792E+04  0.15751281592E+04  0.00000000000E+00 0. -1.
          1    1    1    2  502    0 -0.77980238490E+01  0.41584847672E+02  0.25952965985E+04  0.25956414512E+04  0.00000000000E+00 0. -1.
         22    1    3    3    0    0  0.97277132997E+02 -0.14982628964E+02 -0.85330622271E+02  0.13026371280E+03  0.00000000000E+00 0. -1.
         22    1    3    3    0    0 -0.30945139504E+02 -0.43425146595E+02 -0.67938598810E+02  0.86365492090E+02  0.00000000000E+00 0. -1.
</event>
<event>
 7    1  0.5854318E-006  0.5783599E+02  0.7818608E-02  0.1435138E+00
          2   -1    0    0  502    0  0.00000000000E+00  0.00000000000E+00  0.22167598953E+03  0.22167598953E+03  0.00000000000E+00 0. -1.
          1   -1    0    0  501    0 -0.00000000000E+00 -0.00000000000E+00 -0.60531171502E+03  0.60531171502E+03  0.00000000000E+00 0. -1.
         25    2    1    2    0    0 -0.42829378596E+02 -0.17510471871E+02 -0.24777718812E+03  0.28135327835E+03  0.12500063996E+03 0.  0.
          2    1    1    2  501    0  0.26443882490E+02 -0.38430346770E+02 -0.33495107042E+03  0.33818395889E+03  0.00000000000E+00 0. -1.
          1    1    1    2  502    0  0.16385496106E+02  0.55940818640E+02  0.19909253305E+03  0.20745046731E+03  0.00000000000E+00 0. -1.
         22    1    3    3    0    0 -0.13768210078E+02  0.54136314630E+02 -0.98229974205E+02  0.11300191150E+03  0.00000000000E+00 0. -1.
         22    1    3    3    0    0 -0.29061168518E+02 -0.71646786501E+02 -0.14954721391E+03  0.16835136685E+03  0.00000000000E+00 0. -1.
</event>
<event>
 7    1  0.5854318E-006  0.5432258E+02  0.7818608E-02  0.1455297E+00
          2   -1    0    0  502    0  0.00000000000E+00  0.00000000000E+00  0.69653030143E+02  0.69653030143E+02  0.00000000000E+00 0. -1.
          1   -1    0    0  501    0 -0.00000000000E+00 -0.00000000000E+00 -0.17932070492E+04  0.17932070492E+04  0.00000000000E+00 0. -1.
         25    2    1    2    0    0  0.24097726015E+02 -0.15295011157E+02 -0.40151703268E+03  0.42149265383E+03  0.12500196774E+03 0.  0.
          2    1    1    2  501    0 -0.16196168384E+02 -0.39582749180E+02 -0.13684153813E+04  0.13690835496E+04  0.00000000000E+00 0. -1.
          1    1    1    2  502    0 -0.79015576308E+01  0.54877760337E+02  0.46378394980E+02  0.72283875889E+02  0.00000000000E+00 0. -1.
         22    1    3    3    0    0 -0.29878275651E+02  0.35736253280E+02 -0.91175572375E+02  0.10238542939E+03  0.00000000000E+00 0.  1.
         22    1    3    3    0    0  0.53976001665E+02 -0.51031264437E+02 -0.31034146030E+03  0.31910722444E+03  0.00000000000E+00 0.  1.
</event>
<event>
 7    1  0.7556956E-006  0.8349880E+02  0.7818608E-02  0.1352572E+00
          2   -1    0    0  502    0  0.00000000000E+00  0.00000000000E+00  0.17498753292E+04  0.17498753292E+04  0.00000000000E+00 0. -1.
          1   -1    0    0  501    0 -0.00000000000E+00 -0.00000000000E+00 -0.37577288576E+03  0.37577288576E+03  0.00000000000E+00 0. -1.
         25    2    1    2    0    0  0.64762967269E+02  0.68217211985E+02  0.57280791149E+02  0.16659444688E+03  0.12499916303E+03 0.  0.
          2    1    1    2  501    0 -0.42369028758E+01 -0.83935754579E+02 -0.31500799217E+03  0.32602637528E+03  0.00000000000E+00 0. -1.
          1    1    1    2  502    0 -0.60526064393E+02  0.15718542594E+02  0.16318296445E+04  0.16330273928E+04  0.00000000000E+00 0. -1.
         22    1    3    3    0    0 -0.76402782565E+01  0.25539855205E+01 -0.32737509890E+02  0.33714110513E+02  0.00000000000E+00 0.  1.
         22    1    3    3    0    0  0.72403245526E+02  0.65663226465E+02  0.90018301039E+02  0.13288033637E+03  0.00000000000E+00 0.  1.
</event>
<event>
 7    1  0.5854318E-006  0.4137756E+02  0.7818608E-02  0.1547311E+00
          2   -1    0    0  502    0  0.00000000000E+00  0.00000000000E+00  0.10407009991E+03  0.10407009991E+03  0.00000000000E+00 0. -1.
          1   -1    0    0  501    0 -0.00000000000E+00 -0.00000000000E+00 -0.49462496143E+03  0.49462496143E+03  0.00000000000E+00 0. -1.
         25    2    1    2    0    0  0.50973532920E+02  0.48842349821E+02 -0.22403443212E+03  0.26608499459E+03  0.12500368544E+03 0.  0.
          2    1    1    2  501    0 -0.20833481625E+02 -0.21380612151E+02 -0.24359349077E+03  0.24541587821E+03  0.00000000000E+00 0. -1.
          1    1    1    2  502    0 -0.30140051295E+02 -0.27461737671E+02  0.77073061365E+02  0.87194188545E+02  0.00000000000E+00 0. -1.
         22    1    3    3    0    0 -0.26097847558E+02 -0.17811104108E+02 -0.18334149829E+02  0.36530454783E+02  0.00000000000E+00 0.  1.
         22    1    3    3    0    0  0.77071380479E+02  0.66653453930E+02 -0.20570028229E+03  0.22955453980E+03  0.00000000000E+00 0.  1.
</event>
<event>
 7    1  0.5854318E-006  0.6184819E+02  0.7818608E-02  0.1483140E+00
          2   -1    0    0  502    0  0.00000000000E+00  0.00000000000E+00  0.17684751915E+04  0.17684751915E+04  0.00000000000E+00 0. -1.
          1   -1    0    0  501    0 -0.00000000000E+00 -0.00000000000E+00 -0.85544069057E+03  0.85544069057E+03  0.00000000000E+00 0. -1.
         25    2    1    2    0    0 -0.39216520264E+01  0.81814999543E+02 -0.19763200140E+02  0.15075652797E+03  0.12501149204E+03 0.  0.
          2    1    1    2  501    0  0.21003673395E+02 -0.22479992089E+02 -0.76931359540E+03  0.76992851123E+03  0.00000000000E+00 0. -1.
          1    1    1    2  502    0 -0.17082021368E+02 -0.59335007454E+02  0.17021112965E+04  0.17032308429E+04  0.00000000000E+00 0. -1.
         22    1    3    3    0    0  0.57835487275E+02  0.33377510055E+02 -0.26804623884E+02  0.71954774876E+02  0.00000000000E+00 0. -1.
         22    1    3    3    0    0 -0.61757139302E+02  0.48437489488E+02  0.70414237442E+01  0.78801753096E+02  0.00000000000E+00 0. -1.
</event>
<event>
 7    1  0.5854318E-006  0.9496671E+02  0.7818608E-02  0.1296891E+00
          2   -1    0    0  502    0  0.00000000000E+00  0.00000000000E+00  0.49858824921E+03  0.49858824921E+03  0.00000000000E+00 0. -1.
          1   -1    0    0  501    0 -0.00000000000E+00 -0.00000000000E+00 -0.22491978449E+03  0.22491978449E+03  0.00000000000E+00 0. -1.
         25    2    1    2    0    0 -0.64148704240E+01 -0.75107182805E+02  0.40763857369E+02  0.15155508320E+03  0.12500004682E+03 0.  0.
          2    1    1    2  501    0 -0.84444356100E+02  0.43449117715E+02 -0.14978489767E+03  0.17735329340E+03  0.00000000000E+00 0. -1.
          1    1    1    2  502    0  0.90859226524E+02  0.31658065090E+02  0.38268950502E+03  0.39459965710E+03  0.00000000000E+00 0. -1.
         22    1    3    3    0    0  0.22176769663E+02  0.28584031616E+02  0.22079258255E+02  0.42383364911E+02  0.00000000000E+00 0. -1.
         22    1    3    3    0    0 -0.28591640087E+02 -0.10369121442E+03  0.18684599114E+02  0.10917171829E+03  0.00000000000E+00 0. -1.
</event>
<event>
 7    1  0.5854318E-006  0.1169122E+03  0.7818608E-02  0.1340960E+00
          2   -1    0    0  502    0  0.00000000000E+00  0.00000000000E+00  0.18827912900E+02  0.18827912900E+02  0.00000000000E+00 0. -1.
          1   -1    0    0  501    0 -0.00000000000E+00 -0.00000000000E+00 -0.20692518861E+04  0.20692518861E+04  0.00000000000E+00 0. -1.
         25    2    1    2    0    0  0.33650382646E+02  0.78937148757E+02 -0.73197666776E+03  0.74751544373E+03  0.12500429899E+03 0.  0.
          2    1    1    2  501    0 -0.28651375262E+02 -0.12802037955E+03 -0.12461536748E+04  0.12530399435E+04  0.00000000000E+00 0. -1.
          1    1    1    2  502    0 -0.49990073839E+01  0.49083230794E+02 -0.72293630720E+02  0.87524411810E+02  0.00000000000E+00 0. -1.
         22    1    3    3    0    0 -0.12434171512E+02 -0.29910944231E+02 -0.12443617418E+03  0.12858318184E+03  0.00000000000E+00 0.  1.
         22    1    3    3    0    0  0.46084554158E+02  0.10884809299E+03 -0.60754049358E+03  0.61893226190E+03  0.00000000000E+00 0.  1.
</event>
<event>
 7    1  0.5854318E-006  0.2561819E+03  0.7818608E-02  0.1261536E+00
          2   -1    0    0  502    0  0.00000000000E+00  0.00000000000E+00  0.13672210081E+04  0.13672210081E+04  0.00000000000E+00 0. -1.
          1   -1    0    0  501    0 -0.00000000000E+00 -0.00000000000E+00 -0.32162426123E+03  0.32162426123E+03  0.00000000000E+00 0. -1.
         25    2    1    2    0    0  0.25514030246E+03 -0.59707997481E+02  0.38950783338E+03  0.48580471151E+03  0.12501298558E+03 0.  0.
          2    1    1    2  501    0 -0.30395803850E+00  0.46785614260E+02 -0.25378664689E+03  0.25806326401E+03  0.00000000000E+00 0. -1.
          1    1    1    2  502    0 -0.25483634442E+03  0.12922383221E+02  0.90987556039E+03  0.94497729381E+03  0.00000000000E+00 0. -1.
         22    1    3    3    0    0  0.11054007952E+03  0.32094293671E+02  0.19672092529E+03  0.22792164293E+03  0.00000000000E+00 0. -1.
         22    1    3    3    0    0  0.14460022293E+03 -0.91802291152E+02  0.19278690808E+03  0.25788306858E+03  0.00000000000E+00 0. -1.
</event>
<event>
 7    1  0.5854318E-006  0.8465868E+02  0.7818608E-02  0.1414346E+00
          2   -1    0    0  502    0  0.00000000000E+00  0.00000000000E+00  0.13725655942E+04  0.13725655942E+04  0.00000000000E+00 0. -1.
          1   -1    0    0  501    0 -0.00000000000E+00 -0.00000000000E+00 -0.26568685168E+03  0.26568685168E+03  0.00000000000E+00 0. -1.
         25    2    1    2    0    0 -0.67306714210E+02 -0.87634324446E+02  0.92472313624E+03  0.93965326588E+03  0.12500165111E+03 0.  0.
          2    1    1    2  501    0  0.67906947363E+02  0.50284494050E+02 -0.25048280779E+03  0.26435113172E+03  0.00000000000E+00 0. -1.
          1    1    1    2  502    0 -0.60023315281E+00  0.37349830396E+02  0.43263841410E+03  0.43424804832E+03  0.00000000000E+00 0. -1.
         22    1    3    3    0    0 -0.40601394582E+02 -0.10293529111E+03  0.43120265623E+03  0.44517398637E+03  0.00000000000E+00 0.  1.
         22    1    3    3    0    0 -0.26705319628E+02  0.15300966662E+02  0.49352048001E+03  0.49447927951E+03  0.00000000000E+00 0.  1.
</event>
<event>
 7    1  0.5854318E-006  0.2573572E+02  0.7818608E-02  0.1660058E+00
          2   -1    0    0  502    0  0.00000000000E+00  0.00000000000E+00  0.90854429973E+01  0.90854429973E+01  0.00000000000E+00 0. -1.
          1   -1    0    0  501    0 -0.00000000000E+00 -0.00000000000E+00 -0.20664033161E+04  0.20664033161E+04  0.00000000000E+00 0. -1.
         25    2    1    2    0    0 -0.14082473688E+02 -0.40053912470E+02 -0.68959531684E+03  0.70211768302E+03  0.12499963132E+03 0.  0.
          2    1    1    2  501    0  0.19651148916E+02  0.16284031343E+02 -0.13152457564E+04  0.13154933436E+04  0.00000000000E+00 0. -1.
          1    1    1    2  502    0 -0.55686752278E+01  0.23769881128E+02 -0.52476799831E+02  0.57877732446E+02  0.00000000000E+00 0. -1.
         22    1    3    3    0    0 -0.12913414026E+01  0.10159242289E+02 -0.58783562402E+03  0.58792482397E+03  0.00000000000E+00 0. -1.
         22    1    3    3    0    0 -0.12791132286E+02 -0.50213154759E+02 -0.10175969282E+03  0.11419285905E+03  0.00000000000E+00 0. -1.
</event>
<event>
 7    1  0.5854318E-006  0.6025601E+02  0.7818608E-02  0.1453232E+00
          2   -1    0    0  502    0  0.00000000000E+00  0.00000000000E+00  0.22579089758E+04  0.22579089758E+04  0.00000000000E+00 0. -1.
          1   -1    0    0  501    0 -0.00000000000E+00 -0.00000000000E+00 -0.12848478328E+02  0.12848478328E+02  0.00000000000E+00 0. -1.
         25    2    1    2    0    0 -0.47649398211E+02 -0.93551475313E+01  0.13907037437E+04  0.13971541262E+04  0.12499906274E+03 0.  0.
          2    1    1    2  501    0  0.39542708211E+02  0.47650829525E+02  0.96003835235E+02  0.11424081454E+03  0.00000000000E+00 0. -1.
          1    1    1    2  502    0  0.81066899995E+01 -0.38295681994E+02  0.75835291854E+03  0.75936251339E+03  0.00000000000E+00 0. -1.
         22    1    3    3    0    0  0.14136396374E+02  0.20938552852E+01  0.17862570949E+02  0.22875606513E+02  0.00000000000E+00 0.  1.
         22    1    3    3    0    0 -0.61785794585E+02 -0.11449002816E+02  0.13728411728E+04  0.13742785197E+04  0.00000000000E+00 0.  1.
</event>
<event>
 7    1  0.5854318E-006  0.4561341E+02  0.7818608E-02  0.1525662E+00
          2   -1    0    0  502    0  0.00000000000E+00  0.00000000000E+00  0.15475793571E+04  0.15475793571E+04  0.00000000000E+00 0. -1.
          1   -1    0    0  501    0 -0.00000000000E+00 -0.00000000000E+00 -0.10284873199E+04  0.10284873199E+04  0.00000000000E+00 0. -1.
         25    2    1    2    0    0 -0.36411328010E+02  0.97067555333E+01 -0.10339565947E+03  0.16654185649E+03  0.12500208661E+03 0.  0.
          2    1    1    2  501    0  0.11923966848E+02  0.28830357388E+02 -0.89290226519E+03  0.89344715886E+03  0.00000000000E+00 0. -1.
          1    1    1    2  502    0  0.24487361162E+02 -0.38537112921E+02  0.15153899618E+04  0.15160776617E+04  0.00000000000E+00 0. -1.
         22    1    3    3    0    0 -0.55098107048E+02  0.68624947722E+01 -0.12563357115E+03  0.13735606807E+03  0.00000000000E+00 0. -1.
         22    1    3    3    0    0  0.18686779038E+02  0.28442607611E+01  0.22237911684E+02  0.29185788428E+02  0.00000000000E+00 0. -1.
</event>
<event>
 7    1  0.5854318E-006  0.6644304E+02  0.7818608E-02  0.1376969E+00
          2   -1    0    0  502    0  0.00000000000E+00  0.00000000000E+00  0.37694833246E+03  0.37694833246E+03  0.00000000000E+00 0. -1.
          1   -1    0    0  501    0 -0.00000000000E+00 -0.00000000000E+00 -0.10134017325E+04  0.10134017325E+04  0.00000000000E+00 0. -1.
         25    2    1    2    0    0  0.10153278004E+03 -0.80474410889E+02  0.11088373436E+03  0.21143669726E+03  0.12500095267E+03 0.  0.
          2    1    1    2  501    0 -0.47774512637E+02  0.45539290679E+02 -0.95720154223E+03  0.95947434749E+03  0.00000000000E+00 0. -1.
          1    1    1    2  502    0 -0.53758267408E+02  0.34935120211E+02  0.20986440780E+03  0.21943902023E+03  0.00000000000E+00 0. -1.
         22    1    3    3    0    0 -0.36996136939E+01  0.11527975274E+02  0.62283429745E+02  0.63449247247E+02  0.00000000000E+00 0.  1.
         22    1    3    3    0    0  0.10523239374E+03 -0.92002386164E+02  0.48600304619E+02  0.14798745001E+03  0.00000000000E+00 0.  1.
</event>
<event>
 7    1  0.5854318E-006  0.4138006E+02  0.7818608E-02  0.1520021E+00
          2   -1    0    0  502    0  0.00000000000E+00  0.00000000000E+00  0.33261758798E+03  0.33261758798E+03  0.00000000000E+00 0. -1.
          1   -1    0    0  501    0 -0.00000000000E+00 -0.00000000000E+00 -0.56107311400E+03  0.56107311400E+03  0.00000000000E+00 0. -1.
         25    2    1    2    0    0 -0.20812305043E+01 -0.68342713040E+02  0.11601371616E+03  0.18373761743E+03  0.12500108709E+03 0.  0.
          2    1    1    2  501    0 -0.15214870625E+02  0.32303715825E+02 -0.52441064875E+03  0.52562491461E+03  0.00000000000E+00 0. -1.
          1    1    1    2  502    0  0.17296101129E+02  0.36038997215E+02  0.17994140656E+03  0.18432816993E+03  0.00000000000E+00 0. -1.
         22    1    3    3    0    0  0.52085002111E+02 -0.18993157162E+02  0.90530029880E+02  0.10615683574E+03  0.00000000000E+00 0.  1.
         22    1    3    3    0    0 -0.54166232615E+02 -0.49349555878E+02  0.25483686281E+02  0.77580781689E+02  0.00000000000E+00 0.  1.
</event>
<event>
 7    1  0.5854318E-006  0.7717220E+02  0.7818608E-02  0.1430841E+00
          2   -1    0    0  502    0  0.00000000000E+00  0.00000000000E+00  0.38022509534E+02  0.38022509534E+02  0.00000000000E+00 0. -1.
          1   -1    0    0  501    0 -0.00000000000E+00 -0.00000000000E+00 -0.22530639490E+04  0.22530639490E+04  0.00000000000E+00 0. -1.
         25    2    1    2    0    0  0.44049536371E+02 -0.65913430605E+00 -0.14904440253E+03  0.19944866035E+03  0.12499895231E+03 0.  0.
          2    1    1    2  501    0 -0.76815423820E+02 -0.14525630396E+02 -0.20510727117E+04  0.20525620263E+04  0.00000000000E+00 0. -1.
          1    1    1    2  502    0  0.32765887449E+02  0.15184764702E+02 -0.14924325195E+02  0.39075771801E+02  0.00000000000E+00 0. -1.
         22    1    3    3    0    0 -0.77658141397E+01 -0.90432436321E+01 -0.14640881662E+03  0.14689325958E+03  0.00000000000E+00 0. -1.
         22    1    3    3    0    0  0.51815350511E+02  0.83841093261E+01 -0.26355859057E+01  0.52555400777E+02  0.00000000000E+00 0. -1.
</event>
<event>
 7    1  0.5854318E-006  0.5422432E+02  0.7818608E-02  0.1465617E+00
          2   -1    0    0  502    0  0.00000000000E+00  0.00000000000E+00  0.14659453979E+04  0.14659453979E+04  0.00000000000E+00 0. -1.
          1   -1    0    0  501    0 -0.00000000000E+00 -0.00000000000E+00 -0.27587460264E+03  0.27587460264E+03  0.00000000000E+00 0. -1.
         25    2    1    2    0    0 -0.11403122660E+02 -0.92592045802E+02  0.76380257494E+03  0.77956594245E+03  0.12500146800E+03 0.  0.
          2    1    1    2  501    0  0.16137238851E+01  0.54063193794E+02 -0.26468675742E+03  0.27015645945E+03  0.00000000000E+00 0. -1.
          1    1    1    2  502    0  0.97893987748E+01  0.38528852008E+02  0.69095497779E+03  0.69209759868E+03  0.00000000000E+00 0. -1.
         22    1    3    3    0    0  0.33974132121E+02 -0.10227475572E+03  0.47602485972E+03  0.48807175126E+03  0.00000000000E+00 0. -1.
         22    1    3    3    0    0 -0.45377254781E+02  0.96827099136E+01  0.28777771522E+03  0.29149419119E+03  0.00000000000E+00 0. -1.
</event>
<event>
 7    1  0.5854318E-006  0.8400395E+02  0.7818608E-02  0.1338408E+00
          2   -1    0    0  502    0  0.00000000000E+00  0.00000000000E+00  0.29166285814E+02  0.29166285814E+02  0.00000000000E+00 0. -1.
          1   -1    0    0  501    0 -0.00000000000E+00 -0.00000000000E+00 -0.12024028481E+04  0.12024028481E+04  0.00000000000E+00 0. -1.
         25    2    1    2    0    0  0.11273541033E+02 -0.56820151283E+02 -0.37529468152E+03  0.39978287551E+03  0.12499850901E+03 0.  0.
          2    1    1    2  501    0  0.56145647334E+02  0.76384640614E+02 -0.72266184692E+03  0.72885327195E+03  0.00000000000E+00 0. -1.
          1    1    1    2  502    0 -0.67419188367E+02 -0.19564489332E+02 -0.75280033815E+02  0.10293298642E+03  0.00000000000E+00 0. -1.
         22    1    3    3    0    0 -0.16100100203E+02 -0.88722262377E+02 -0.19788600340E+03  0.21746200452E+03  0.00000000000E+00 0. -1.
         22    1    3    3    0    0  0.27373641236E+02  0.31902111094E+02 -0.17740867812E+03  0.18232087099E+03  0.00000000000E+00 0. -1.
</event>
<event>
 7    1  0.5854318E-006  0.6181342E+02  0.7818608E-02  0.1390507E+00
          2   -1    0    0  502    0  0.00000000000E+00  0.00000000000E+00  0.46485013305E+04  0.46485013305E+04  0.00000000000E+00 0. -1.
          1   -1    0    0  501    0 -0.00000000000E+00 -0.00000000000E+00 -0.17562800826E+03  0.17562800826E+03  0.00000000000E+00 0. -1.
         25    2    1    2    0    0  0.74317721718E+02 -0.30667110169E+02  0.25152645229E+04  0.25196516469E+04  0.12500082386E+03 0.  0.
          2    1    1    2  501    0 -0.18484084192E+02  0.58985065014E+02 -0.16745108720E+03  0.17849584272E+03  0.00000000000E+00 0. -1.
          1    1    1    2  502    0 -0.55833637526E+02 -0.28317954845E+02  0.21250598865E+04  0.21259818491E+04  0.00000000000E+00 0. -1.
         22    1    3    3    0    0  0.71914191087E+02 -0.10181361553E+02  0.61482981181E+03  0.61910500603E+03  0.00000000000E+00 0. -1.
         22    1    3    3    0    0  0.24035306314E+01 -0.20485748616E+02  0.19004347111E+04  0.19005466408E+04  0.00000000000E+00 0. -1.
</event>
<event>
 7    1  0.5854318E-006  0.5206638E+02  0.7818608E-02  0.1557305E+00
          2   -1    0    0  502    0  0.00000000000E+00  0.00000000000E+00  0.16106093833E+04  0.16106093833E+04  0.00000000000E+00 0. -1.
          1   -1    0    0  501    0 -0.00000000000E+00 -0.00000000000E+00 -0.11431615865E+03  0.11431615865E+03  0.00000000000E+00 0. -1.
         25    2    1    2    0    0  0.27130085027E+02  0.65909009183E+02  0.30661178565E+03  0.33869751031E+03  0.12500070955E+03 0.  0.
          2    1    1    2  501    0  0.15343958706E+00 -0.22252690020E+02 -0.96491954522E+02  0.99024759754E+02  0.00000000000E+00 0. -1.
          1    1    1    2  502    0 -0.27283524614E+02 -0.43656319163E+02  0.12861733936E+04  0.12872032719E+04  0.00000000000E+00 0. -1.
         22    1    3    3    0    0  0.34268302311E+02  0.48660917742E+02  0.31327401150E+03  0.31887741804E+03  0.00000000000E+00 0. -1.
         22    1    3    3    0    0 -0.71382172840E+01  0.17248091441E+02 -0.66622258474E+01  0.19820092270E+02  0.00000000000E+00 0. -1.
</event>
<event>
 7    1  0.5854318E-006  0.5780284E+02  0.7818608E-02  0.1474095E+00
          2   -1    0    0  502    0  0.00000000000E+00  0.00000000000E+00  0.18721286795E+03  0.18721286795E+03  0.00000000000E+00 0. -1.
          1   -1    0    0  501    0 -0.00000000000E+00 -0.00000000000E+00 -0.77471362948E+03  0.77471362948E+03  0.00000000000E+00 0. -1.
         25    2    1    2    0    0  0.50048281981E+02  0.53545274193E+02 -0.72522029398E+01  0.14507103997E+03  0.12498434011E+03 0.  0.
          2    1    1    2  501    0  0.39036040740E+01 -0.34876700145E+02 -0.69119317840E+03  0.69208354423E+03  0.00000000000E+00 0. -1.
          1    1    1    2  502    0 -0.53951886055E+02 -0.18668574049E+02  0.11094461981E+03  0.12477191323E+03  0.00000000000E+00 0. -1.
         22    1    3    3    0    0  0.88536662238E+02  0.33327810197E+02  0.15721200381E+02  0.95899111749E+02  0.00000000000E+00 0.  1.
         22    1    3    3    0    0 -0.38488380256E+02  0.20217463996E+02 -0.22973403321E+02  0.49171928225E+02  0.00000000000E+00 0.  1.
</event>
<event>
 7    1  0.5854318E-006  0.3322376E+02  0.7818608E-02  0.1609966E+00
          2   -1    0    0  502    0  0.00000000000E+00  0.00000000000E+00  0.11402827344E+03  0.11402827344E+03  0.00000000000E+00 0. -1.
          1   -1    0    0  501    0 -0.00000000000E+00 -0.00000000000E+00 -0.51387148501E+03  0.51387148501E+03  0.00000000000E+00 0. -1.
         25    2    1    2    0    0  0.28652815221E+02 -0.34852594330E+02 -0.15299824755E+03  0.20265199647E+03  0.12499472296E+03 0.  0.
          2    1    1    2  501    0 -0.31583443044E+02  0.97932660374E+01 -0.33342797862E+03  0.33506363405E+03  0.00000000000E+00 0. -1.
          1    1    1    2  502    0  0.29306278233E+01  0.25059328293E+02  0.86583014600E+02  0.90184127934E+02  0.00000000000E+00 0. -1.
         22    1    3    3    0    0  0.43852936382E+02  0.20690252363E+02 -0.13321179866E+03  0.14176230061E+03  0.00000000000E+00 0.  1.
         22    1    3    3    0    0 -0.15200121161E+02 -0.55542846693E+02 -0.19786448886E+02  0.60889695857E+02  0.00000000000E+00 0.  1.
</event>
<event>
 7    1  0.5854318E-006  0.1132412E+03  0.7818608E-02  0.1442845E+00
          2   -1    0    0  502    0  0.00000000000E+00  0.00000000000E+00  0.41479651509E+03  0.41479651509E+03  0.00000000000E+00 0. -1.
          1   -1    0    0  501    0 -0.00000000000E+00 -0.00000000000E+00 -0.36089148045E+03  0.36089148045E+03  0.00000000000E+00 0. -1.
         25    2    1    2    0    0 -0.11947989866E+03 -0.50950076473E+02 -0.15342856139E+03  0.23671483232E+03  0.12498892716E+03 0.  0.
          2    1    1    2  501    0  0.11451976042E+02  0.19356043974E+02 -0.15651037888E+03  0.15811800305E+03  0.00000000000E+00 0. -1.
          1    1    1    2  502    0  0.10802792261E+03  0.31594032499E+02  0.36384397490E+03  0.38085516017E+03  0.00000000000E+00 0. -1.
         22    1    3    3    0    0 -0.22924492602E+02 -0.49552066459E+02  0.96870695850E+00  0.54606575104E+02  0.00000000000E+00 0. -1.
         22    1    3    3    0    0 -0.96555406055E+02 -0.13980100135E+01 -0.15439726835E+03  0.18210825721E+03  0.00000000000E+00 0. -1.
</event>
<event>
 7    1  0.5854318E-006  0.4802875E+02  0.7818608E-02  0.1468993E+00
          2   -1    0    0  502    0  0.00000000000E+00  0.00000000000E+00  0.68764963244E+03  0.68764963244E+03  0.00000000000E+00 0. -1.
          1   -1    0    0  501    0 -0.00000000000E+00 -0.00000000000E+00 -0.75896297481E+02  0.75896297481E+02  0.00000000000E+00 0. -1.
         25    2    1    2    0    0  0.39273572219E+02 -0.50813874721E+02  0.12052261066E+02  0.14105081172E+03  0.12500244458E+03 0.  0.
          2    1    1    2  501    0  0.39698846109E+01  0.43823652339E+02  0.35342432346E+02  0.56438993721E+02  0.00000000000E+00 0. -1.
          1    1    1    2  502    0 -0.43243456830E+02  0.69902223822E+01  0.56435864154E+03  0.56605612447E+03  0.00000000000E+00 0. -1.
         22    1    3    3    0    0  0.30790225937E+01 -0.46874860216E+02  0.62904154104E+02  0.78509015431E+02  0.00000000000E+00 0. -1.
         22    1    3    3    0    0  0.36194549625E+02 -0.39390145052E+01 -0.50851893039E+02  0.62541796292E+02  0.00000000000E+00 0. -1.
</event>
<event>
 7    1  0.5854318E-006  0.7363357E+02  0.7818608E-02  0.1349575E+00
          2   -1    0    0  502    0  0.00000000000E+00  0.00000000000E+00  0.49229024734E+02  0.49229024734E+02  0.00000000000E+00 0. -1.
          1   -1    0    0  501    0 -0.00000000000E+00 -0.00000000000E+00 -0.53849637278E+03  0.53849637278E+03  0.00000000000E+00 0. -1.
         25    2    1    2    0    0  0.78804152789E+01  0.45922586769E+02 -0.23471386225E+03  0.26997678792E+03  0.12500353581E+03 0.  0.
          2    1    1    2  501    0  0.57800964892E+02 -0.77193467436E+02 -0.21337890151E+03  0.23415878922E+03  0.00000000000E+00 0. -1.
          1    1    1    2  502    0 -0.65681380171E+02  0.31270880667E+02 -0.41174584285E+02  0.83589820372E+02  0.00000000000E+00 0. -1.
         22    1    3    3    0    0 -0.56362181995E+02  0.39529019958E+02 -0.12199967537E+03  0.14008268904E+03  0.00000000000E+00 0. -1.
         22    1    3    3    0    0  0.64242597274E+02  0.63935668110E+01 -0.11271418688E+03  0.12989409889E+03  0.00000000000E+00 0. -1.
</event>
<event>
 7    1  0.5854318E-006  0.3247471E+03  0.7818608E-02  0.1304769E+00
          2   -1    0    0  502    0  0.00000000000E+00  0.00000000000E+00  0.10553217394E+04  0.10553217394E+04  0.00000000000E+00 0. -1.
          1   -1    0    0  501    0 -0.00000000000E+00 -0.00000000000E+00 -0.32888616863E+03  0.32888616863E+03  0.00000000000E+00 0. -1.
         25    2    1    2    0    0 -0.27412262277E+03  0.19623131914E+03  0.12435342949E+03  0.38044584305E+03  0.12500128456E+03 0.  0.
          2    1    1    2  501    0  0.24968046089E+03 -0.19802738432E+03 -0.74064996793E+02  0.32717090525E+03  0.00000000000E+00 0. -1.
          1    1    1    2  502    0  0.24442161871E+02  0.17960651758E+01  0.67614713808E+03  0.67659115975E+03  0.00000000000E+00 0. -1.
         22    1    3    3    0    0 -0.34249777483E+02  0.91468621934E+02  0.29333878909E+02  0.10198054966E+03  0.00000000000E+00 0.  1.
         22    1    3    3    0    0 -0.23987284528E+03  0.10476269721E+03  0.95019550585E+02  0.27846529339E+03  0.00000000000E+00 0.  1.
</event>
<event>
 7    1  0.5854318E-006  0.7581427E+02  0.7818608E-02  0.1414835E+00
          2   -1    0    0  502    0  0.00000000000E+00  0.00000000000E+00  0.15657309013E+04  0.15657309013E+04  0.00000000000E+00 0. -1.
          1   -1    0    0  501    0 -0.00000000000E+00 -0.00000000000E+00 -0.22588162216E+02  0.22588162216E+02  0.00000000000E+00 0. -1.
         25    2    1    2    0    0 -0.98927333221E+02 -0.12782525679E+02  0.12421420940E+04  0.12523934510E+04  0.12498945654E+03 0.  0.
          2    1    1    2  501    0  0.64935355798E+02  0.36685090926E+02  0.73682081371E+02  0.10484009464E+03  0.00000000000E+00 0. -1.
          1    1    1    2  502    0  0.33991977422E+02 -0.23902565248E+02  0.22731856369E+03  0.23108551783E+03  0.00000000000E+00 0. -1.
         22    1    3    3    0    0 -0.61880570770E+02  0.30407301611E+02  0.10431371709E+04  0.10454132993E+04  0.00000000000E+00 0. -1.
         22    1    3    3    0    0 -0.37046762451E+02 -0.43189827290E+02  0.19900492310E+03  0.20698015172E+03  0.00000000000E+00 0. -1.
</event>
<event>
 7    1  0.5854318E-006  0.1394301E+03  0.7818608E-02  0.1233339E+00
          2   -1    0    0  502    0  0.00000000000E+00  0.00000000000E+00  0.11333696718E+04  0.11333696718E+04  0.00000000000E+00 0. -1.
          1   -1    0    0  501    0 -0.00000000000E+00 -0.00000000000E+00 -0.11401869614E+04  0.11401869614E+04  0.00000000000E+00 0. -1.
         25    2    1    2    0    0 -0.11759289994E+03 -0.57393660353E+02 -0.33773398414E+03  0.38315868367E+03  0.12499684180E+03 0.  0.
          2    1    1    2  501    0  0.45901878196E+02  0.14611819253E+03 -0.76924228263E+03  0.78434125098E+03  0.00000000000E+00 0. -1.
          1    1    1    2  502    0  0.71691021748E+02 -0.88724532172E+02  0.11001589772E+04  0.11060566985E+04  0.00000000000E+00 0. -1.
         22    1    3    3    0    0 -0.69231065307E+02 -0.14070427680E+02 -0.29969168842E+03  0.30790587108E+03  0.00000000000E+00 0. -1.
         22    1    3    3    0    0 -0.48361834637E+02 -0.43323232673E+02 -0.38042295724E+02  0.75252812590E+02  0.00000000000E+00 0. -1.
</event>
<event>
 7    1  0.5854318E-006  0.8632403E+02  0.7818608E-02  0.1418755E+00
          2   -1    0    0  502    0  0.00000000000E+00  0.00000000000E+00  0.65634899783E+03  0.65634899783E+03  0.00000000000E+00 0. -1.
          1   -1    0    0  501    0 -0.00000000000E+00 -0.00000000000E+00 -0.31961961373E+02  0.31961961373E+02  0.00000000000E+00 0. -1.
         25    2    1    2    0    0 -0.65929936897E+02  0.28185214466E+02  0.32523025870E+03  0.35572711272E+03  0.12500357858E+03 0.  0.
          2    1    1    2  501    0  0.78168026099E+02 -0.61409793078E+02  0.26642521548E+03  0.28436560698E+03  0.00000000000E+00 0. -1.
          1    1    1    2  502    0 -0.12238089202E+02  0.33224578612E+02  0.32731562277E+02  0.48218239499E+02  0.00000000000E+00 0. -1.
         22    1    3    3    0    0  0.30141406983E+02 -0.95583769484E+01  0.32556114384E+02  0.45384662261E+02  0.00000000000E+00 0.  1.
         22    1    3    3    0    0 -0.96071343880E+02  0.37743591414E+02  0.29267414432E+03  0.31034245046E+03  0.00000000000E+00 0.  1.
</event>
<event>
 7    1  0.5854318E-006  0.1289435E+03  0.7818608E-02  0.1315519E+00
          2   -1    0    0  502    0  0.00000000000E+00  0.00000000000E+00  0.71006154581E+03  0.71006154581E+03  0.00000000000E+00 0. -1.
          1   -1    0    0  501    0 -0.00000000000E+00 -0.00000000000E+00 -0.57990991192E+03  0.57990991192E+03  0.00000000000E+00 0. -1.
         25    2    1    2    0    0 -0.10498255988E+03  0.50573192791E+02  0.23547564170E+03  0.29095200666E+03  0.12500122654E+03 0.  0.
          2    1    1    2  501    0  0.12962657748E+03 -0.29985722366E+00 -0.54275503340E+03  0.55801986147E+03  0.00000000000E+00 0. -1.
          1    1    1    2  502    0 -0.24644017605E+02 -0.50273335568E+02  0.43743102560E+03  0.44099958961E+03  0.00000000000E+00 0. -1.
         22    1    3    3    0    0 -0.80288705327E+02  0.65638691767E+02  0.75234370507E+02  0.12812074214E+03  0.00000000000E+00 0. -1.
         22    1    3    3    0    0 -0.24693854549E+02 -0.15065498976E+02  0.16024127119E+03  0.16283126452E+03  0.00000000000E+00 0. -1.
</event>
<event>
 7    1  0.5854318E-006  0.1471963E+03  0.7818608E-02  0.1250348E+00
          2   -1    0    0  502    0  0.00000000000E+00  0.00000000000E+00  0.19115963605E+03  0.19115963605E+03  0.00000000000E+00 0. -1.
          1   -1    0    0  501    0 -0.00000000000E+00 -0.00000000000E+00 -0.82321787153E+03  0.82321787153E+03  0.00000000000E+00 0. -1.
         25    2    1    2    0    0 -0.11853009214E+03 -0.88715609477E+02 -0.36947170278E+03  0.41719324759E+03  0.12498409729E+03 0.  0.
          2    1    1    2  501    0 -0.30803180686E+02  0.85583179442E+02 -0.39024059083E+03  0.40070068040E+03  0.00000000000E+00 0. -1.
          1    1    1    2  502    0  0.14933327283E+03  0.31324300351E+01  0.12765405813E+03  0.19648357959E+03  0.00000000000E+00 0. -1.
         22    1    3    3    0    0 -0.33205405415E+02  0.31726173699E+02 -0.96489990037E+02  0.10686190726E+03  0.00000000000E+00 0.  1.
         22    1    3    3    0    0 -0.85324686726E+02 -0.12044178318E+03 -0.27298171274E+03  0.31033134033E+03  0.00000000000E+00 0.  1.
</event>
<event>
 7    1  0.5854318E-006  0.8787444E+02  0.7818608E-02  0.1388930E+00
          2   -1    0    0  502    0  0.00000000000E+00  0.00000000000E+00  0.85571362278E+03  0.85571362278E+03  0.00000000000E+00 0. -1.
          1   -1    0    0  501    0 -0.00000000000E+00 -0.00000000000E+00 -0.11295452103E+04  0.11295452103E+04  0.00000000000E+00 0. -1.
         25    2    1    2    0    0  0.48760152784E+02 -0.98335194001E+02  0.13563292839E+03  0.21463717696E+03  0.12500185434E+03 0.  0.
          2    1    1    2  501    0 -0.42403735726E+02  0.11705086556E+02 -0.10868247264E+04  0.10877146095E+04  0.00000000000E+00 0. -1.
          1    1    1    2  502    0 -0.63564170577E+01  0.86630107446E+02  0.67736021049E+03  0.68290704660E+03  0.00000000000E+00 0. -1.
         22    1    3    3    0    0  0.41958367133E+02  0.89041771289E+01  0.16999917279E+01  0.42926436081E+02  0.00000000000E+00 0.  1.
         22    1    3    3    0    0  0.68017856512E+01 -0.10723937113E+03  0.13393293666E+03  0.17171074088E+03  0.00000000000E+00 0.  1.
</event>
<event>
 7    1  0.5854318E-006  0.5355060E+02  0.7818608E-02  0.1474231E+00
          2   -1    0    0  502    0  0.00000000000E+00  0.00000000000E+00  0.16054908100E+03  0.16054908100E+03  0.00000000000E+00 0. -1.
          1   -1    0    0  501    0 -0.00000000000E+00 -0.00000000000E+00 -0.13153598764E+03  0.13153598764E+03  0.00000000000E+00 0. -1.
         25    2    1    2    0    0  0.45745971422E+02 -0.51439876123E+02 -0.36063090272E+02  0.14718866202E+03  0.12500080396E+03 0.  0.
          2    1    1    2  501    0 -0.79145152322E+01  0.50449470023E+02 -0.17564360997E+02  0.54002734691E+02  0.00000000000E+00 0. -1.
          1    1    1    2  502    0 -0.37831456189E+02  0.99040610068E+00  0.82640544624E+02  0.90893671933E+02  0.00000000000E+00 0. -1.
         22    1    3    3    0    0 -0.28253130712E+02 -0.61804467186E+02 -0.18547399725E+02  0.70441731919E+02  0.00000000000E+00 0. -1.
         22    1    3    3    0    0  0.73999102133E+02  0.10364591063E+02 -0.17515690547E+02  0.76746930100E+02  0.00000000000E+00 0. -1.
</event>
<event>
 7    1  0.5854318E-006  0.9044854E+02  0.7818608E-02  0.1369309E+00
          2   -1    0    0  502    0  0.00000000000E+00  0.00000000000E+00  0.85350420353E+03  0.85350420353E+03  0.00000000000E+00 0. -1.
          1   -1    0    0  501    0 -0.00000000000E+00 -0.00000000000E+00 -0.47997468662E+03  0.47997468662E+03  0.00000000000E+00 0. -1.
         25    2    1    2    0    0 -0.40873490247E+02 -0.10088562153E+03  0.18301996325E+03  0.24691949458E+03  0.12499751604E+03 0.  0.
          2    1    1    2  501    0  0.48818176879E+02  0.11545092427E+02 -0.44345401341E+03  0.44628238321E+03  0.00000000000E+00 0. -1.
          1    1    1    2  502    0 -0.79446866324E+01  0.89340529101E+02  0.63396356707E+03  0.64027701236E+03  0.00000000000E+00 0. -1.
         22    1    3    3    0    0 -0.19725801011E+02 -0.10455060178E+03  0.60214726896E+02  0.12225280730E+03  0.00000000000E+00 0.  1.
         22    1    3    3    0    0 -0.21147689235E+02  0.36649802486E+01  0.12280523636E+03  0.12466668728E+03  0.00000000000E+00 0.  1.
</event>
<event>
 7    1  0.5854318E-006  0.9481744E+02  0.7818608E-02  0.1304531E+00
          2   -1    0    0  502    0  0.00000000000E+00  0.00000000000E+00  0.50094633011E+03  0.50094633011E+03  0.00000000000E+00 0. -1.
          1   -1    0    0  501    0 -0.00000000000E+00 -0.00000000000E+00 -0.27485949860E+03  0.27485949860E+03  0.00000000000E+00 0. -1.
         25    2    1    2    0    0 -0.99726368827E+02 -0.95895217823E+02  0.25453402349E+03  0.31552495156E+03  0.12500873769E+03 0.  0.
          2    1    1    2  501    0  0.13578200400E+02  0.83019958381E+02 -0.22774207659E+03  0.24278207196E+03  0.00000000000E+00 0. -1.
          1    1    1    2  502    0  0.86148168428E+02  0.12875259442E+02  0.19929488461E+03  0.21749880520E+03  0.00000000000E+00 0. -1.
         22    1    3    3    0    0 -0.44860747957E+02  0.26028496423E+02  0.85578665654E+02  0.10006836337E+03  0.00000000000E+00 0.  1.
         22    1    3    3    0    0 -0.54865620870E+02 -0.12192371425E+03  0.16895535784E+03  0.21545658818E+03  0.00000000000E+00 0.  1.
</event>
<event>
 7    1  0.5854318E-006  0.3951052E+02  0.7818608E-02  0.1529455E+00
          2   -1    0    0  502    0  0.00000000000E+00  0.00000000000E+00  0.70496894418E+03  0.70496894418E+03  0.00000000000E+00 0. -1.
          1   -1    0    0  501    0 -0.00000000000E+00 -0.00000000000E+00 -0.77380545634E+02  0.77380545634E+02  0.00000000000E+00 0. -1.
         25    2    1    2    0    0 -0.58994406292E+01  0.87903474516E+01  0.85864438724E+01  0.12574171766E+03  0.12500071574E+03 0.  0.
          2    1    1    2  501    0  0.21112274412E+02  0.28072017671E+02 -0.11802135635E+01  0.35144831925E+02  0.00000000000E+00 0. -1.
          1    1    1    2  502    0 -0.15212833783E+02 -0.36862365123E+02  0.62018216824E+03  0.62146294023E+03  0.00000000000E+00 0. -1.
         22    1    3    3    0    0  0.22595875000E+01  0.48990962550E+02  0.48165991138E+02  0.68739965446E+02  0.00000000000E+00 0. -1.
         22    1    3    3    0    0 -0.81590281292E+01 -0.40200615098E+02 -0.39579547265E+02  0.57001752218E+02  0.00000000000E+00 0. -1.
</event>
<event>
 7    1  0.5854318E-006  0.4438536E+02  0.7818608E-02  0.1488998E+00
          2   -1    0    0  502    0  0.00000000000E+00  0.00000000000E+00  0.17476117789E+04  0.17476117789E+04  0.00000000000E+00 0. -1.
          1   -1    0    0  501    0 -0.00000000000E+00 -0.00000000000E+00 -0.16368018117E+02  0.16368018117E+02  0.00000000000E+00 0. -1.
         25    2    1    2    0    0  0.14745171759E+02  0.22745468554E+02  0.14073681313E+04  0.14131681461E+04  0.12499750311E+03 0.  0.
          2    1    1    2  501    0  0.44240083424E+02 -0.35881682123E+01  0.38442722783E+02  0.58718845931E+02  0.00000000000E+00 0. -1.
          1    1    1    2  502    0 -0.58985255183E+02 -0.19157300341E+02  0.28543290672E+03  0.29209280498E+03  0.00000000000E+00 0. -1.
         22    1    3    3    0    0 -0.18523845374E+02  0.68306965907E+02  0.85630374339E+03  0.85922353051E+03  0.00000000000E+00 0. -1.
         22    1    3    3    0    0  0.33269017133E+02 -0.45561497353E+02  0.55106438789E+03  0.55394461559E+03  0.00000000000E+00 0. -1.
</event>
<event>
 7    1  0.5854318E-006  0.1206098E+03  0.7818608E-02  0.1327979E+00
          2   -1    0    0  502    0  0.00000000000E+00  0.00000000000E+00  0.14757080198E+04  0.14757080198E+04  0.00000000000E+00 0. -1.
          1   -1    0    0  501    0 -0.00000000000E+00 -0.00000000000E+00 -0.43516529937E+03  0.43516529937E+03  0.00000000000E+00 0. -1.
         25    2    1    2    0    0 -0.13207259116E+03  0.59124102362E+02 -0.15617542451E+03  0.24688889574E+03  0.12499813918E+03 0.  0.
          2    1    1    2  501    0  0.11845714609E+02 -0.52241422719E+02 -0.22798870004E+03  0.23419721294E+03  0.00000000000E+00 0. -1.
          1    1    1    2  502    0  0.12022687656E+03 -0.68826796430E+01  0.14247068450E+04  0.14297872105E+04  0.00000000000E+00 0. -1.
         22    1    3    3    0    0 -0.30183073108E+02 -0.11306154232E+02  0.15040204253E+02  0.35567608434E+02  0.00000000000E+00 0.  1.
         22    1    3    3    0    0 -0.10188951806E+03  0.70430256595E+02 -0.17121562877E+03  0.21132128730E+03  0.00000000000E+00 0.  1.
</event>
<event>
 7    1  0.5854318E-006  0.7572411E+02  0.7818608E-02  0.1450951E+00
          2   -1    0    0  502    0  0.00000000000E+00  0.00000000000E+00  0.14620326249E+03  0.14620326249E+03  0.00000000000E+00 0. -1.
          1   -1    0    0  501    0 -0.00000000000E+00 -0.00000000000E+00 -0.57128745089E+03  0.57128745089E+03  0.00000000000E+00 0. -1.
         25    2    1    2    0    0 -0.61891812810E+02  0.71986322396E+02 -0.16186520089E+03  0.22547483028E+03  0.12500371486E+03 0.  0.
          2    1    1    2  501    0 -0.10341590757E+01 -0.31657774992E+02 -0.36464969701E+03  0.36602279400E+03  0.00000000000E+00 0. -1.
          1    1    1    2  502    0  0.62925971886E+02 -0.40328547405E+02  0.10143070949E+03  0.12599308910E+03  0.00000000000E+00 0. -1.
         22    1    3    3    0    0 -0.57008642572E+02  0.10692016373E+03 -0.11736646352E+03  0.16869141502E+03  0.00000000000E+00 0. -1.
         22    1    3    3    0    0 -0.48831702385E+01 -0.34933841338E+02 -0.44498737366E+02  0.56783415267E+02  0.00000000000E+00 0. -1.
</event>
<event>
 7    1  0.5854318E-006  0.1860180E+03  0.7818608E-02  0.1261549E+00
          2   -1    0    0  502    0  0.00000000000E+00  0.00000000000E+00  0.22862047736E+04  0.22862047736E+04  0.00000000000E+00 0. -1.
          1   -1    0    0  501    0 -0.00000000000E+00 -0.00000000000E+00 -0.18111283262E+03  0.18111283262E+03  0.00000000000E+00 0. -1.
         25    2    1    2    0    0  0.95519956554E+02 -0.18670774436E+03  0.72404844218E+03  0.76410239657E+03  0.12498992730E+03 0.  0.
          2    1    1    2  501    0 -0.12955030089E+03  0.13200274268E+03 -0.10706845730E+03  0.21370928638E+03  0.00000000000E+00 0. -1.
          1    1    1    2  502    0  0.34030344334E+02  0.54705001681E+02  0.14881119562E+04  0.14895059233E+04  0.00000000000E+00 0. -1.
         22    1    3    3    0    0 -0.19551627053E+01 -0.11110083248E+03  0.45089086905E+03  0.46438108643E+03  0.00000000000E+00 0.  1.
         22    1    3    3    0    0  0.97475119259E+02 -0.75606911887E+02  0.27315757313E+03  0.29972131015E+03  0.00000000000E+00 0.  1.
</event>
<event>
 7    1  0.5854318E-006  0.1411654E+03  0.7818608E-02  0.1252293E+00
          2   -1    0    0  502    0  0.00000000000E+00  0.00000000000E+00  0.64529303458E+03  0.64529303458E+03  0.00000000000E+00 0. -1.
          1   -1    0    0  501    0 -0.00000000000E+00 -0.00000000000E+00 -0.15652566826E+04  0.15652566826E+04  0.00000000000E+00 0. -1.
         25    2    1    2    0    0  0.16080152232E+03  0.10846522314E+03 -0.24475145404E+03  0.33637783997E+03  0.12499977101E+03 0.  0.
          2    1    1    2  501    0 -0.92003901492E+02  0.13731046693E+02 -0.12647595763E+04  0.12681758732E+04  0.00000000000E+00 0. -1.
          1    1    1    2  502    0 -0.68797620829E+02 -0.12219626983E+03  0.58954738227E+03  0.60599600406E+03  0.00000000000E+00 0. -1.
         22    1    3    3    0    0 -0.10534617250E+02  0.37745581188E+02 -0.76925110977E+02  0.86331800391E+02  0.00000000000E+00 0.  1.
         22    1    3    3    0    0  0.17133613957E+03  0.70719641950E+02 -0.16782634306E+03  0.25004603957E+03  0.00000000000E+00 0.  1.
</event>
<event>
 7    1  0.5854318E-006  0.1790884E+03  0.7818608E-02  0.1267604E+00
          2   -1    0    0  502    0  0.00000000000E+00  0.00000000000E+00  0.12179509281E+04  0.12179509281E+04  0.00000000000E+00 0. -1.
          1   -1    0    0  501    0 -0.00000000000E+00 -0.00000000000E+00 -0.11077830768E+04  0.11077830768E+04  0.00000000000E+00 0. -1.
         25    2    1    2    0    0 -0.50421427052E+02 -0.11086451075E+03  0.91270386446E+03  0.92923965929E+03  0.12499896056E+03 0.  0.
          2    1    1    2  501    0  0.45345446751E+02  0.17374009388E+03 -0.10887265867E+04  0.11034343706E+04  0.00000000000E+00 0. -1.
          1    1    1    2  502    0  0.50759803015E+01 -0.62875583122E+02  0.28619057359E+03  0.29305997499E+03  0.00000000000E+00 0. -1.
         22    1    3    3    0    0 -0.86450733856E+02 -0.40496875952E+02  0.50099859724E+03  0.51001305942E+03  0.00000000000E+00 0.  1.
         22    1    3    3    0    0  0.36029306804E+02 -0.70367634803E+02  0.41170526722E+03  0.41922659987E+03  0.00000000000E+00 0.  1.
</event>
<event>
 7    1  0.5854318E-006  0.3229094E+03  0.7818608E-02  0.1169888E+00
          2   -1    0    0  502    0  0.00000000000E+00  0.00000000000E+00  0.66810835853E+03  0.66810835853E+03  0.00000000000E+00 0. -1.
          1   -1    0    0  501    0 -0.00000000000E+00 -0.00000000000E+00 -0.78682474319E+03  0.78682474319E+03  0.00000000000E+00 0. -1.
         25    2    1    2    0    0 -0.35592194067E+03  0.20629155177E+02  0.93270057841E+02  0.38913966334E+03  0.12499753597E+03 0.  0.
          2    1    1    2  501    0  0.49433993651E+02 -0.84582220822E+02 -0.57679410111E+03  0.58505496056E+03  0.00000000000E+00 0. -1.
          1    1    1    2  502    0  0.30648794702E+03  0.63953065645E+02  0.36480765860E+03  0.48073847781E+03  0.00000000000E+00 0. -1.
         22    1    3    3    0    0 -0.31696777289E+03 -0.44948647535E+01  0.41588429821E+02  0.31971607772E+03  0.00000000000E+00 0. -1.
         22    1    3    3    0    0 -0.38954167782E+02  0.25124019931E+02  0.51681628020E+02  0.69423585617E+02  0.00000000000E+00 0. -1.
</event>
<event>
 7    1  0.5854318E-006  0.3699022E+03  0.7818608E-02  0.1300216E+00
          2   -1    0    0  502    0  0.00000000000E+00  0.00000000000E+00  0.24773975851E+03  0.24773975851E+03  0.00000000000E+00 0. -1.
          1   -1    0    0  501    0 -0.00000000000E+00 -0.00000000000E+00 -0.12504583870E+04  0.12504583870E+04  0.00000000000E+00 0. -1.
         25    2    1    2    0    0  0.15503860977E+02 -0.37632760477E+03 -0.22174333206E+03  0.45458540297E+03  0.12495978339E+03 0.  0.
          2    1    1    2  501    0 -0.19381644677E+02  0.11299478229E+02 -0.65803617318E+03  0.65841850792E+03  0.00000000000E+00 0. -1.
          1    1    1    2  502    0  0.38777836997E+01  0.36502812654E+03 -0.12293912327E+03  0.38519423464E+03  0.00000000000E+00 0. -1.
         22    1    3    3    0    0 -0.78844280041E+01 -0.33936164212E+03 -0.15125484420E+03  0.37162685081E+03  0.00000000000E+00 0.  1.
         22    1    3    3    0    0  0.23388288982E+02 -0.36965962645E+02 -0.70488487860E+02  0.82958552161E+02  0.00000000000E+00 0.  1.
</event>
<event>
 7    1  0.5854318E-006  0.1760749E+03  0.7818608E-02  0.1331146E+00
          2   -1    0    0  502    0  0.00000000000E+00  0.00000000000E+00  0.52267649944E+03  0.52267649944E+03  0.00000000000E+00 0. -1.
          1   -1    0    0  501    0 -0.00000000000E+00 -0.00000000000E+00 -0.11482664072E+03  0.11482664072E+03  0.00000000000E+00 0. -1.
         25    2    1    2    0    0  0.62085523124E+02  0.13945677156E+03  0.26930752843E+03  0.33384629037E+03  0.12499598957E+03 0.  0.
          2    1    1    2  501    0 -0.58677514710E+02 -0.17497839789E+03  0.26967827381E+02  0.18651475592E+03  0.00000000000E+00 0. -1.
          1    1    1    2  502    0 -0.34080084141E+01  0.35521626331E+02  0.11157450291E+03  0.11714209388E+03  0.00000000000E+00 0. -1.
         22    1    3    3    0    0  0.97857086908E+02  0.11428720334E+03  0.18154581728E+03  0.23578901178E+03  0.00000000000E+00 0.  1.
         22    1    3    3    0    0 -0.35771563784E+02  0.25169568216E+02  0.87761711151E+02  0.98057278587E+02  0.00000000000E+00 0.  1.
</event>
<event>
 7    1  0.5854318E-006  0.9236294E+02  0.7818608E-02  0.1324158E+00
          2   -1    0    0  502    0  0.00000000000E+00  0.00000000000E+00  0.16712930535E+03  0.16712930535E+03  0.00000000000E+00 0. -1.
          1   -1    0    0  501    0 -0.00000000000E+00 -0.00000000000E+00 -0.18837316482E+04  0.18837316482E+04  0.00000000000E+00 0. -1.
         25    2    1    2    0    0 -0.46623348763E+01  0.99584439535E+02 -0.51198398581E+03  0.53636970208E+03  0.12500423043E+03 0.  0.
          2    1    1    2  501    0 -0.62876881089E+02 -0.35803245222E+02 -0.13445697088E+04  0.13465151601E+04  0.00000000000E+00 0. -1.
          1    1    1    2  502    0  0.67539215966E+02 -0.63781194313E+02  0.13995135171E+03  0.16797609142E+03  0.00000000000E+00 0. -1.
         22    1    3    3    0    0 -0.24311316178E+02 -0.21851299235E+02 -0.64852221177E+02  0.72624582368E+02  0.00000000000E+00 0. -1.
         22    1    3    3    0    0  0.19648981302E+02  0.12143573877E+03 -0.44713176463E+03  0.46374511972E+03  0.00000000000E+00 0. -1.
</event>
<event>
 7    1  0.5854318E-006  0.1404410E+03  0.7818608E-02  0.1308306E+00
          2   -1    0    0  502    0  0.00000000000E+00  0.00000000000E+00  0.63628756639E+02  0.63628756639E+02  0.00000000000E+00 0. -1.
          1   -1    0    0  501    0 -0.00000000000E+00 -0.00000000000E+00 -0.14574596575E+04  0.14574596575E+04  0.00000000000E+00 0. -1.
         25    2    1    2    0    0  0.15322238699E+02 -0.16296461180E+03 -0.61899162988E+03  0.65235525211E+03  0.12499800556E+03 0.  0.
          2    1    1    2  501    0 -0.53414173355E+02  0.12346909613E+03 -0.79793735445E+03  0.80919819157E+03  0.00000000000E+00 0. -1.
          1    1    1    2  502    0  0.38091934656E+02  0.39495515671E+02  0.23098083491E+02  0.59534970437E+02  0.00000000000E+00 0. -1.
         22    1    3    3    0    0  0.29515416998E+00 -0.10549541634E+03 -0.17449107947E+03  0.20390317997E+03  0.00000000000E+00 0. -1.
         22    1    3    3    0    0  0.15027084529E+02 -0.57469195458E+02 -0.44450055040E+03  0.44845207214E+03  0.00000000000E+00 0. -1.
</event>
<event>
 7    1  0.5854318E-006  0.9935920E+02  0.7818608E-02  0.1376565E+00
          2   -1    0    0  502    0  0.00000000000E+00  0.00000000000E+00  0.28887635362E+04  0.28887635362E+04  0.00000000000E+00 0. -1.
          1   -1    0    0  501    0 -0.00000000000E+00 -0.00000000000E+00 -0.36122480949E+02  0.36122480949E+02  0.00000000000E+00 0. -1.
         25    2    1    2    0    0  0.37785325469E+02  0.57746785348E+02  0.62913703348E+03  0.64513623977E+03  0.12499975575E+03 0.  0.
          2    1    1    2  501    0 -0.79362546035E+01  0.42276449548E+02 -0.97103291115E+01  0.44097310745E+02  0.00000000000E+00 0. -1.
          1    1    1    2  502    0 -0.29849070865E+02 -0.10002323490E+03  0.22332143509E+04  0.22356524666E+04  0.00000000000E+00 0. -1.
         22    1    3    3    0    0  0.16921666768E+01  0.83706078125E+02  0.52885092796E+03  0.53543708776E+03  0.00000000000E+00 0.  1.
         22    1    3    3    0    0  0.36093158792E+02 -0.25959292777E+02  0.10028610552E+03  0.10969915202E+03  0.00000000000E+00 0.  1.
</event>
<event>
 7    1  0.5854318E-006  0.6553475E+02  0.7818608E-02  0.1481373E+00
          2   -1    0    0  502    0  0.00000000000E+00  0.00000000000E+00  0.27974086035E+03  0.27974086035E+03  0.00000000000E+00 0. -1.
          1   -1    0    0  501    0 -0.00000000000E+00 -0.00000000000E+00 -0.87886358304E+03  0.87886358304E+03  0.00000000000E+00 0. -1.
         25    2    1    2    0    0 -0.23464227986E+02 -0.90863462171E+02 -0.11777365254E+03  0.19570989696E+03  0.12499996714E+03 0.  0.
          2    1    1    2  501    0  0.10693496884E+02  0.27384154705E+02 -0.71746194552E+03  0.71806398467E+03  0.00000000000E+00 0. -1.
          1    1    1    2  502    0  0.12770731102E+02  0.63479307466E+02  0.23611287537E+03  0.24483056175E+03  0.00000000000E+00 0. -1.
         22    1    3    3    0    0  0.48431862669E+02 -0.16654475963E+02 -0.53307135026E+02  0.73923389640E+02  0.00000000000E+00 0. -1.
         22    1    3    3    0    0 -0.71896090656E+02 -0.74208986208E+02 -0.64466517516E+02  0.12178650732E+03  0.00000000000E+00 0. -1.
</event>
<event>
 7    1  0.5854318E-006  0.1536419E+03  0.7818608E-02  0.1208922E+00
          2   -1    0    0  502    0  0.00000000000E+00  0.00000000000E+00  0.56786200919E+03  0.56786200919E+03  0.00000000000E+00 0. -1.
          1   -1    0    0  501    0 -0.00000000000E+00 -0.00000000000E+00 -0.44035866426E+03  0.44035866426E+03  0.00000000000E+00 0. -1.
         25    2    1    2    0    0  0.33191897221E+02  0.54810194490E+02 -0.28438473150E+03  0.31718545336E+03  0.12500430734E+03 0.  0.
          2    1    1    2  501    0  0.12502303950E+03 -0.47388392373E+02 -0.92356614305E+02  0.16249973644E+03  0.00000000000E+00 0. -1.
          1    1    1    2  502    0 -0.15821493672E+03 -0.74218021178E+01  0.50424469073E+03  0.52853548365E+03  0.00000000000E+00 0. -1.
         22    1    3    3    0    0  0.14789449597E+02  0.94780184555E+02 -0.18163684314E+03  0.20541166956E+03  0.00000000000E+00 0.  1.
         22    1    3    3    0    0  0.18402447624E+02 -0.39969990064E+02 -0.10274788835E+03  0.11177378380E+03  0.00000000000E+00 0.  1.
</event>
<event>
 7    1  0.5854318E-006  0.1908235E+03  0.7818608E-02  0.1202209E+00
          2   -1    0    0  502    0  0.00000000000E+00  0.00000000000E+00  0.12125380633E+04  0.12125380633E+04  0.00000000000E+00 0. -1.
          1   -1    0    0  501    0 -0.00000000000E+00 -0.00000000000E+00 -0.13072746574E+03  0.13072746574E+03  0.00000000000E+00 0. -1.
         25    2    1    2    0    0  0.88041517557E+02  0.25010137931E+03  0.77264037594E+03  0.82637838148E+03  0.12500428035E+03 0.  0.
          2    1    1    2  501    0 -0.43111246311E+02 -0.10738193799E+03 -0.51316842183E+02  0.12658150914E+03  0.00000000000E+00 0. -1.
          1    1    1    2  502    0 -0.44930271246E+02 -0.14271944132E+03  0.36048706378E+03  0.39030563839E+03  0.00000000000E+00 0. -1.
         22    1    3    3    0    0  0.11617419973E+03  0.23127687495E+03  0.66733640907E+03  0.71576764417E+03  0.00000000000E+00 0.  1.
         22    1    3    3    0    0 -0.28132682175E+02  0.18824504357E+02  0.10530396686E+03  0.11061073731E+03  0.00000000000E+00 0.  1.
</event>
<event>
 7    1  0.5854318E-006  0.4886094E+02  0.7818608E-02  0.1484515E+00
          2   -1    0    0  502    0  0.00000000000E+00  0.00000000000E+00  0.23090991198E+04  0.23090991198E+04  0.00000000000E+00 0. -1.
          1   -1    0    0  501    0 -0.00000000000E+00 -0.00000000000E+00 -0.14435525447E+02  0.14435525447E+02  0.00000000000E+00 0. -1.
         25    2    1    2    0    0  0.10430970316E+02 -0.33655938690E+02  0.14852297122E+04  0.14908971096E+04  0.12500146405E+03 0.  0.
          2    1    1    2  501    0  0.27287079173E+02  0.41709227938E+02  0.44756014904E+02  0.66987650019E+02  0.00000000000E+00 0. -1.
          1    1    1    2  502    0 -0.37718049490E+02 -0.80532892479E+01  0.76467786720E+03  0.76564988560E+03  0.00000000000E+00 0. -1.
         22    1    3    3    0    0 -0.23483408648E+01 -0.72345652118E+02  0.12552910248E+04  0.12573762225E+04  0.00000000000E+00 0.  1.
         22    1    3    3    0    0  0.12779311181E+02  0.38689713428E+02  0.22993868746E+03  0.23352088709E+03  0.00000000000E+00 0.  1.
</event>
<event>
 7    1  0.5854318E-006  0.4069680E+02  0.7818608E-02  0.1594051E+00
          2   -1    0    0  502    0  0.00000000000E+00  0.00000000000E+00  0.85064372089E+03  0.85064372089E+03  0.00000000000E+00 0. -1.
          1   -1    0    0  501    0 -0.00000000000E+00 -0.00000000000E+00 -0.10827653052E+04  0.10827653052E+04  0.00000000000E+00 0. -1.
         25    2    1    2    0    0 -0.27294295412E+02  0.85092957566E+01 -0.80368925618E+02  0.15133195106E+03  0.12499923412E+03 0.  0.
          2    1    1    2  501    0  0.39505598262E+02  0.10580556506E+02 -0.96632474855E+03  0.96718982632E+03  0.00000000000E+00 0. -1.
          1    1    1    2  502    0 -0.12211302850E+02 -0.19089852263E+02  0.81457208991E+03  0.81488724866E+03  0.00000000000E+00 0. -1.
         22    1    3    3    0    0 -0.45695070567E+02 -0.48694306404E+02 -0.31282456873E+02  0.73741216822E+02  0.00000000000E+00 0.  1.
         22    1    3    3    0    0  0.18400775154E+02  0.57203602161E+02 -0.49086468744E+02  0.77590734242E+02  0.00000000000E+00 0.  1.
</event>
<event>
 7    1  0.5854318E-006  0.8333595E+02  0.7818608E-02  0.1419796E+00
          2   -1    0    0  502    0  0.00000000000E+00  0.00000000000E+00  0.21403765231E+03  0.21403765231E+03  0.00000000000E+00 0. -1.
          1   -1    0    0  501    0 -0.00000000000E+00 -0.00000000000E+00 -0.18894975051E+03  0.18894975051E+03  0.00000000000E+00 0. -1.
         25    2    1    2    0    0  0.34776136210E+02  0.42365401956E+02 -0.27649354853E+02  0.13926328049E+03  0.12500227013E+03 0.  0.
          2    1    1    2  501    0  0.34509628066E+02  0.11525881542E+02 -0.89483181956E+02  0.96597102583E+02  0.00000000000E+00 0. -1.
          1    1    1    2  502    0 -0.69285764276E+02 -0.53891283498E+02  0.14222043861E+03  0.16712701974E+03  0.00000000000E+00 0. -1.
         22    1    3    3    0    0  0.68239651181E+02  0.50654610097E+02 -0.49592961748E+02  0.98397161404E+02  0.00000000000E+00 0. -1.
         22    1    3    3    0    0 -0.33463514971E+02 -0.82892081408E+01  0.21943606895E+02  0.40866119089E+02  0.00000000000E+00 0. -1.
</event>
<event>
 7    1  0.5854318E-006  0.7393080E+02  0.7818608E-02  0.1391323E+00
          2   -1    0    0  502    0  0.00000000000E+00  0.00000000000E+00  0.17233192306E+04  0.17233192306E+04  0.00000000000E+00 0. -1.
          1   -1    0    0  501    0 -0.00000000000E+00 -0.00000000000E+00 -0.35025323733E+03  0.35025323733E+03  0.00000000000E+00 0. -1.
         25    2    1    2    0    0  0.69151547747E+02  0.38450628980E+02  0.62434835045E+02  0.16057108806E+03  0.12499831306E+03 0.  0.
          2    1    1    2  501    0 -0.41387060048E+02  0.30295724041E+02 -0.29814150484E+03  0.30252120016E+03  0.00000000000E+00 0. -1.
          1    1    1    2  502    0 -0.27764487698E+02 -0.68746353021E+02  0.16087726631E+04  0.16104801797E+04  0.00000000000E+00 0. -1.
         22    1    3    3    0    0  0.89545973925E+02  0.58723335915E+02  0.19421313242E+02  0.10883059788E+03  0.00000000000E+00 0.  1.
         22    1    3    3    0    0 -0.20394426179E+02 -0.20272706935E+02  0.43013521803E+02  0.51740490174E+02  0.00000000000E+00 0.  1.
</event>
<event>
 7    1  0.5854318E-006  0.6011987E+02  0.7818608E-02  0.1455503E+00
          2   -1    0    0  502    0  0.00000000000E+00  0.00000000000E+00  0.21605826922E+03  0.21605826922E+03  0.00000000000E+00 0. -1.
          1   -1    0    0  501    0 -0.00000000000E+00 -0.00000000000E+00 -0.56313101035E+03  0.56313101035E+03  0.00000000000E+00 0. -1.
         25    2    1    2    0    0  0.18131242681E+02  0.29771768555E+02 -0.15526095356E+03  0.20235204345E+03  0.12500114249E+03 0.  0.
          2    1    1    2  501    0 -0.56699529541E+02 -0.28604430871E+02 -0.37972726710E+03  0.38500110064E+03  0.00000000000E+00 0. -1.
          1    1    1    2  502    0  0.38568286860E+02 -0.11673376844E+01  0.18791547953E+03  0.19183613548E+03  0.00000000000E+00 0. -1.
         22    1    3    3    0    0  0.39182555495E+02  0.11162958406E+02 -0.16700247687E+03  0.17190029546E+03  0.00000000000E+00 0.  1.
         22    1    3    3    0    0 -0.21051312814E+02  0.18608810149E+02  0.11741523313E+02  0.30451747997E+02  0.00000000000E+00 0.  1.
</event>
<event>
 7    1  0.5854318E-006  0.4710863E+02  0.7818608E-02  0.1531778E+00
          2   -1    0    0  502    0  0.00000000000E+00  0.00000000000E+00  0.19573283700E+03  0.19573283700E+03  0.00000000000E+00 0. -1.
          1   -1    0    0  501    0 -0.00000000000E+00 -0.00000000000E+00 -0.71705994443E+03  0.71705994443E+03  0.00000000000E+00 0. -1.
         25    2    1    2    0    0  0.37741081505E+02 -0.44893912343E+02 -0.47348772844E+02  0.14595805530E+03  0.12498797950E+03 0.  0.
          2    1    1    2  501    0 -0.87588722665E+01  0.46210026802E+02 -0.61806718718E+03  0.61985412178E+03  0.00000000000E+00 0. -1.
          1    1    1    2  502    0 -0.28982209239E+02 -0.13161144589E+01  0.14408885260E+03  0.14698060434E+03  0.00000000000E+00 0. -1.
         22    1    3    3    0    0 -0.33528922380E+02 -0.56090953808E+02 -0.29143572373E+02  0.71552299374E+02  0.00000000000E+00 0.  1.
         22    1    3    3    0    0  0.71270003885E+02  0.11197041465E+02 -0.18205200471E+02  0.74405755930E+02  0.00000000000E+00 0.  1.
</event>
<event>
 7    1  0.5854318E-006  0.1397586E+03  0.7818608E-02  0.1323134E+00
          2   -1    0    0  502    0  0.00000000000E+00  0.00000000000E+00  0.96859556612E+02  0.96859556612E+02  0.00000000000E+00 0. -1.
          1   -1    0    0  501    0 -0.00000000000E+00 -0.00000000000E+00 -0.47827311044E+03  0.47827311044E+03  0.00000000000E+00 0. -1.
         25    2    1    2    0    0  0.10488384245E+03  0.88403856571E+02 -0.20817611923E+03  0.27889690854E+03  0.12502130502E+03 0.  0.
          2    1    1    2  501    0  0.29020788157E+02 -0.38553394025E+02 -0.14200394171E+03  0.14997896451E+03  0.00000000000E+00 0. -1.
          1    1    1    2  502    0 -0.13390463060E+03 -0.49850462547E+02 -0.31233492884E+02  0.14625679400E+03  0.00000000000E+00 0. -1.
         22    1    3    3    0    0  0.11641352621E+03  0.10190037244E+03 -0.21023628768E+03  0.26102699409E+03  0.00000000000E+00 0. -1.
         22    1    3    3    0    0 -0.11529683761E+02 -0.13496515869E+02  0.20601684468E+01  0.17869914444E+02  0.00000000000E+00 0. -1.
</event>
<event>
 7    1  0.5854318E-006  0.2918026E+02  0.7818608E-02  0.1655116E+00
          2   -1    0    0  502    0  0.00000000000E+00  0.00000000000E+00  0.56619562443E+03  0.56619562443E+03  0.00000000000E+00 0. -1.
          1   -1    0    0  501    0 -0.00000000000E+00 -0.00000000000E+00 -0.12680613009E+03  0.12680613009E+03  0.00000000000E+00 0. -1.
         25    2    1    2    0    0  0.13138912413E+02  0.48660209634E+02  0.29549930085E+03  0.32478491280E+03  0.12499982304E+03 0.  0.
          2    1    1    2  501    0 -0.11760059391E+02 -0.26568124880E+02 -0.10979171865E+03  0.11357106031E+03  0.00000000000E+00 0. -1.
          1    1    1    2  502    0 -0.13788530222E+01 -0.22092084754E+02  0.25368191214E+03  0.25464578141E+03  0.00000000000E+00 0. -1.
         22    1    3    3    0    0 -0.25548036324E+02 -0.14818577543E+02  0.20748922843E+03  0.20958070597E+03  0.00000000000E+00 0.  1.
         22    1    3    3    0    0  0.38686948737E+02  0.63478787177E+02  0.88010072416E+02  0.11520420683E+03  0.00000000000E+00 0.  1.
</event>
<event>
 7    1  0.5854318E-006  0.1774404E+03  0.7818608E-02  0.1380336E+00
          2   -1    0    0  502    0  0.00000000000E+00  0.00000000000E+00  0.19446454294E+04  0.19446454294E+04  0.00000000000E+00 0. -1.
          1   -1    0    0  501    0 -0.00000000000E+00 -0.00000000000E+00 -0.85363556172E+03  0.85363556172E+03  0.00000000000E+00 0. -1.
         25    2    1    2    0    0 -0.18532323269E+03 -0.32312952941E+02  0.56088311723E+03  0.60465127551E+03  0.12499786508E+03 0.  0.
          2    1    1    2  501    0  0.17008586056E+03  0.50013204145E+02 -0.82220241570E+03  0.84109888416E+03  0.00000000000E+00 0. -1.
          1    1    1    2  502    0  0.15237372134E+02 -0.17700251204E+02  0.13523291661E+04  0.13525308314E+04  0.00000000000E+00 0. -1.
         22    1    3    3    0    0 -0.16988559659E+03 -0.70045841627E+02  0.43155061670E+03  0.46904527567E+03  0.00000000000E+00 0. -1.
         22    1    3    3    0    0 -0.15437636103E+02  0.37732888686E+02  0.12933250053E+03  0.13560599984E+03  0.00000000000E+00 0. -1.
</event>
<event>
 7    1  0.6109231E-006  0.1014131E+03  0.7818608E-02  0.1449091E+00
          2   -1    0    0  502    0  0.00000000000E+00  0.00000000000E+00  0.14220700050E+04  0.14220700050E+04  0.00000000000E+00 0. -1.
          1   -1    0    0  501    0 -0.00000000000E+00 -0.00000000000E+00 -0.94427435863E+03  0.94427435863E+03  0.00000000000E+00 0. -1.
         25    2    1    2    0    0 -0.14714208442E+02 -0.10327574770E+03 -0.40059136078E+03  0.43241058237E+03  0.12499234146E+03 0.  0.
          2    1    1    2  501    0 -0.22283279861E+02  0.88528507795E+01 -0.52567128141E+03  0.52621783857E+03  0.00000000000E+00 0. -1.
          1    1    1    2  502    0  0.36997488303E+02  0.94422896923E+02  0.14040582886E+04  0.14077159427E+04  0.00000000000E+00 0. -1.
         22    1    3    3    0    0 -0.66783885965E+02 -0.38441311437E+02 -0.23131810480E+03  0.24381527323E+03  0.00000000000E+00 0.  1.
         22    1    3    3    0    0  0.52069677523E+02 -0.64834436265E+02 -0.16927325598E+03  0.18859530915E+03  0.00000000000E+00 0.  1.
</event>
<event>
 7    1  0.5854318E-006  0.5756335E+02  0.7818608E-02  0.1556094E+00
          2   -1    0    0  502    0  0.00000000000E+00  0.00000000000E+00  0.15778444255E+03  0.15778444255E+03  0.00000000000E+00 0. -1.
          1   -1    0    0  501    0 -0.00000000000E+00 -0.00000000000E+00 -0.46577079329E+03  0.46577079329E+03  0.00000000000E+00 0. -1.
         25    2    1    2    0    0  0.72438553174E+02 -0.95647787233E+00 -0.19450278181E+02  0.14578537623E+03  0.12500721485E+03 0.  0.
          2    1    1    2  501    0 -0.17141532038E+02  0.10844717696E+02 -0.37451659491E+03  0.37506548746E+03  0.00000000000E+00 0. -1.
          1    1    1    2  502    0 -0.55297021136E+02 -0.98882398238E+01  0.85980522358E+02  0.10270437215E+03  0.00000000000E+00 0. -1.
         22    1    3    3    0    0  0.51595435444E+02  0.50776315156E+01  0.50604001469E+02  0.72447472455E+02  0.00000000000E+00 0.  1.
         22    1    3    3    0    0  0.20843117730E+02 -0.60341093879E+01 -0.70054279650E+02  0.73337903775E+02  0.00000000000E+00 0.  1.
</event>
<event>
 7    1  0.5854318E-006  0.1062955E+03  0.7818608E-02  0.1435340E+00
          2   -1    0    0  502    0  0.00000000000E+00  0.00000000000E+00  0.45571292981E+03  0.45571292981E+03  0.00000000000E+00 0. -1.
          1   -1    0    0  501    0 -0.00000000000E+00 -0.00000000000E+00 -0.21466076712E+03  0.21466076712E+03  0.00000000000E+00 0. -1.
         25    2    1    2    0    0 -0.56436158611E+02  0.67764777417E+02  0.15060733717E+03  0.21467601711E+03  0.12500446894E+03 0.  0.
          2    1    1    2  501    0 -0.20409456205E+02  0.15024954501E+02 -0.16996517236E+03  0.17184427537E+03  0.00000000000E+00 0. -1.
          1    1    1    2  502    0  0.76845614816E+02 -0.82789731917E+02  0.26040999788E+03  0.28385340446E+03  0.00000000000E+00 0. -1.
         22    1    3    3    0    0  0.59407915865E+01 -0.12063857374E+02 -0.15245872060E+02  0.20328951628E+02  0.00000000000E+00 0. -1.
         22    1    3    3    0    0 -0.62376950198E+02  0.79828634791E+02  0.16585320923E+03  0.19434706548E+03  0.00000000000E+00 0. -1.
</event>
<event>
 7    1  0.5854318E-006  0.3570269E+02  0.7818608E-02  0.1595149E+00
          2   -1    0    0  502    0  0.00000000000E+00  0.00000000000E+00  0.15150501212E+04  0.15150501212E+04  0.00000000000E+00 0. -1.
          1   -1    0    0  501    0 -0.00000000000E+00 -0.00000000000E+00 -0.65277934651E+03  0.65277934651E+03  0.00000000000E+00 0. -1.
         25    2    1    2    0    0  0.56600033402E+02 -0.22498724966E+02  0.27648235869E+02  0.14177562828E+03  0.12500458960E+03 0.  0.
          2    1    1    2  501    0 -0.22446635025E+02  0.12433091133E+02 -0.59521759840E+03  0.59577044458E+03  0.00000000000E+00 0. -1.
          1    1    1    2  502    0 -0.34153398376E+02  0.10065633833E+02  0.14298401372E+04  0.14302833949E+04  0.00000000000E+00 0. -1.
         22    1    3    3    0    0 -0.59808181448E+01  0.25839546659E+02  0.52556625384E+02  0.58869781968E+02  0.00000000000E+00 0. -1.
         22    1    3    3    0    0  0.62580851547E+02 -0.48338271625E+02 -0.24908389515E+02  0.82905846309E+02  0.00000000000E+00 0. -1.
</event>
<event>
 7    1  0.5854318E-006  0.3291396E+02  0.7818608E-02  0.1585678E+00
          2   -1    0    0  502    0  0.00000000000E+00  0.00000000000E+00  0.68079948101E+02  0.68079948101E+02  0.00000000000E+00 0. -1.
          1   -1    0    0  501    0 -0.00000000000E+00 -0.00000000000E+00 -0.21393371560E+04  0.21393371560E+04  0.00000000000E+00 0. -1.
         25    2    1    2    0    0 -0.34225437697E+02 -0.34214562217E+02 -0.20923795427E+03  0.24849081832E+03  0.12500059371E+03 0.  0.
          2    1    1    2  501    0  0.18138699951E+01  0.29431315105E+02 -0.19048073427E+04  0.19050355654E+04  0.00000000000E+00 0. -1.
          1    1    1    2  502    0  0.32411567702E+02  0.47832471119E+01  0.42788089115E+02  0.53890720388E+02  0.00000000000E+00 0. -1.
         22    1    3    3    0    0  0.32046017178E+02 -0.28342959800E+02 -0.16027035501E+03  0.16588205835E+03  0.00000000000E+00 0. -1.
         22    1    3    3    0    0 -0.66271454875E+02 -0.58716024173E+01 -0.48967599253E+02  0.82608759964E+02  0.00000000000E+00 0. -1.
</event>
<event>
 7    1  0.5854318E-006  0.7368950E+02  0.7818608E-02  0.1484957E+00
          2   -1    0    0  502    0  0.00000000000E+00  0.00000000000E+00  0.10370823541E+03  0.10370823541E+03  0.00000000000E+00 0. -1.
          1   -1    0    0  501    0 -0.00000000000E+00 -0.00000000000E+00 -0.10525834478E+04  0.10525834478E+04  0.00000000000E+00 0. -1.
         25    2    1    2    0    0 -0.23253170509E+02 -0.87255594043E+02 -0.21362560232E+03  0.26346598040E+03  0.12499670489E+03 0.  0.
          2    1    1    2  501    0 -0.10836179231E+02  0.23076429839E+02 -0.79703324590E+03  0.79744086894E+03  0.00000000000E+00 0. -1.
          1    1    1    2  502    0  0.34089349740E+02  0.64179164204E+02  0.61783635803E+02  0.95384833892E+02  0.00000000000E+00 0. -1.
         22    1    3    3    0    0 -0.48991101544E+01 -0.11556645613E+03 -0.18940715735E+03  0.22193395035E+03  0.00000000000E+00 0. -1.
         22    1    3    3    0    0 -0.18354060355E+02  0.28310862087E+02 -0.24218444966E+02  0.41532030051E+02  0.00000000000E+00 0. -1.
</event>
<event>
 7    1  0.5854318E-006  0.6779498E+02  0.7818608E-02  0.1383783E+00
          2   -1    0    0  502    0  0.00000000000E+00  0.00000000000E+00  0.18012386506E+03  0.18012386506E+03  0.00000000000E+00 0. -1.
          1   -1    0    0  501    0 -0.00000000000E+00 -0.00000000000E+00 -0.82610817438E+03  0.82610817438E+03  0.00000000000E+00 0. -1.
         25    2    1    2    0    0 -0.66546629925E+02  0.27634664803E+02 -0.90150075738E+02  0.17012845027E+03  0.12499809912E+03 0.  0.
          2    1    1    2  501    0  0.45537793092E+02  0.38201364513E+02 -0.68608514499E+03  0.68865511036E+03  0.00000000000E+00 0. -1.
          1    1    1    2  502    0  0.21008836833E+02 -0.65836029315E+02  0.13025091141E+03  0.14744847881E+03  0.00000000000E+00 0. -1.
         22    1    3    3    0    0  0.12480297075E+02 -0.38973310772E+02 -0.25015513816E+02  0.47963034715E+02  0.00000000000E+00 0. -1.
         22    1    3    3    0    0 -0.79026927000E+02  0.66607975575E+02 -0.65134561922E+02  0.12216541556E+03  0.00000000000E+00 0. -1.
</event>
<event>
 7    1  0.5854318E-006  0.1371310E+03  0.7818608E-02  0.1331396E+00
          2   -1    0    0  502    0  0.00000000000E+00  0.00000000000E+00  0.33716062915E+03  0.33716062915E+03  0.00000000000E+00 0. -1.
          1   -1    0    0  501    0 -0.00000000000E+00 -0.00000000000E+00 -0.81139082610E+03  0.81139082610E+03  0.00000000000E+00 0. -1.
         25    2    1    2    0    0 -0.11834646897E+02  0.13374299618E+03 -0.34102177244E+03  0.38723038139E+03  0.12499708434E+03 0.  0.
          2    1    1    2  501    0  0.45716484908E+02 -0.42923689581E+00 -0.43093592524E+03  0.43335430412E+03  0.00000000000E+00 0. -1.
          1    1    1    2  502    0 -0.33881838011E+02 -0.13331375928E+03  0.29772750073E+03  0.32796676974E+03  0.00000000000E+00 0. -1.
         22    1    3    3    0    0 -0.57571332544E+02  0.12118650607E+03 -0.27447687809E+03  0.30551298531E+03  0.00000000000E+00 0. -1.
         22    1    3    3    0    0  0.45736685648E+02  0.12556490113E+02 -0.66544894350E+02  0.81717396080E+02  0.00000000000E+00 0. -1.
</event>
<event>
 7    1  0.5854318E-006  0.1055659E+03  0.7818608E-02  0.1412873E+00
          2   -1    0    0  502    0  0.00000000000E+00  0.00000000000E+00  0.92738446630E+03  0.92738446630E+03  0.00000000000E+00 0. -1.
          1   -1    0    0  501    0 -0.00000000000E+00 -0.00000000000E+00 -0.12855787132E+03  0.12855787132E+03  0.00000000000E+00 0. -1.
         25    2    1    2    0    0 -0.79409039655E+02  0.22841120799E+02  0.16418780769E+03  0.22228392318E+03  0.12499997573E+03 0.  0.
          2    1    1    2  501    0 -0.28696129054E+02 -0.97306766418E+01 -0.93053730993E+02  0.97862918117E+02  0.00000000000E+00 0. -1.
          1    1    1    2  502    0  0.10810516871E+03 -0.13110444157E+02  0.72769251828E+03  0.73579549632E+03  0.00000000000E+00 0. -1.
         22    1    3    3    0    0 -0.35150492477E+02  0.41060092713E+02  0.16580724336E+03  0.17439475418E+03  0.00000000000E+00 0. -1.
         22    1    3    3    0    0 -0.44258547178E+02 -0.18218971914E+02 -0.16194356667E+01  0.47889169003E+02  0.00000000000E+00 0. -1.
</event>
<event>
 7    1  0.5854318E-006  0.9243453E+02  0.7818608E-02  0.1352158E+00
          2   -1    0    0  502    0  0.00000000000E+00  0.00000000000E+00  0.18815428061E+04  0.18815428061E+04  0.00000000000E+00 0. -1.
          1   -1    0    0  501    0 -0.00000000000E+00 -0.00000000000E+00 -0.38121110220E+03  0.38121110220E+03  0.00000000000E+00 0. -1.
         25    2    1    2    0    0  0.55120477113E+02 -0.46550748613E+02  0.74851453587E+02  0.16258342900E+03  0.12500156834E+03 0.  0.
          2    1    1    2  501    0 -0.34919080523E+02 -0.44655982181E+02 -0.33371558029E+03  0.33849606712E+03  0.00000000000E+00 0. -1.
          1    1    1    2  502    0 -0.20201396590E+02  0.91206730794E+02  0.17591958306E+04  0.17616744122E+04  0.00000000000E+00 0. -1.
         22    1    3    3    0    0  0.83466824042E+02 -0.34111292673E+02  0.90625174626E+02  0.12784057759E+03  0.00000000000E+00 0. -1.
         22    1    3    3    0    0 -0.28346346929E+02 -0.12439455940E+02 -0.15773721039E+02  0.34742851404E+02  0.00000000000E+00 0. -1.
</event>
<event>
 7    1  0.5854318E-006  0.5977408E+02  0.7818608E-02  0.1536845E+00
          2   -1    0    0  502    0  0.00000000000E+00  0.00000000000E+00  0.35486779259E+03  0.35486779259E+03  0.00000000000E+00 0. -1.
          1   -1    0    0  501    0 -0.00000000000E+00 -0.00000000000E+00 -0.29262607721E+03  0.29262607721E+03  0.00000000000E+00 0. -1.
         25    2    1    2    0    0 -0.25343495116E+02  0.77200346513E+02 -0.81171448874E+02  0.16974556508E+03  0.12499026565E+03 0.  0.
          2    1    1    2  501    0  0.89733329046E+01 -0.20215370684E+02 -0.16358697835E+03  0.16507538097E+03  0.00000000000E+00 0. -1.
          1    1    1    2  502    0  0.16370162211E+02 -0.56984975829E+02  0.30700014261E+03  0.31267292375E+03  0.00000000000E+00 0. -1.
         22    1    3    3    0    0 -0.31227754843E+02 -0.25112295801E+02 -0.17842719847E+01  0.40112139053E+02  0.00000000000E+00 0.  1.
         22    1    3    3    0    0  0.58842597272E+01  0.10231264231E+03 -0.79387176890E+02  0.12963342603E+03  0.00000000000E+00 0.  1.
</event>
<event>
 7    1  0.5854318E-006  0.2299594E+03  0.7818608E-02  0.1347499E+00
          2   -1    0    0  502    0  0.00000000000E+00  0.00000000000E+00  0.62636978415E+03  0.62636978415E+03  0.00000000000E+00 0. -1.
          1   -1    0    0  501    0 -0.00000000000E+00 -0.00000000000E+00 -0.17021138145E+04  0.17021138145E+04  0.00000000000E+00 0. -1.
         25    2    1    2    0    0 -0.14767293197E+03 -0.14586461156E+03 -0.56219828986E+03  0.61218915993E+03  0.12499948268E+03 0.  0.
          2    1    1    2  501    0 -0.19980171964E+02 -0.12766352443E+02 -0.10926410695E+04  0.10928982998E+04  0.00000000000E+00 0. -1.
          1    1    1    2  502    0  0.16765310394E+03  0.15863096401E+03  0.57909532897E+03  0.62339613893E+03  0.00000000000E+00 0. -1.
         22    1    3    3    0    0 -0.12498114075E+03 -0.16426932251E+03 -0.43234750075E+03  0.47909190900E+03  0.00000000000E+00 0.  1.
         22    1    3    3    0    0 -0.22691791222E+02  0.18404710943E+02 -0.12985078911E+03  0.13309725093E+03  0.00000000000E+00 0.  1.
</event>
<event>
 7    1  0.5854318E-006  0.1100613E+03  0.7818608E-02  0.1422087E+00
          2   -1    0    0  502    0  0.00000000000E+00  0.00000000000E+00  0.31121839596E+04  0.31121839596E+04  0.00000000000E+00 0. -1.
          1   -1    0    0  501    0 -0.00000000000E+00 -0.00000000000E+00 -0.67893291464E+03  0.67893291464E+03  0.00000000000E+00 0. -1.
         25    2    1    2    0    0 -0.21442727629E+02 -0.82618435073E+02  0.32603650356E+03  0.35946268293E+03  0.12501208895E+03 0.  0.
          2    1    1    2  501    0 -0.13276731173E+02 -0.23588625610E+02 -0.66081556541E+03  0.66136971985E+03  0.00000000000E+00 0. -1.
          1    1    1    2  502    0  0.34719458803E+02  0.10620706068E+03  0.27680301069E+04  0.27702844715E+04  0.00000000000E+00 0. -1.
         22    1    3    3    0    0 -0.26334579444E+02 -0.51795466175E+01  0.24788525821E+03  0.24933399089E+03  0.00000000000E+00 0.  1.
         22    1    3    3    0    0  0.48918518149E+01 -0.77438888455E+02  0.78151245350E+02  0.11012869203E+03  0.00000000000E+00 0.  1.
</event>
<event>
 7    1  0.5854318E-006  0.1040440E+03  0.7818608E-02  0.1358938E+00
          2   -1    0    0  502    0  0.00000000000E+00  0.00000000000E+00  0.45517100720E+03  0.45517100720E+03  0.00000000000E+00 0. -1.
          1   -1    0    0  501    0 -0.00000000000E+00 -0.00000000000E+00 -0.31667609489E+03  0.31667609489E+03  0.00000000000E+00 0. -1.
         25    2    1    2    0    0 -0.13285770396E+03  0.26290595236E+02  0.15974260170E+02  0.18499210104E+03  0.12499814223E+03 0.  0.
          2    1    1    2  501    0  0.31537232445E+02 -0.35593354034E+02 -0.22230345361E+03  0.22733303624E+03  0.00000000000E+00 0. -1.
          1    1    1    2  502    0  0.10132047152E+03  0.93027587973E+01  0.34482410575E+03  0.35952196481E+03  0.00000000000E+00 0. -1.
         22    1    3    3    0    0 -0.65038739540E+02 -0.45118766236E+02 -0.17329712779E+02  0.81031226404E+02  0.00000000000E+00 0.  1.
         22    1    3    3    0    0 -0.67818964421E+02  0.71409361472E+02  0.33303972948E+02  0.10396087464E+03  0.00000000000E+00 0.  1.
</event>
<event>
 7    1  0.5854318E-006  0.1554319E+03  0.7818608E-02  0.1268829E+00
          2   -1    0    0  502    0  0.00000000000E+00  0.00000000000E+00  0.86441022704E+03  0.86441022704E+03  0.00000000000E+00 0. -1.
          1   -1    0    0  501    0 -0.00000000000E+00 -0.00000000000E+00 -0.44316610679E+03  0.44316610679E+03  0.00000000000E+00 0. -1.
         25    2    1    2    0    0 -0.17251477357E+03  0.11792065985E+03  0.11771350507E+03  0.27045643657E+03  0.12499434262E+03 0.  0.
          2    1    1    2  501    0  0.14200672767E+03 -0.52899500365E+02 -0.34908799751E+03  0.38056103039E+03  0.00000000000E+00 0. -1.
          1    1    1    2  502    0  0.30508045907E+02 -0.65021159484E+02  0.65261861269E+03  0.65655886688E+03  0.00000000000E+00 0. -1.
         22    1    3    3    0    0 -0.13146353544E+03  0.26730013172E+02  0.30071526509E+02  0.13748254967E+03  0.00000000000E+00 0. -1.
         22    1    3    3    0    0 -0.41051238129E+02  0.91190646677E+02  0.87641978562E+02  0.13297388691E+03  0.00000000000E+00 0. -1.
</event>
<event>
 7    1  0.5854318E-006  0.9763389E+02  0.7818608E-02  0.1383059E+00
          2   -1    0    0  502    0  0.00000000000E+00  0.00000000000E+00  0.83913697071E+03  0.83913697071E+03  0.00000000000E+00 0. -1.
          1   -1    0    0  501    0 -0.00000000000E+00 -0.00000000000E+00 -0.47660573429E+03  0.47660573429E+03  0.00000000000E+00 0. -1.
         25    2    1    2    0    0 -0.66427720763E+02  0.16284725727E+01  0.70560608899E+02  0.15817232355E+03  0.12499756158E+03 0.  0.
          2    1    1    2  501    0  0.95242461695E+02  0.28260187106E+02 -0.42649159805E+03  0.43790963439E+03  0.00000000000E+00 0. -1.
          1    1    1    2  502    0 -0.28814740932E+02 -0.29888659679E+02  0.71846222558E+03  0.71966074706E+03  0.00000000000E+00 0. -1.
         22    1    3    3    0    0 -0.20253043824E+02  0.61892688400E+02  0.25851058009E+02  0.70065454125E+02  0.00000000000E+00 0. -1.
         22    1    3    3    0    0 -0.46174676939E+02 -0.60264215827E+02  0.44709550891E+02  0.88106869428E+02  0.00000000000E+00 0. -1.
</event>
<event>
 7    1  0.5854318E-006  0.7391983E+02  0.7818608E-02  0.1360909E+00
          2   -1    0    0  502    0  0.00000000000E+00  0.00000000000E+00  0.15792371190E+04  0.15792371190E+04  0.00000000000E+00 0. -1.
          1   -1    0    0  501    0 -0.00000000000E+00 -0.00000000000E+00 -0.33837930395E+02  0.33837930395E+02  0.00000000000E+00 0. -1.
         25    2    1    2    0    0 -0.21123042008E+01  0.12236719027E+02  0.62763793640E+03  0.64008442339E+03  0.12499796291E+03 0.  0.
          2    1    1    2  501    0 -0.59531501328E+02  0.43819415395E+02  0.27547277848E+02  0.78885951428E+02  0.00000000000E+00 0. -1.
          1    1    1    2  502    0  0.61643805529E+02 -0.56056134422E+02  0.89021397437E+03  0.89410467459E+03  0.00000000000E+00 0. -1.
         22    1    3    3    0    0 -0.46326100126E+02 -0.37038584465E+02  0.28404486898E+03  0.29017141811E+03  0.00000000000E+00 0.  1.
         22    1    3    3    0    0  0.44213795925E+02  0.49275303492E+02  0.34359306742E+03  0.34991300528E+03  0.00000000000E+00 0.  1.
</event>
<event>
 7    1  0.5854318E-006  0.7675826E+02  0.7818608E-02  0.1412471E+00
          2   -1    0    0  502    0  0.00000000000E+00  0.00000000000E+00  0.67732807966E+03  0.67732807966E+03  0.00000000000E+00 0. -1.
          1   -1    0    0  501    0 -0.00000000000E+00 -0.00000000000E+00 -0.25700366905E+04  0.25700366905E+04  0.00000000000E+00 0. -1.
         25    2    1    2    0    0 -0.69544867061E+02 -0.43055630594E+02 -0.55740481653E+02  0.15944302353E+03  0.12499920239E+03 0.  0.
          2    1    1    2  501    0 -0.73202903981E+01  0.41157703178E+02 -0.24599037377E+04  0.24602589177E+04  0.00000000000E+00 0. -1.
          1    1    1    2  502    0  0.76865157459E+02  0.18979274157E+01  0.62293560850E+03  0.62766282899E+03  0.00000000000E+00 0. -1.
         22    1    3    3    0    0  0.13661471888E+02 -0.36856443528E+02 -0.64514819832E+02  0.75545980843E+02  0.00000000000E+00 0. -1.
         22    1    3    3    0    0 -0.83206338949E+02 -0.61991870659E+01  0.87743381790E+01  0.83897042689E+02  0.00000000000E+00 0. -1.
</event>
<event>
 7    1  0.5854318E-006  0.4474527E+02  0.7818608E-02  0.1488301E+00
          2   -1    0    0  502    0  0.00000000000E+00  0.00000000000E+00  0.38552908032E+03  0.38552908032E+03  0.00000000000E+00 0. -1.
          1   -1    0    0  501    0 -0.00000000000E+00 -0.00000000000E+00 -0.97826059556E+03  0.97826059556E+03  0.00000000000E+00 0. -1.
         25    2    1    2    0    0  0.75625951476E+02  0.15122100640E+02 -0.47542300040E+02  0.15437882708E+03  0.12499835796E+03 0.  0.
          2    1    1    2  501    0 -0.43306348040E+02  0.10128828615E+02 -0.87546712057E+03  0.87659609407E+03  0.00000000000E+00 0. -1.
          1    1    1    2  502    0 -0.32319603435E+02 -0.25250929255E+02  0.33027790537E+03  0.33281475473E+03  0.00000000000E+00 0. -1.
         22    1    3    3    0    0  0.52342240873E+02 -0.11120412637E+02  0.35509822233E+02  0.64220878473E+02  0.00000000000E+00 0. -1.
         22    1    3    3    0    0  0.23283710603E+02  0.26242513277E+02 -0.83052122273E+02  0.90157948605E+02  0.00000000000E+00 0. -1.
</event>
<event>
 7    1  0.5854318E-006  0.8514846E+02  0.7818608E-02  0.1370634E+00
          2   -1    0    0  502    0  0.00000000000E+00  0.00000000000E+00  0.47084119409E+03  0.47084119409E+03  0.00000000000E+00 0. -1.
          1   -1    0    0  501    0 -0.00000000000E+00 -0.00000000000E+00 -0.16381367187E+04  0.16381367187E+04  0.00000000000E+00 0. -1.
         25    2    1    2    0    0 -0.10639034792E+03 -0.62915222161E+02 -0.35053659726E+03  0.39214507138E+03  0.12499847872E+03 0.  0.
          2    1    1    2  501    0  0.81377720086E+02  0.16522451707E+02 -0.12638855907E+04  0.12666104812E+04  0.00000000000E+00 0. -1.
          1    1    1    2  502    0  0.25012627829E+02  0.46392770454E+02  0.44712666327E+03  0.45022236029E+03  0.00000000000E+00 0. -1.
         22    1    3    3    0    0  0.19927658375E+02 -0.40506948550E+02 -0.65292248960E+02  0.79378852495E+02  0.00000000000E+00 0.  1.
         22    1    3    3    0    0 -0.12631800629E+03 -0.22408273611E+02 -0.28524434830E+03  0.31276621889E+03  0.00000000000E+00 0.  1.
</event>
<event>
 7    1  0.5854318E-006  0.1532325E+03  0.7818608E-02  0.1339326E+00
          2   -1    0    0  502    0  0.00000000000E+00  0.00000000000E+00  0.22806944847E+03  0.22806944847E+03  0.00000000000E+00 0. -1.
          1   -1    0    0  501    0 -0.00000000000E+00 -0.00000000000E+00 -0.18639255303E+04  0.18639255303E+04  0.00000000000E+00 0. -1.
         25    2    1    2    0    0  0.97525009570E+02  0.10916550228E+03 -0.70628731458E+02  0.20503785205E+03  0.12499547467E+03 0.  0.
          2    1    1    2  501    0 -0.12768155424E+03 -0.85750613015E+02 -0.17203467007E+04  0.17272083017E+04  0.00000000000E+00 0. -1.
          1    1    1    2  502    0  0.30156544666E+02 -0.23414889268E+02  0.15511935035E+03  0.15974882497E+03  0.00000000000E+00 0. -1.
         22    1    3    3    0    0  0.77280745470E+02  0.47710353685E+02 -0.99033875977E+02  0.13437373278E+03  0.00000000000E+00 0. -1.
         22    1    3    3    0    0  0.20244264100E+02  0.61455148597E+02  0.28405144518E+02  0.70664119277E+02  0.00000000000E+00 0. -1.
</event>
<event>
 7    1  0.5854318E-006  0.1067487E+03  0.7818608E-02  0.1299653E+00
          2   -1    0    0  502    0  0.00000000000E+00  0.00000000000E+00  0.81768799041E+03  0.81768799041E+03  0.00000000000E+00 0. -1.
          1   -1    0    0  501    0 -0.00000000000E+00 -0.00000000000E+00 -0.86296134441E+02  0.86296134441E+02  0.00000000000E+00 0. -1.
         25    2    1    2    0    0  0.62669047934E+02 -0.14562812487E+02  0.16217217605E+03  0.21462373543E+03  0.12499619214E+03 0.  0.
          2    1    1    2  501    0 -0.88613548000E+02  0.88275782833E+02  0.10850775595E+02  0.12554964777E+03  0.00000000000E+00 0. -1.
          1    1    1    2  502    0  0.25944500066E+02 -0.73712970346E+02  0.55836890433E+03  0.56381074165E+03  0.00000000000E+00 0. -1.
         22    1    3    3    0    0 -0.23885572690E+02  0.25213404572E+02  0.11918132074E+02  0.36718908276E+02  0.00000000000E+00 0.  1.
         22    1    3    3    0    0  0.86554620624E+02 -0.39776217058E+02  0.15025404397E+03  0.17790482715E+03  0.00000000000E+00 0.  1.
</event>
<event>
 7    1  0.5854318E-006  0.8542567E+02  0.7818608E-02  0.1431111E+00
          2   -1    0    0  502    0  0.00000000000E+00  0.00000000000E+00  0.34765592077E+03  0.34765592077E+03  0.00000000000E+00 0. -1.
          1   -1    0    0  501    0 -0.00000000000E+00 -0.00000000000E+00 -0.48790906452E+03  0.48790906452E+03  0.00000000000E+00 0. -1.
         25    2    1    2    0    0  0.36936970581E+02 -0.62487890749E+02 -0.37851794342E+03  0.40517800417E+03  0.12499722113E+03 0.  0.
          2    1    1    2  501    0 -0.23830817563E+02 -0.22183319105E+02 -0.87595759482E+02  0.93450653243E+02  0.00000000000E+00 0. -1.
          1    1    1    2  502    0 -0.13106153017E+02  0.84671209854E+02  0.32586055915E+03  0.33693632787E+03  0.00000000000E+00 0. -1.
         22    1    3    3    0    0  0.38910786161E+02  0.26755099149E+02 -0.20109601601E+03  0.20656595137E+03  0.00000000000E+00 0. -1.
         22    1    3    3    0    0 -0.19738155798E+01 -0.89242989898E+02 -0.17742192741E+03  0.19861205280E+03  0.00000000000E+00 0. -1.
</event>
<event>
 7    1  0.5854318E-006  0.1454195E+03  0.7818608E-02  0.1310300E+00
          2   -1    0    0  502    0  0.00000000000E+00  0.00000000000E+00  0.16358831539E+04  0.16358831539E+04  0.00000000000E+00 0. -1.
          1   -1    0    0  501    0 -0.00000000000E+00 -0.00000000000E+00 -0.11894123446E+04  0.11894123446E+04  0.00000000000E+00 0. -1.
         25    2    1    2    0    0  0.95100929597E+02 -0.10324413435E+02 -0.18703177272E+02  0.15850552330E+03  0.12499364685E+03 0.  0.
          2    1    1    2  501    0  0.50448946095E+02 -0.12777486463E+02 -0.10967223711E+04  0.10979564288E+04  0.00000000000E+00 0. -1.
          1    1    1    2  502    0 -0.14554987569E+03  0.23101899898E+02  0.15618963577E+04  0.15688335464E+04  0.00000000000E+00 0. -1.
         22    1    3    3    0    0  0.82378542913E+02 -0.48305439888E+02  0.25510970530E+02  0.98845583982E+02  0.00000000000E+00 0. -1.
         22    1    3    3    0    0  0.12722386684E+02  0.37981026453E+02 -0.44214147803E+02  0.59659939317E+02  0.00000000000E+00 0. -1.
</event>
<event>
 7    1  0.5854318E-006  0.1257188E+03  0.7818608E-02  0.1290915E+00
          2   -1    0    0  502    0  0.00000000000E+00  0.00000000000E+00  0.11907021160E+04  0.11907021160E+04  0.00000000000E+00 0. -1.
          1   -1    0    0  501    0 -0.00000000000E+00 -0.00000000000E+00 -0.33405626767E+03  0.33405626767E+03  0.00000000000E+00 0. -1.
         25    2    1    2    0    0  0.69605435548E+02 -0.13757042521E+03  0.73058597039E+02  0.21150247391E+03  0.12500079728E+03 0.  0.
          2    1    1    2  501    0 -0.10086993665E+03  0.72754456612E+02 -0.24891103676E+03  0.27825286935E+03  0.00000000000E+00 0. -1.
          1    1    1    2  502    0  0.31264501107E+02  0.64815968594E+02  0.10324982881E+04  0.10350030404E+04  0.00000000000E+00 0. -1.
         22    1    3    3    0    0  0.39111698523E+02 -0.57521637860E+02 -0.31479886064E+02  0.76350815386E+02  0.00000000000E+00 0.  1.
         22    1    3    3    0    0  0.30493737025E+02 -0.80048787346E+02  0.10453848310E+03  0.13515165853E+03  0.00000000000E+00 0.  1.
</event>
<event>
 7    1  0.5854318E-006  0.1380711E+03  0.7818608E-02  0.1284257E+00
          2   -1    0    0  502    0  0.00000000000E+00  0.00000000000E+00  0.14981091657E+04  0.14981091657E+04  0.00000000000E+00 0. -1.
          1   -1    0    0  501    0 -0.00000000000E+00 -0.00000000000E+00 -0.71933767330E+03  0.71933767330E+03  0.00000000000E+00 0. -1.
         25    2    1    2    0    0 -0.85311655596E+02  0.17523480308E+03  0.75010293199E+02  0.24338669509E+03  0.12500089788E+03 0.  0.
          2    1    1    2  501    0 -0.43840658016E+00 -0.69755835135E+02 -0.62976834325E+03  0.63361994515E+03  0.00000000000E+00 0. -1.
          1    1    1    2  502    0  0.85750062176E+02 -0.10547896795E+03  0.13335295425E+04  0.13404401988E+04  0.00000000000E+00 0. -1.
         22    1    3    3    0    0 -0.52022962282E+02  0.18812917187E+03  0.69878528975E+02  0.20732096547E+03  0.00000000000E+00 0.  1.
         22    1    3    3    0    0 -0.33288693314E+02 -0.12894368787E+02  0.51317642241E+01  0.36065729620E+02  0.00000000000E+00 0.  1.
</event>
<event>
 7    1  0.5854318E-006  0.1434582E+03  0.7818608E-02  0.1258971E+00
          2   -1    0    0  502    0  0.00000000000E+00  0.00000000000E+00  0.56644322402E+02  0.56644322402E+02  0.00000000000E+00 0. -1.
          1   -1    0    0  501    0 -0.00000000000E+00 -0.00000000000E+00 -0.12229892347E+04  0.12229892347E+04  0.00000000000E+00 0. -1.
         25    2    1    2    0    0 -0.92065872787E+02 -0.18250277143E+02 -0.23359974292E+03  0.28107495141E+03  0.12500036348E+03 0.  0.
          2    1    1    2  501    0  0.12966736643E+03  0.95239651099E+02 -0.88691760092E+03  0.90139172832E+03  0.00000000000E+00 0. -1.
          1    1    1    2  502    0 -0.37601493647E+02 -0.76989373956E+02 -0.45827568446E+02  0.97166877362E+02  0.00000000000E+00 0. -1.
         22    1    3    3    0    0 -0.60654833105E+02  0.32781494720E+02 -0.20176429187E+03  0.21321928770E+03  0.00000000000E+00 0.  1.
         22    1    3    3    0    0 -0.31411039682E+02 -0.51031771863E+02 -0.31835451050E+02  0.67855663705E+02  0.00000000000E+00 0.  1.
</event>
<event>
 7    1  0.5854318E-006  0.1571048E+03  0.7818608E-02  0.1362761E+00
          2   -1    0    0  502    0  0.00000000000E+00  0.00000000000E+00  0.85462924977E+02  0.85462924977E+02  0.00000000000E+00 0. -1.
          1   -1    0    0  501    0 -0.00000000000E+00 -0.00000000000E+00 -0.15856876669E+04  0.15856876669E+04  0.00000000000E+00 0. -1.
         25    2    1    2    0    0  0.16051620164E+02 -0.18110421521E+03 -0.52191166891E+03  0.56663474306E+03  0.12500700229E+03 0.  0.
          2    1    1    2  501    0  0.63599350358E+01  0.29828868213E+02 -0.94815331202E+03  0.94864372303E+03  0.00000000000E+00 0. -1.
          1    1    1    2  502    0 -0.22411555200E+02  0.15127534700E+03 -0.30159760996E+02  0.15587212579E+03  0.00000000000E+00 0. -1.
         22    1    3    3    0    0  0.33869722500E+02 -0.11650937031E+03 -0.45884634867E+03  0.47461728072E+03  0.00000000000E+00 0. -1.
         22    1    3    3    0    0 -0.17818102337E+02 -0.64594844895E+02 -0.63065320244E+02  0.92017462339E+02  0.00000000000E+00 0. -1.
</event>
<event>
 7    1  0.5854318E-006  0.3551271E+02  0.7818608E-02  0.1570207E+00
          2   -1    0    0  502    0  0.00000000000E+00  0.00000000000E+00  0.41189595630E+03  0.41189595630E+03  0.00000000000E+00 0. -1.
          1   -1    0    0  501    0 -0.00000000000E+00 -0.00000000000E+00 -0.25754876622E+02  0.25754876622E+02  0.00000000000E+00 0. -1.
         25    2    1    2    0    0  0.27063677986E+01 -0.28197366822E+02  0.27096077995E+03  0.29974303863E+03  0.12499491594E+03 0.  0.
          2    1    1    2  501    0 -0.30059933715E+02 -0.99675810172E+00  0.24492018443E+02  0.38787267358E+02  0.00000000000E+00 0. -1.
          1    1    1    2  502    0  0.27353565916E+02  0.29194124924E+02  0.90688281282E+02  0.99120526937E+02  0.00000000000E+00 0. -1.
         22    1    3    3    0    0 -0.38145416552E+02 -0.63514687172E+02  0.16172416163E+03  0.17788730350E+03  0.00000000000E+00 0.  1.
         22    1    3    3    0    0  0.40851784351E+02  0.35317320350E+02  0.10923661832E+03  0.12185573513E+03  0.00000000000E+00 0.  1.
</event>
<event>
 7    1  0.5854318E-006  0.4012388E+02  0.7818608E-02  0.1538937E+00
          2   -1    0    0  502    0  0.00000000000E+00  0.00000000000E+00  0.25195107280E+03  0.25195107280E+03  0.00000000000E+00 0. -1.
          1   -1    0    0  501    0 -0.00000000000E+00 -0.00000000000E+00 -0.51800286090E+02  0.51800286090E+02  0.00000000000E+00 0. -1.
         25    2    1    2    0    0 -0.32167713787E+02 -0.14927781511E+01  0.67136850969E+02  0.14549322018E+03  0.12499572058E+03 0.  0.
          2    1    1    2  501    0  0.34284298017E+02  0.33925978605E+02  0.51783851455E+02  0.70766887641E+02  0.00000000000E+00 0. -1.
          1    1    1    2  502    0 -0.21165842297E+01 -0.32433200454E+02  0.81230084282E+02  0.87491251065E+02  0.00000000000E+00 0. -1.
         22    1    3    3    0    0  0.25813149753E+02  0.16391766847E+02 -0.21996347500E+02  0.37667599125E+02  0.00000000000E+00 0. -1.
         22    1    3    3    0    0 -0.57980863540E+02 -0.17884544998E+02  0.89133198469E+02  0.10782562105E+03  0.00000000000E+00 0. -1.
</event>
<event>
 7    1  0.5854318E-006  0.6788175E+02  0.7818608E-02  0.1407563E+00
          2   -1    0    0  502    0  0.00000000000E+00  0.00000000000E+00  0.14244378541E+03  0.14244378541E+03  0.00000000000E+00 0. -1.
          1   -1    0    0  501    0 -0.00000000000E+00 -0.00000000000E+00 -0.41257053505E+03  0.41257053505E+03  0.00000000000E+00 0. -1.
         25    2    1    2    0    0  0.75297220690E+02  0.10601814158E+02 -0.69004803974E+02  0.16177225515E+03  0.12500611848E+03 0.  0.
          2    1    1    2  501    0 -0.16582607953E+02 -0.46231543621E+02 -0.28251041029E+03  0.28674809578E+03  0.00000000000E+00 0. -1.
          1    1    1    2  502    0 -0.58714612737E+02  0.35629729463E+02  0.81388464624E+02  0.10649396952E+03  0.00000000000E+00 0. -1.
         22    1    3    3    0    0  0.35770531033E+02  0.66406187431E+02 -0.21250547159E+02  0.78363884373E+02  0.00000000000E+00 0.  1.
         22    1    3    3    0    0  0.39526689657E+02 -0.55804373272E+02 -0.47754256814E+02  0.83408370776E+02  0.00000000000E+00 0.  1.
</event>
<event>
 7    1  0.5854318E-006  0.2654332E+03  0.7818608E-02  0.1185534E+00
          2   -1    0    0  502    0  0.00000000000E+00  0.00000000000E+00  0.17622200324E+03  0.17622200324E+03  0.00000000000E+00 0. -1.
          1   -1    0    0  501    0 -0.00000000000E+00 -0.00000000000E+00 -0.17101854766E+04  0.17101854766E+04  0.00000000000E+00 0. -1.
         25    2    1    2    0    0  0.96088730343E+02 -0.19924802020E+03 -0.40447366501E+03  0.47765800303E+03  0.12500161803E+03 0.  0.
          2    1    1    2  501    0 -0.45234796493E+02  0.28522779288E+03 -0.12321310648E+04  0.12655228333E+04  0.00000000000E+00 0. -1.
          1    1    1    2  502    0 -0.50853933851E+02 -0.85979772672E+02  0.10264125645E+03  0.14322664355E+03  0.00000000000E+00 0. -1.
         22    1    3    3    0    0  0.12444778781E+03 -0.17891289471E+03 -0.36361341255E+03  0.42392427339E+03  0.00000000000E+00 0.  1.
         22    1    3    3    0    0 -0.28359057463E+02 -0.20335125492E+02 -0.40860252463E+02  0.53733729633E+02  0.00000000000E+00 0.  1.
</event>
<event>
 7    1  0.5854318E-006  0.4975834E+03  0.7818608E-02  0.1087544E+00
          2   -1    0    0  502    0  0.00000000000E+00  0.00000000000E+00  0.20414061213E+04  0.20414061213E+04  0.00000000000E+00 0. -1.
          1   -1    0    0  501    0 -0.00000000000E+00 -0.00000000000E+00 -0.24886589669E+03  0.24886589669E+03  0.00000000000E+00 0. -1.
         25    2    1    2    0    0 -0.34957138864E+03  0.13003771907E+03  0.89516502165E+03  0.97778133992E+03  0.12500387424E+03 0.  0.
          2    1    1    2  501    0  0.51348615139E+03 -0.19250525043E+03  0.18486709867E+03  0.57870730363E+03  0.00000000000E+00 0. -1.
          1    1    1    2  502    0 -0.16391476275E+03  0.62467531361E+02  0.71250810432E+03  0.73378337447E+03  0.00000000000E+00 0. -1.
         22    1    3    3    0    0 -0.70771008764E+02 -0.23374023930E+02  0.14932817200E+03  0.16689452846E+03  0.00000000000E+00 0. -1.
         22    1    3    3    0    0 -0.27880037987E+03  0.15341174300E+03  0.74583684965E+03  0.81088681146E+03  0.00000000000E+00 0. -1.
</event>
<event>
 7    1  0.5854318E-006  0.3810094E+03  0.7818608E-02  0.1172974E+00
          2   -1    0    0  502    0  0.00000000000E+00  0.00000000000E+00  0.11390465125E+04  0.11390465125E+04  0.00000000000E+00 0. -1.
          1   -1    0    0  501    0 -0.00000000000E+00 -0.00000000000E+00 -0.15708152303E+04  0.15708152303E+04  0.00000000000E+00 0. -1.
         25    2    1    2    0    0 -0.35887327755E+03 -0.28583559232E+03  0.77240219098E+03  0.90704038568E+03  0.12500040581E+03 0.  0.
          2    1    1    2  501    0  0.29909036756E+03  0.23243946187E+03 -0.14737118538E+04  0.15216142019E+04  0.00000000000E+00 0. -1.
          1    1    1    2  502    0  0.59782909984E+02  0.53396130449E+02  0.26954094510E+03  0.28120715524E+03  0.00000000000E+00 0. -1.
         22    1    3    3    0    0 -0.34551397003E+03 -0.22880614584E+03  0.64260924128E+03  0.76464291851E+03  0.00000000000E+00 0.  1.
         22    1    3    3    0    0 -0.13359307519E+02 -0.57029446483E+02  0.12979294970E+03  0.14239746716E+03  0.00000000000E+00 0.  1.
</event>
<event>
 7    1  0.5854318E-006  0.8388923E+02  0.7818608E-02  0.1392674E+00
          2   -1    0    0  502    0  0.00000000000E+00  0.00000000000E+00  0.30193739106E+04  0.30193739106E+04  0.00000000000E+00 0. -1.
          1   -1    0    0  501    0 -0.00000000000E+00 -0.00000000000E+00 -0.16056444273E+03  0.16056444273E+03  0.00000000000E+00 0. -1.
         25    2    1    2    0    0 -0.34682686282E+02  0.11600922844E+03  0.15452073503E+04  0.15549759341E+04  0.12499348117E+03 0.  0.
          2    1    1    2  501    0  0.39252568641E+01 -0.83552596119E+02 -0.14407723182E+03  0.16659739700E+03  0.00000000000E+00 0. -1.
          1    1    1    2  502    0  0.30757429418E+02 -0.32456632321E+02  0.14576793494E+04  0.14583650222E+04  0.00000000000E+00 0. -1.
         22    1    3    3    0    0 -0.52714892642E+02  0.65861198401E+01  0.28581367180E+03  0.29070894700E+03  0.00000000000E+00 0.  1.
         22    1    3    3    0    0  0.18032206361E+02  0.10942310860E+03  0.12593936785E+04  0.12642669871E+04  0.00000000000E+00 0.  1.
</event>
<event>
 7    1  0.5854318E-006  0.6985797E+02  0.7818608E-02  0.1365139E+00
          2   -1    0    0  502    0  0.00000000000E+00  0.00000000000E+00  0.15356681678E+04  0.15356681678E+04  0.00000000000E+00 0. -1.
          1   -1    0    0  501    0 -0.00000000000E+00 -0.00000000000E+00 -0.40424685127E+02  0.40424685127E+02  0.00000000000E+00 0. -1.
         25    2    1    2    0    0 -0.68428850351E+00 -0.44727547320E+02  0.48022384830E+03  0.49823596037E+03  0.12499242372E+03 0.  0.
          2    1    1    2  501    0 -0.65806376227E+02  0.34708518450E+02  0.15396896513E+02  0.75975159278E+02  0.00000000000E+00 0. -1.
          1    1    1    2  502    0  0.66490664730E+02  0.10019028870E+02  0.99962273787E+03  0.10018817333E+04  0.00000000000E+00 0. -1.
         22    1    3    3    0    0  0.60634749194E+00 -0.31835033220E+02  0.19515760701E+02  0.37345708095E+02  0.00000000000E+00 0.  1.
         22    1    3    3    0    0 -0.12906359955E+01 -0.12892514100E+02  0.46070808760E+03  0.46089025227E+03  0.00000000000E+00 0.  1.
</event>
<event>
 7    1  0.5854318E-006  0.1923206E+03  0.7818608E-02  0.1245901E+00
          2   -1    0    0  502    0  0.00000000000E+00  0.00000000000E+00  0.24681273040E+04  0.24681273040E+04  0.00000000000E+00 0. -1.
          1   -1    0    0  501    0 -0.00000000000E+00 -0.00000000000E+00 -0.24757885421E+04  0.24757885421E+04  0.00000000000E+00 0. -1.
         25    2    1    2    0    0  0.79181582294E+02  0.17341840763E+03 -0.53412746355E+03  0.58073890630E+03  0.12498745095E+03 0.  0.
          2    1    1    2  501    0  0.60264749297E+02 -0.40820984501E+02 -0.19138761547E+04  0.19152598070E+04  0.00000000000E+00 0. -1.
          1    1    1    2  502    0 -0.13944633159E+03 -0.13259742313E+03  0.24403423802E+04  0.24479171327E+04  0.00000000000E+00 0. -1.
         22    1    3    3    0    0  0.63276125850E+02  0.21791649881E+02 -0.24376354788E+03  0.25278332893E+03  0.00000000000E+00 0. -1.
         22    1    3    3    0    0  0.15905456444E+02  0.15162675775E+03 -0.29036391567E+03  0.32795557737E+03  0.00000000000E+00 0. -1.
</event>
<event>
 7    1  0.5854318E-006  0.2375948E+02  0.7818608E-02  0.1698792E+00
          2   -1    0    0  502    0  0.00000000000E+00  0.00000000000E+00  0.30725571017E+03  0.30725571017E+03  0.00000000000E+00 0. -1.
          1   -1    0    0  501    0 -0.00000000000E+00 -0.00000000000E+00 -0.10145430642E+04  0.10145430642E+04  0.00000000000E+00 0. -1.
         25    2    1    2    0    0 -0.30329651411E+02  0.31476168009E+02  0.92448718385E+02  0.16150075607E+03  0.12500036709E+03 0.  0.
          2    1    1    2  501    0  0.17942247197E+02 -0.11691955596E+02 -0.97914389510E+03  0.97937806457E+03  0.00000000000E+00 0. -1.
          1    1    1    2  502    0  0.12387404214E+02 -0.19784212412E+02  0.17940782264E+03  0.18091995376E+03  0.00000000000E+00 0. -1.
         22    1    3    3    0    0 -0.24776773075E+02 -0.47296660107E+02  0.39701087979E+02  0.66535997235E+02  0.00000000000E+00 0.  1.
         22    1    3    3    0    0 -0.55528783356E+01  0.78772828116E+02  0.52747630405E+02  0.94964758835E+02  0.00000000000E+00 0.  1.
</event>
<event>
 7    1  0.5854318E-006  0.4932771E+02  0.7818608E-02  0.1474034E+00
          2   -1    0    0  502    0  0.00000000000E+00  0.00000000000E+00  0.18888383402E+03  0.18888383402E+03  0.00000000000E+00 0. -1.
          1   -1    0    0  501    0 -0.00000000000E+00 -0.00000000000E+00 -0.10408217302E+04  0.10408217302E+04  0.00000000000E+00 0. -1.
         25    2    1    2    0    0  0.27909431476E+02 -0.25818426931E+01  0.67722585217E+02  0.14490307434E+03  0.12499980051E+03 0.  0.
          2    1    1    2  501    0 -0.23661913176E+02  0.43504035051E+02 -0.99645322456E+03  0.99768307389E+03  0.00000000000E+00 0. -1.
          1    1    1    2  502    0 -0.42475182996E+01 -0.40922192358E+02  0.76792743158E+02  0.87119415981E+02  0.00000000000E+00 0. -1.
         22    1    3    3    0    0 -0.17630721976E+02 -0.55210110051E+02  0.24115836217E+02  0.62773976819E+02  0.00000000000E+00 0.  1.
         22    1    3    3    0    0  0.45540153452E+02  0.52628267358E+02  0.43606749000E+02  0.82129097523E+02  0.00000000000E+00 0.  1.
</event>
<event>
 7    1  0.5854318E-006  0.5141557E+02  0.7818608E-02  0.1539175E+00
          2   -1    0    0  502    0  0.00000000000E+00  0.00000000000E+00  0.17431618107E+04  0.17431618107E+04  0.00000000000E+00 0. -1.
          1   -1    0    0  501    0 -0.00000000000E+00 -0.00000000000E+00 -0.14439882864E+03  0.14439882864E+03  0.00000000000E+00 0. -1.
         25    2    1    2    0    0  0.40919613748E+02 -0.30083235742E+01  0.51465480824E+02  0.14126817664E+03  0.12499814885E+03 0.  0.
          2    1    1    2  501    0 -0.47972126434E+02 -0.21314716223E+02 -0.92468996413E+02  0.10633041587E+03  0.00000000000E+00 0. -1.
          1    1    1    2  502    0  0.70525126861E+01  0.24323039797E+02  0.16397664977E+04  0.16399620468E+04  0.00000000000E+00 0. -1.
         22    1    3    3    0    0  0.62661224971E+02 -0.49728119593E+02  0.29749124234E+02  0.85348259418E+02  0.00000000000E+00 0. -1.
         22    1    3    3    0    0 -0.21741611223E+02  0.46719796018E+02  0.21716356590E+02  0.55919917222E+02  0.00000000000E+00 0. -1.
</event>
<event>
 7    1  0.5854318E-006  0.6520161E+02  0.7818608E-02  0.1498311E+00
          2   -1    0    0  502    0  0.00000000000E+00  0.00000000000E+00  0.17032095669E+04  0.17032095669E+04  0.00000000000E+00 0. -1.
          1   -1    0    0  501    0 -0.00000000000E+00 -0.00000000000E+00 -0.69457375207E+02  0.69457375207E+02  0.00000000000E+00 0. -1.
         25    2    1    2    0    0  0.23920608933E+02 -0.86412828951E+02  0.51761134641E+03  0.53998872161E+03  0.12500776373E+03 0.  0.
          2    1    1    2  501    0 -0.11288559890E+02  0.63392099894E+02 -0.40285785492E+02  0.75953501737E+02  0.00000000000E+00 0. -1.
          1    1    1    2  502    0 -0.12632049043E+02  0.23020729057E+02  0.11564266308E+04  0.11567247187E+04  0.00000000000E+00 0. -1.
         22    1    3    3    0    0 -0.26202621890E+02  0.89065272536E+01  0.24989872303E+03  0.25142648109E+03  0.00000000000E+00 0. -1.
         22    1    3    3    0    0  0.50123230823E+02 -0.95319356205E+02  0.26771262339E+03  0.28856224053E+03  0.00000000000E+00 0. -1.
</event>
<event>
 7    1  0.5854318E-006  0.4044503E+02  0.7818608E-02  0.1515721E+00
          2   -1    0    0  502    0  0.00000000000E+00  0.00000000000E+00  0.72403078524E+02  0.72403078524E+02  0.00000000000E+00 0. -1.
          1   -1    0    0  501    0 -0.00000000000E+00 -0.00000000000E+00 -0.47128473611E+03  0.47128473611E+03  0.00000000000E+00 0. -1.
         25    2    1    2    0    0 -0.16719211242E+02  0.11714381461E+02 -0.87994724101E+02  0.15422085254E+03  0.12499696449E+03 0.  0.
          2    1    1    2  501    0 -0.22774537654E+02 -0.29920133883E+02 -0.33676772216E+03  0.33886043243E+03  0.00000000000E+00 0. -1.
          1    1    1    2  502    0  0.39493748896E+02  0.18205752422E+02  0.25880788671E+02  0.50606529670E+02  0.00000000000E+00 0. -1.
         22    1    3    3    0    0 -0.70409152425E+02 -0.33457242401E+01 -0.55196565665E+02  0.89528227265E+02  0.00000000000E+00 0. -1.
         22    1    3    3    0    0  0.53689941184E+02  0.15060105701E+02 -0.32798158436E+02  0.64692625274E+02  0.00000000000E+00 0. -1.
</event>
<event>
 7    1  0.5854318E-006  0.6504664E+02  0.7818608E-02  0.1535913E+00
          2   -1    0    0  502    0  0.00000000000E+00  0.00000000000E+00  0.39400375052E+03  0.39400375052E+03  0.00000000000E+00 0. -1.
          1   -1    0    0  501    0 -0.00000000000E+00 -0.00000000000E+00 -0.13939218226E+03  0.13939218226E+03  0.00000000000E+00 0. -1.
         25    2    1    2    0    0 -0.28060486183E+02  0.49241272559E+02 -0.40302354045E+01  0.13730771763E+03  0.12500029086E+03 0.  0.
          2    1    1    2  501    0 -0.19928551161E+02 -0.45835491617E+01 -0.63827570498E+02  0.67023240969E+02  0.00000000000E+00 0. -1.
          1    1    1    2  502    0  0.47989037344E+02 -0.44657723398E+02  0.32246937416E+03  0.32906497419E+03  0.00000000000E+00 0. -1.
         22    1    3    3    0    0  0.34314056711E+02 -0.97681214721E+01 -0.31045542060E+02  0.47293724392E+02  0.00000000000E+00 0.  1.
         22    1    3    3    0    0 -0.62374542894E+02  0.59009394032E+02  0.27015306656E+02  0.90013993240E+02  0.00000000000E+00 0.  1.
</event>
<event>
 7    1  0.5854318E-006  0.1378211E+03  0.7818608E-02  0.1356883E+00
          2   -1    0    0  502    0  0.00000000000E+00  0.00000000000E+00  0.58320937666E+03  0.58320937666E+03  0.00000000000E+00 0. -1.
          1   -1    0    0  501    0 -0.00000000000E+00 -0.00000000000E+00 -0.89471109529E+02  0.89471109529E+02  0.00000000000E+00 0. -1.
         25    2    1    2    0    0  0.15224153193E+03  0.44362192280E+02  0.17140607589E+03  0.26484922663E+03  0.12497832551E+03 0.  0.
          2    1    1    2  501    0 -0.12764516581E+03 -0.17356690533E+02  0.58497044800E+02  0.14147949432E+03  0.00000000000E+00 0. -1.
          1    1    1    2  502    0 -0.24596366115E+02 -0.27005501747E+02  0.26383514644E+03  0.26635176524E+03  0.00000000000E+00 0. -1.
         22    1    3    3    0    0  0.60946884674E+02  0.59481588093E+02  0.14577319232E+03  0.16882655500E+03  0.00000000000E+00 0.  1.
         22    1    3    3    0    0  0.91294647254E+02 -0.15119395813E+02  0.25632883570E+02  0.96022671630E+02  0.00000000000E+00 0.  1.
</event>
<event>
 7    1  0.5854318E-006  0.9127826E+02  0.7818608E-02  0.1327670E+00
          2   -1    0    0  502    0  0.00000000000E+00  0.00000000000E+00  0.61931499559E+02  0.61931499559E+02  0.00000000000E+00 0. -1.
          1   -1    0    0  501    0 -0.00000000000E+00 -0.00000000000E+00 -0.28197546880E+04  0.28197546880E+04  0.00000000000E+00 0. -1.
         25    2    1    2    0    0 -0.11881452166E+03  0.47662996592E+02 -0.48649817080E+03  0.51835821630E+03  0.12500447356E+03 0.  0.
          2    1    1    2  501    0  0.30701827604E+02 -0.63990927898E+02 -0.22725981303E+04  0.22737061602E+04  0.00000000000E+00 0. -1.
          1    1    1    2  502    0  0.88112694055E+02  0.16327931306E+02  0.12731127061E+01  0.89621811019E+02  0.00000000000E+00 0. -1.
         22    1    3    3    0    0 -0.64228449568E+02 -0.39252021017E+02 -0.23356209814E+03  0.24539207113E+03  0.00000000000E+00 0.  1.
         22    1    3    3    0    0 -0.54586072091E+02  0.86915017609E+02 -0.25293607266E+03  0.27296614517E+03  0.00000000000E+00 0.  1.
</event>
<event>
 7    1  0.5854318E-006  0.1717515E+03  0.7818608E-02  0.1306687E+00
          2   -1    0    0  502    0  0.00000000000E+00  0.00000000000E+00  0.25823022448E+04  0.25823022448E+04  0.00000000000E+00 0. -1.
          1   -1    0    0  501    0 -0.00000000000E+00 -0.00000000000E+00 -0.20123606806E+03  0.20123606806E+03  0.00000000000E+00 0. -1.
         25    2    1    2    0    0 -0.93849551301E+02  0.13185743349E+03  0.35424679402E+03  0.40903460986E+03  0.12499759975E+03 0.  0.
          2    1    1    2  501    0 -0.40155805887E+02 -0.21469681211E+02 -0.16737134296E+03  0.17345490020E+03  0.00000000000E+00 0. -1.
          1    1    1    2  502    0  0.13400535719E+03 -0.11038775228E+03  0.21941907257E+04  0.22010488028E+04  0.00000000000E+00 0. -1.
         22    1    3    3    0    0 -0.52440755574E+02 -0.10721882992E+02  0.12412616696E+03  0.13517506037E+03  0.00000000000E+00 0. -1.
         22    1    3    3    0    0 -0.41408795727E+02  0.14257931648E+03  0.23012062705E+03  0.27385954949E+03  0.00000000000E+00 0. -1.
</event>
<event>
 7    1  0.5854318E-006  0.1082334E+03  0.7818608E-02  0.1313342E+00
          2   -1    0    0  502    0  0.00000000000E+00  0.00000000000E+00  0.38931472406E+03  0.38931472406E+03  0.00000000000E+00 0. -1.
          1   -1    0    0  501    0 -0.00000000000E+00 -0.00000000000E+00 -0.65762170940E+03  0.65762170940E+03  0.00000000000E+00 0. -1.
         25    2    1    2    0    0  0.56920823579E+02 -0.15296512894E+02 -0.11107668344E+03  0.17730678228E+03  0.12500280786E+03 0.  0.
          2    1    1    2  501    0  0.50697898484E+02  0.45353409337E+02 -0.50231796279E+03  0.50690289444E+03  0.00000000000E+00 0. -1.
          1    1    1    2  502    0 -0.10761872206E+03 -0.30056896443E+02  0.34508766088E+03  0.36272675674E+03  0.00000000000E+00 0. -1.
         22    1    3    3    0    0  0.60930722423E+02 -0.61349082794E+02 -0.94772239865E+02  0.12828889408E+03  0.00000000000E+00 0.  1.
         22    1    3    3    0    0 -0.40098988439E+01  0.46052569899E+02 -0.16304443575E+02  0.49017888198E+02  0.00000000000E+00 0.  1.
</event>
<event>
 7    1  0.5854318E-006  0.4176252E+02  0.7818608E-02  0.1511826E+00
          2   -1    0    0  502    0  0.00000000000E+00  0.00000000000E+00  0.56345860323E+03  0.56345860323E+03  0.00000000000E+00 0. -1.
          1   -1    0    0  501    0 -0.00000000000E+00 -0.00000000000E+00 -0.41616987406E+03  0.41616987406E+03  0.00000000000E+00 0. -1.
         25    2    1    2    0    0 -0.26074525780E+02  0.16624124348E+02  0.24168103284E+03  0.27384429235E+03  0.12499892965E+03 0.  0.
          2    1    1    2  501    0 -0.15201789019E+01 -0.41846000029E+02 -0.39784236386E+03  0.40003992944E+03  0.00000000000E+00 0. -1.
          1    1    1    2  502    0  0.27594704682E+02  0.25221875682E+02  0.30345006019E+03  0.30574425550E+03  0.00000000000E+00 0. -1.
         22    1    3    3    0    0  0.38699945847E+01  0.16964767006E+02  0.24323589058E+03  0.24385749659E+03  0.00000000000E+00 0.  1.
         22    1    3    3    0    0 -0.29944520364E+02 -0.34064265859E+00 -0.15548577430E+01  0.29986795759E+02  0.00000000000E+00 0.  1.
</event>
<event>
 7    1  0.5854318E-006  0.5443230E+02  0.7818608E-02  0.1426453E+00
          2   -1    0    0  502    0  0.00000000000E+00  0.00000000000E+00  0.98938126160E+03  0.98938126160E+03  0.00000000000E+00 0. -1.
          1   -1    0    0  501    0 -0.00000000000E+00 -0.00000000000E+00 -0.66881825609E+03  0.66881825609E+03  0.00000000000E+00 0. -1.
         25    2    1    2    0    0 -0.69372240765E+00  0.50887158823E+02 -0.22324179157E+03  0.26086735635E+03  0.12499958370E+03 0.  0.
          2    1    1    2  501    0 -0.48354201839E+02 -0.27282581315E+02 -0.42419011268E+03  0.42780804080E+03  0.00000000000E+00 0. -1.
          1    1    1    2  502    0  0.49047924247E+02 -0.23604577508E+02  0.96799490977E+03  0.96952412053E+03  0.00000000000E+00 0. -1.
         22    1    3    3    0    0  0.21026978583E+02 -0.34615074272E+02 -0.37302051215E+02  0.55061603864E+02  0.00000000000E+00 0. -1.
         22    1    3    3    0    0 -0.21720700990E+02  0.85502233095E+02 -0.18593974035E+03  0.20580575249E+03  0.00000000000E+00 0. -1.
</event>
<event>
 7    1  0.5854318E-006  0.1035223E+03  0.7818608E-02  0.1359864E+00
          2   -1    0    0  502    0  0.00000000000E+00  0.00000000000E+00  0.10138722544E+03  0.10138722544E+03  0.00000000000E+00 0. -1.
          1   -1    0    0  501    0 -0.00000000000E+00 -0.00000000000E+00 -0.24518227557E+04  0.24518227557E+04  0.00000000000E+00 0. -1.
         25    2    1    2    0    0  0.40708054569E+02  0.52444325157E+02 -0.20394561883E+03  0.24824645377E+03  0.12499973369E+03 0.  0.
          2    1    1    2  501    0 -0.87631749878E+02 -0.59314240092E+02 -0.22172541573E+04  0.22197778044E+04  0.00000000000E+00 0. -1.
          1    1    1    2  502    0  0.46923695309E+02  0.68699149341E+01  0.70764245869E+02  0.85185723018E+02  0.00000000000E+00 0. -1.
         22    1    3    3    0    0  0.48880003211E+02  0.40158074455E+02 -0.21852831859E+03  0.22750066304E+03  0.00000000000E+00 0.  1.
         22    1    3    3    0    0 -0.81719486420E+01  0.12286250702E+02  0.14582699757E+02  0.20745790733E+02  0.00000000000E+00 0.  1.
</event>
<event>
 7    1  0.5854318E-006  0.1152806E+03  0.7818608E-02  0.1281926E+00
          2   -1    0    0  502    0  0.00000000000E+00  0.00000000000E+00  0.71574373043E+03  0.71574373043E+03  0.00000000000E+00 0. -1.
          1   -1    0    0  501    0 -0.00000000000E+00 -0.00000000000E+00 -0.11274882472E+03  0.11274882472E+03  0.00000000000E+00 0. -1.
         25    2    1    2    0    0 -0.83539093657E+02  0.77596909938E+02  0.71421767895E+02  0.18364659039E+03  0.12499976253E+03 0.  0.
          2    1    1    2  501    0  0.13533889550E+02 -0.12653006585E+03  0.23202052328E+02  0.12934975439E+03  0.00000000000E+00 0. -1.
          1    1    1    2  502    0  0.70005204107E+02  0.48933155909E+02  0.50837108549E+03  0.51549621037E+03  0.00000000000E+00 0. -1.
         22    1    3    3    0    0  0.75491838543E+01  0.68892294858E+02  0.29618100557E+01  0.69367937741E+02  0.00000000000E+00 0. -1.
         22    1    3    3    0    0 -0.91088277511E+02  0.87046150803E+01  0.68459957839E+02  0.11427865265E+03  0.00000000000E+00 0. -1.
</event>
<event>
 7    1  0.5854318E-006  0.5134606E+02  0.7818608E-02  0.1535727E+00
          2   -1    0    0  502    0  0.00000000000E+00  0.00000000000E+00  0.20556582548E+04  0.20556582548E+04  0.00000000000E+00 0. -1.
          1   -1    0    0  501    0 -0.00000000000E+00 -0.00000000000E+00 -0.22285347962E+02  0.22285347962E+02  0.00000000000E+00 0. -1.
         25    2    1    2    0    0  0.28898369065E+02  0.23506729392E+01  0.52113800671E+03  0.53670306274E+03  0.12499885648E+03 0.  0.
          2    1    1    2  501    0  0.20632302274E+02  0.15716932752E+02 -0.20689762526E+01  0.26019118644E+02  0.00000000000E+00 0. -1.
          1    1    1    2  502    0 -0.49530671340E+02 -0.18067605691E+02  0.15143038764E+04  0.15152214214E+04  0.00000000000E+00 0. -1.
         22    1    3    3    0    0  0.76353816916E+02 -0.27204287429E+01  0.25060867483E+03  0.26199620988E+03  0.00000000000E+00 0. -1.
         22    1    3    3    0    0 -0.47455447851E+02  0.50711016821E+01  0.27052933188E+03  0.27470685287E+03  0.00000000000E+00 0. -1.
</event>
<event>
 7    1  0.5854318E-006  0.7849575E+02  0.7818608E-02  0.1469965E+00
          2   -1    0    0  502    0  0.00000000000E+00  0.00000000000E+00  0.29933958293E+03  0.29933958293E+03  0.00000000000E+00 0. -1.
          1   -1    0    0  501    0 -0.00000000000E+00 -0.00000000000E+00 -0.87035820251E+03  0.87035820251E+03  0.00000000000E+00 0. -1.
         25    2    1    2    0    0 -0.81664700046E+02 -0.19095592197E+02 -0.11867287274E+03  0.19168160086E+03  0.12499928204E+03 0.  0.
          2    1    1    2  501    0  0.66757766363E+02  0.41146171610E+02 -0.71234984276E+03  0.71665326713E+03  0.00000000000E+00 0. -1.
          1    1    1    2  502    0  0.14906933683E+02 -0.22050579414E+02  0.26000409592E+03  0.26136291745E+03  0.00000000000E+00 0. -1.
         22    1    3    3    0    0 -0.57714357686E+02 -0.71266099826E+02 -0.59953944417E+02  0.10956404300E+03  0.00000000000E+00 0.  1.
         22    1    3    3    0    0 -0.23950342360E+02  0.52170507630E+02 -0.58718928324E+02  0.82117557861E+02  0.00000000000E+00 0.  1.
</event>
<event>
 7    1  0.5854318E-006  0.1066165E+03  0.7818608E-02  0.1403289E+00
          2   -1    0    0  502    0  0.00000000000E+00  0.00000000000E+00  0.48365675864E+03  0.48365675864E+03  0.00000000000E+00 0. -1.
          1   -1    0    0  501    0 -0.00000000000E+00 -0.00000000000E+00 -0.99417319305E+03  0.99417319305E+03  0.00000000000E+00 0. -1.
         25    2    1    2    0    0  0.47601982841E+02 -0.74970370354E+02  0.99544367141E+02  0.18281385564E+03  0.12500127833E+03 0.  0.
          2    1    1    2  501    0  0.32277479677E+02 -0.19939326468E+01 -0.94327230304E+03  0.94382649314E+03  0.00000000000E+00 0. -1.
          1    1    1    2  502    0 -0.79879462518E+02  0.76964303001E+02  0.33321150149E+03  0.35118960292E+03  0.00000000000E+00 0. -1.
         22    1    3    3    0    0  0.64153521993E+02 -0.61397712022E+02  0.84069826467E+01  0.89196585040E+02  0.00000000000E+00 0. -1.
         22    1    3    3    0    0 -0.16551539152E+02 -0.13572658332E+02  0.91137384494E+02  0.93617270602E+02  0.00000000000E+00 0. -1.
</event>
<event>
 7    1  0.5854318E-006  0.7411202E+02  0.7818608E-02  0.1439377E+00
          2   -1    0    0  502    0  0.00000000000E+00  0.00000000000E+00  0.99727366069E+02  0.99727366069E+02  0.00000000000E+00 0. -1.
          1   -1    0    0  501    0 -0.00000000000E+00 -0.00000000000E+00 -0.22523448993E+03  0.22523448993E+03  0.00000000000E+00 0. -1.
         25    2    1    2    0    0 -0.32329847311E+01 -0.87008543427E+02 -0.67488507937E+02  0.16661602496E+03  0.12500104900E+03 0.  0.
          2    1    1    2  501    0  0.29340177292E+02  0.19564501719E+02 -0.76034916915E+02  0.83814821609E+02  0.00000000000E+00 0. -1.
          1    1    1    2  502    0 -0.26107192561E+02  0.67444041707E+02  0.18016300991E+02  0.74531009430E+02  0.00000000000E+00 0. -1.
         22    1    3    3    0    0 -0.69521044999E+00  0.32616975209E+00  0.33254469564E+02  0.33263334924E+02  0.00000000000E+00 0.  1.
         22    1    3    3    0    0 -0.25377742811E+01 -0.87334713179E+02 -0.10074297750E+03  0.13335269004E+03  0.00000000000E+00 0.  1.
</event>
<event>
 7    1  0.5854318E-006  0.2844665E+03  0.7818608E-02  0.1173646E+00
          2   -1    0    0  502    0  0.00000000000E+00  0.00000000000E+00  0.37953329729E+03  0.37953329729E+03  0.00000000000E+00 0. -1.
          1   -1    0    0  501    0 -0.00000000000E+00 -0.00000000000E+00 -0.15078418397E+04  0.15078418397E+04  0.00000000000E+00 0. -1.
         25    2    1    2    0    0 -0.88913549877E+02  0.19055944639E+03 -0.59363079339E+02  0.25172792145E+03  0.12499779713E+03 0.  0.
          2    1    1    2  501    0  0.18693919866E+03 -0.23230353147E+03 -0.13250914777E+04  0.13582262768E+04  0.00000000000E+00 0. -1.
          1    1    1    2  502    0 -0.98025648779E+02  0.41744085078E+02  0.25614601462E+03  0.27742093876E+03  0.00000000000E+00 0. -1.
         22    1    3    3    0    0 -0.81119283157E+02  0.20865630071E+03 -0.60776796288E+02  0.23197329349E+03  0.00000000000E+00 0. -1.
         22    1    3    3    0    0 -0.77942667197E+01 -0.18096854320E+02  0.14137169494E+01  0.19754627954E+02  0.00000000000E+00 0. -1.
</event>
<event>
 7    1  0.5854318E-006  0.9398209E+02  0.7818608E-02  0.1353624E+00
          2   -1    0    0  502    0  0.00000000000E+00  0.00000000000E+00  0.57631175172E+03  0.57631175172E+03  0.00000000000E+00 0. -1.
          1   -1    0    0  501    0 -0.00000000000E+00 -0.00000000000E+00 -0.36625935568E+03  0.36625935568E+03  0.00000000000E+00 0. -1.
         25    2    1    2    0    0 -0.62168143661E+02  0.13153390948E+03  0.20275156463E+03  0.27910216947E+03  0.12499510637E+03 0.  0.
          2    1    1    2  501    0  0.50286421597E+02 -0.77766457110E+02 -0.31919721643E+03  0.33236005931E+03  0.00000000000E+00 0. -1.
          1    1    1    2  502    0  0.11881722064E+02 -0.53767452369E+02  0.32649804785E+03  0.33110887862E+03  0.00000000000E+00 0. -1.
         22    1    3    3    0    0 -0.93741376948E+02  0.56628048403E+02  0.13029948992E+03  0.17021204039E+03  0.00000000000E+00 0. -1.
         22    1    3    3    0    0  0.31573233288E+02  0.74905861077E+02  0.72452074703E+02  0.10889012909E+03  0.00000000000E+00 0. -1.
</event>
<event>
 7    1  0.5854318E-006  0.1760726E+03  0.7818608E-02  0.1250747E+00
          2   -1    0    0  502    0  0.00000000000E+00  0.00000000000E+00  0.12882587300E+03  0.12882587300E+03  0.00000000000E+00 0. -1.
          1   -1    0    0  501    0 -0.00000000000E+00 -0.00000000000E+00 -0.22201261874E+04  0.22201261874E+04  0.00000000000E+00 0. -1.
         25    2    1    2    0    0 -0.15793464004E+03  0.10194852379E+03 -0.79410129377E+03  0.82556560123E+03  0.12499938059E+03 0.  0.
          2    1    1    2  501    0  0.96952056737E+02 -0.14686370772E+03 -0.13914168670E+04  0.14025011757E+04  0.00000000000E+00 0. -1.
          1    1    1    2  502    0  0.60982583304E+02  0.44915183935E+02  0.94217846325E+02  0.12088528356E+03  0.00000000000E+00 0. -1.
         22    1    3    3    0    0 -0.13131644081E+03  0.59012232836E+02 -0.34786810096E+03  0.37648196095E+03  0.00000000000E+00 0.  1.
         22    1    3    3    0    0 -0.26618199232E+02  0.42936290950E+02 -0.44623319280E+03  0.44908364028E+03  0.00000000000E+00 0.  1.
</event>
<event>
 7    1  0.5854318E-006  0.6084003E+02  0.7818608E-02  0.1438987E+00
          2   -1    0    0  502    0  0.00000000000E+00  0.00000000000E+00  0.99975105102E+03  0.99975105102E+03  0.00000000000E+00 0. -1.
          1   -1    0    0  501    0 -0.00000000000E+00 -0.00000000000E+00 -0.11572500904E+04  0.11572500904E+04  0.00000000000E+00 0. -1.
         25    2    1    2    0    0  0.42189224193E+02 -0.85390911098E+02  0.39320795523E+02  0.16199390685E+03  0.12499745022E+03 0.  0.
          2    1    1    2  501    0 -0.43368510651E+02  0.42323713778E+02 -0.10945588487E+04  0.10962350103E+04  0.00000000000E+00 0. -1.
          1    1    1    2  502    0  0.11792864580E+01  0.43067197320E+02  0.89773901382E+03  0.89877222427E+03  0.00000000000E+00 0. -1.
         22    1    3    3    0    0  0.67552552421E+02 -0.20856920454E+02 -0.16940979208E+02  0.72700448732E+02  0.00000000000E+00 0. -1.
         22    1    3    3    0    0 -0.25363328227E+02 -0.64533990644E+02  0.56261774731E+02  0.89293458120E+02  0.00000000000E+00 0. -1.
</event>
<event>
 7    1  0.5854318E-006  0.9641938E+02  0.7818608E-02  0.1395527E+00
          2   -1    0    0  502    0  0.00000000000E+00  0.00000000000E+00  0.23067996447E+03  0.23067996447E+03  0.00000000000E+00 0. -1.
          1   -1    0    0  501    0 -0.00000000000E+00 -0.00000000000E+00 -0.50211695372E+03  0.50211695372E+03  0.00000000000E+00 0. -1.
         25    2    1    2    0    0 -0.30809237928E+02 -0.57548444665E+02  0.11144325899E+03  0.17974562157E+03  0.12501142297E+03 0.  0.
          2    1    1    2  501    0  0.66048592831E+02  0.71841885957E+02 -0.45830628075E+03  0.46858117778E+03  0.00000000000E+00 0. -1.
          1    1    1    2  502    0 -0.35239354903E+02 -0.14293441292E+02  0.75426032510E+02  0.84470118848E+02  0.00000000000E+00 0. -1.
         22    1    3    3    0    0 -0.47426722505E+02  0.25880047520E+02  0.58088286452E+02  0.79330447435E+02  0.00000000000E+00 0.  1.
         22    1    3    3    0    0  0.16617484577E+02 -0.83428492185E+02  0.53354972540E+02  0.10041517414E+03  0.00000000000E+00 0.  1.
</event>
<event>
 7    1  0.5854318E-006  0.5571840E+02  0.7818608E-02  0.1559863E+00
          2   -1    0    0  502    0  0.00000000000E+00  0.00000000000E+00  0.44520827344E+03  0.44520827344E+03  0.00000000000E+00 0. -1.
          1   -1    0    0  501    0 -0.00000000000E+00 -0.00000000000E+00 -0.27638587968E+03  0.27638587968E+03  0.00000000000E+00 0. -1.
         25    2    1    2    0    0  0.30620443502E+02  0.47134600221E+02  0.26807098559E+02  0.13965027840E+03  0.12499719048E+03 0.  0.
          2    1    1    2  501    0  0.14581034610E+02 -0.14352241599E+02 -0.21732762917E+03  0.21828855171E+03  0.00000000000E+00 0. -1.
          1    1    1    2  502    0 -0.45201478111E+02 -0.32782358622E+02  0.35934292437E+03  0.36365532301E+03  0.00000000000E+00 0. -1.
         22    1    3    3    0    0  0.34217129386E+02  0.78459488117E+02  0.51240107144E+02  0.99760973327E+02  0.00000000000E+00 0.  1.
         22    1    3    3    0    0 -0.35966858842E+01 -0.31324887896E+02 -0.24433008585E+02  0.39889305077E+02  0.00000000000E+00 0.  1.
</event>
<event>
 7    1  0.5854318E-006  0.1780651E+03  0.7818608E-02  0.1208499E+00
          2   -1    0    0  502    0  0.00000000000E+00  0.00000000000E+00  0.21920806451E+03  0.21920806451E+03  0.00000000000E+00 0. -1.
          1   -1    0    0  501    0 -0.00000000000E+00 -0.00000000000E+00 -0.82180396111E+03  0.82180396111E+03  0.00000000000E+00 0. -1.
         25    2    1    2    0    0 -0.24049829589E+03 -0.73725313975E+02 -0.96768377104E+02  0.29709158223E+03  0.12499774867E+03 0.  0.
          2    1    1    2  501    0  0.11344492511E+03 -0.23671716358E+02 -0.56233369647E+03  0.57415092735E+03  0.00000000000E+00 0. -1.
          1    1    1    2  502    0  0.12705337078E+03  0.97397030333E+02  0.56506176976E+02  0.16976951605E+03  0.00000000000E+00 0. -1.
         22    1    3    3    0    0 -0.23267489188E+03 -0.96570189344E+02 -0.70904689356E+02  0.26170762647E+03  0.00000000000E+00 0.  1.
         22    1    3    3    0    0 -0.78234040176E+01  0.22844875368E+02 -0.25863687748E+02  0.35383955756E+02  0.00000000000E+00 0.  1.
</event>
<event>
 7    1  0.5854318E-006  0.1040229E+03  0.7818608E-02  0.1363673E+00
          2   -1    0    0  502    0  0.00000000000E+00  0.00000000000E+00  0.23908551464E+04  0.23908551464E+04  0.00000000000E+00 0. -1.
          1   -1    0    0  501    0 -0.00000000000E+00 -0.00000000000E+00 -0.46195112882E+02  0.46195112882E+02  0.00000000000E+00 0. -1.
         25    2    1    2    0    0  0.55094683683E+02  0.73350600922E+02  0.48177646600E+03  0.50611343577E+03  0.12500604724E+03 0.  0.
          2    1    1    2  501    0  0.39128057147E+02 -0.23636482548E+02 -0.16452484935E+02  0.48583664167E+02  0.00000000000E+00 0. -1.
          1    1    1    2  502    0 -0.94222740830E+02 -0.49714118373E+02  0.18793360524E+04  0.18823531593E+04  0.00000000000E+00 0. -1.
         22    1    3    3    0    0  0.25778705120E+02  0.97205297611E+02  0.22345803690E+03  0.24504470158E+03  0.00000000000E+00 0. -1.
         22    1    3    3    0    0  0.29315978563E+02 -0.23854696689E+02  0.25831842910E+03  0.26106873418E+03  0.00000000000E+00 0. -1.
</event>
<event>
 7    1  0.5854318E-006  0.1042526E+03  0.7818608E-02  0.1329384E+00
          2   -1    0    0  502    0  0.00000000000E+00  0.00000000000E+00  0.46221209323E+03  0.46221209323E+03  0.00000000000E+00 0. -1.
          1   -1    0    0  501    0 -0.00000000000E+00 -0.00000000000E+00 -0.52008519523E+03  0.52008519523E+03  0.00000000000E+00 0. -1.
         25    2    1    2    0    0  0.12381570367E+03 -0.10798869917E+03  0.33201138696E+03  0.39095846655E+03  0.12500029548E+03 0.  0.
          2    1    1    2  501    0 -0.80687134229E+02  0.64554061864E+02 -0.47521781995E+03  0.48632254413E+03  0.00000000000E+00 0. -1.
          1    1    1    2  502    0 -0.43128569446E+02  0.43434637303E+02  0.85333330992E+02  0.10501627778E+03  0.00000000000E+00 0. -1.
         22    1    3    3    0    0  0.61505703431E+02  0.18263544217E+02  0.12657824977E+03  0.14191040101E+03  0.00000000000E+00 0. -1.
         22    1    3    3    0    0  0.62310000244E+02 -0.12625224338E+03  0.20543313719E+03  0.24904806553E+03  0.00000000000E+00 0. -1.
</event>
<event>
 7    1  0.5854318E-006  0.8728116E+02  0.7818608E-02  0.1358047E+00
          2   -1    0    0  502    0  0.00000000000E+00  0.00000000000E+00  0.41504738745E+03  0.41504738745E+03  0.00000000000E+00 0. -1.
          1   -1    0    0  501    0 -0.00000000000E+00 -0.00000000000E+00 -0.33826342266E+03  0.33826342266E+03  0.00000000000E+00 0. -1.
         25    2    1    2    0    0  0.55624748492E+02 -0.10714670617E+02 -0.12038564448E+03  0.18255201055E+03  0.12499446527E+03 0.  0.
          2    1    1    2  501    0  0.22731658622E+02  0.52396777703E+02 -0.17711436557E+03  0.18609580626E+03  0.00000000000E+00 0. -1.
          1    1    1    2  502    0 -0.78356407114E+02 -0.41682107086E+02  0.37428397484E+03  0.38466299330E+03  0.00000000000E+00 0. -1.
         22    1    3    3    0    0  0.45832729129E+02  0.54164636540E+02 -0.71483331349E+02  0.10071898317E+03  0.00000000000E+00 0.  1.
         22    1    3    3    0    0  0.97920193623E+01 -0.64879307157E+02 -0.48902313130E+02  0.81833027377E+02  0.00000000000E+00 0.  1.
</event>
<event>
 7    1  0.5854318E-006  0.3489392E+02  0.7818608E-02  0.1616889E+00
          2   -1    0    0  502    0  0.00000000000E+00  0.00000000000E+00  0.32040561272E+03  0.32040561272E+03  0.00000000000E+00 0. -1.
          1   -1    0    0  501    0 -0.00000000000E+00 -0.00000000000E+00 -0.98408913597E+03  0.98408913597E+03  0.00000000000E+00 0. -1.
         25    2    1    2    0    0  0.36317943016E+02 -0.24244124368E+02  0.14735162745E+03  0.19810031836E+03  0.12499785387E+03 0.  0.
          2    1    1    2  501    0 -0.21881673316E+02 -0.72736882844E+01 -0.95653949177E+03  0.95681738774E+03  0.00000000000E+00 0. -1.
          1    1    1    2  502    0 -0.14436269700E+02  0.31517812652E+02  0.14550434107E+03  0.14957704258E+03  0.00000000000E+00 0. -1.
         22    1    3    3    0    0  0.19081606306E+02 -0.75518433860E+02  0.79122701794E+02  0.11102947127E+03  0.00000000000E+00 0.  1.
         22    1    3    3    0    0  0.17236336710E+02  0.51274309493E+02  0.68228925656E+02  0.87070847092E+02  0.00000000000E+00 0.  1.
</event>
<event>
 7    1  0.5854318E-006  0.6494398E+02  0.7818608E-02  0.1379152E+00
          2   -1    0    0  502    0  0.00000000000E+00  0.00000000000E+00  0.10226291176E+04  0.10226291176E+04  0.00000000000E+00 0. -1.
          1   -1    0    0  501    0 -0.00000000000E+00 -0.00000000000E+00 -0.18594305603E+03  0.18594305603E+03  0.00000000000E+00 0. -1.
         25    2    1    2    0    0 -0.27290952007E+01  0.19258293066E+02  0.15015914328E+03  0.19634408752E+03  0.12499961033E+03 0.  0.
          2    1    1    2  501    0 -0.64353202185E+02 -0.87399019809E+01 -0.15495333026E+03  0.16801266344E+03  0.00000000000E+00 0. -1.
          1    1    1    2  502    0  0.67082297386E+02 -0.10518391085E+02  0.84148024855E+03  0.84421542267E+03  0.00000000000E+00 0. -1.
         22    1    3    3    0    0 -0.43666557920E+02  0.38498899942E+02  0.25172193870E+02  0.63423756760E+02  0.00000000000E+00 0. -1.
         22    1    3    3    0    0  0.40937462719E+02 -0.19240606876E+02  0.12498694941E+03  0.13292033076E+03  0.00000000000E+00 0. -1.
</event>
<event>
 7    1  0.5854318E-006  0.7651531E+02  0.7818608E-02  0.1430786E+00
          2   -1    0    0  502    0  0.00000000000E+00  0.00000000000E+00  0.74481670953E+03  0.74481670953E+03  0.00000000000E+00 0. -1.
          1   -1    0    0  501    0 -0.00000000000E+00 -0.00000000000E+00 -0.14555172096E+04  0.14555172096E+04  0.00000000000E+00 0. -1.
         25    2    1    2    0    0  0.95790457992E+02  0.59348005563E+02  0.23158098500E+03  0.28627382314E+03  0.12499980638E+03 0.  0.
          2    1    1    2  501    0 -0.63574530254E+02 -0.42321277051E+02 -0.14264646656E+04  0.14285077016E+04  0.00000000000E+00 0. -1.
          1    1    1    2  502    0 -0.32215927738E+02 -0.17026728512E+02  0.48418318047E+03  0.48555239442E+03  0.00000000000E+00 0. -1.
         22    1    3    3    0    0  0.80849464346E+02 -0.18529050286E+02  0.80181119979E+02  0.11536452484E+03  0.00000000000E+00 0.  1.
         22    1    3    3    0    0  0.14940993646E+02  0.77877055849E+02  0.15139986502E+03  0.17090929831E+03  0.00000000000E+00 0.  1.
</event>
<event>
 7    1  0.5854318E-006  0.1122233E+03  0.7818608E-02  0.1316060E+00
          2   -1    0    0  502    0  0.00000000000E+00  0.00000000000E+00  0.91610395181E+03  0.91610395181E+03  0.00000000000E+00 0. -1.
          1   -1    0    0  501    0 -0.00000000000E+00 -0.00000000000E+00 -0.53180308122E+03  0.53180308122E+03  0.00000000000E+00 0. -1.
         25    2    1    2    0    0  0.67833761155E+02  0.34628000000E+02 -0.16780704985E+03  0.22267780249E+03  0.12500272078E+03 0.  0.
          2    1    1    2  501    0 -0.89723868337E+02 -0.94787226959E+02 -0.32269314806E+03  0.34808886616E+03  0.00000000000E+00 0. -1.
          1    1    1    2  502    0  0.21890107182E+02  0.60159226959E+02  0.87480106849E+03  0.87714036438E+03  0.00000000000E+00 0. -1.
         22    1    3    3    0    0  0.86990251008E+02  0.28278728879E+02 -0.52190377262E+02  0.10531298949E+03  0.00000000000E+00 0.  1.
         22    1    3    3    0    0 -0.19156489853E+02  0.63492711208E+01 -0.11561667259E+03  0.11736481299E+03  0.00000000000E+00 0.  1.
</event>
<event>
 7    1  0.5854318E-006  0.1346065E+03  0.7818608E-02  0.1262625E+00
          2   -1    0    0  502    0  0.00000000000E+00  0.00000000000E+00  0.12806612160E+03  0.12806612160E+03  0.00000000000E+00 0. -1.
          1   -1    0    0  501    0 -0.00000000000E+00 -0.00000000000E+00 -0.12139793993E+04  0.12139793993E+04  0.00000000000E+00 0. -1.
         25    2    1    2    0    0  0.14771957091E+03 -0.30620517414E+02 -0.18270455539E+02  0.19676764161E+03  0.12500003008E+03 0.  0.
          2    1    1    2  501    0 -0.92046147978E+02  0.98898195540E+02 -0.10458278722E+04  0.10545185085E+04  0.00000000000E+00 0. -1.
          1    1    1    2  502    0 -0.55673422935E+02 -0.68277678126E+02 -0.21814949964E+02  0.90759370830E+02  0.00000000000E+00 0. -1.
         22    1    3    3    0    0  0.10458644111E+03 -0.22462135506E+02  0.48023900797E+02  0.11725683880E+03  0.00000000000E+00 0. -1.
         22    1    3    3    0    0  0.43133129798E+02 -0.81583819075E+01 -0.66294356336E+02  0.79510802810E+02  0.00000000000E+00 0. -1.
</event>
<event>
 7    1  0.5854318E-006  0.9826683E+02  0.7818608E-02  0.1449660E+00
          2   -1    0    0  502    0  0.00000000000E+00  0.00000000000E+00  0.23295002357E+04  0.23295002357E+04  0.00000000000E+00 0. -1.
          1   -1    0    0  501    0 -0.00000000000E+00 -0.00000000000E+00 -0.68888132479E+03  0.68888132479E+03  0.00000000000E+00 0. -1.
         25    2    1    2    0    0  0.65026198767E+02 -0.35032212994E+02  0.97380859359E+03  0.98457270680E+03  0.12499830217E+03 0.  0.
          2    1    1    2  501    0 -0.85065933809E+02  0.49371299930E+02 -0.67984765710E+03  0.68692545099E+03  0.00000000000E+00 0. -1.
          1    1    1    2  502    0  0.20039735042E+02 -0.14339086936E+02  0.13466579744E+04  0.13468834027E+04  0.00000000000E+00 0. -1.
         22    1    3    3    0    0 -0.25148772248E+02 -0.25411562550E+02  0.55046534026E+03  0.55162514363E+03  0.00000000000E+00 0.  1.
         22    1    3    3    0    0  0.90174971016E+02 -0.96206504445E+01  0.42334325333E+03  0.43294756317E+03  0.00000000000E+00 0.  1.
</event>
<event>
 7    1  0.5854318E-006  0.1381392E+03  0.7818608E-02  0.1227167E+00
          2   -1    0    0  502    0  0.00000000000E+00  0.00000000000E+00  0.51702644602E+04  0.51702644602E+04  0.00000000000E+00 0. -1.
          1   -1    0    0  501    0 -0.00000000000E+00 -0.00000000000E+00 -0.17316063018E+03  0.17316063018E+03  0.00000000000E+00 0. -1.
         25    2    1    2    0    0  0.25413935300E+03  0.16133523672E+02  0.97832953739E+03  0.10186271541E+04  0.12500197585E+03 0.  0.
          2    1    1    2  501    0 -0.12264636095E+03 -0.38592223571E+01 -0.12718910398E+03  0.17673169388E+03  0.00000000000E+00 0. -1.
          1    1    1    2  502    0 -0.13149299205E+03 -0.12274301315E+02  0.41459633966E+04  0.41480662424E+04  0.00000000000E+00 0. -1.
         22    1    3    3    0    0  0.11700228038E+03  0.64093415879E+02  0.56405656679E+03  0.57961824515E+03  0.00000000000E+00 0. -1.
         22    1    3    3    0    0  0.13713707262E+03 -0.47959892207E+02  0.41427297060E+03  0.43900890893E+03  0.00000000000E+00 0. -1.
</event>
<event>
 7    1  0.5854318E-006  0.5186757E+02  0.7818608E-02  0.1495786E+00
          2   -1    0    0  502    0  0.00000000000E+00  0.00000000000E+00  0.11732531848E+04  0.11732531848E+04  0.00000000000E+00 0. -1.
          1   -1    0    0  501    0 -0.00000000000E+00 -0.00000000000E+00 -0.13694181610E+03  0.13694181610E+03  0.00000000000E+00 0. -1.
         25    2    1    2    0    0 -0.59635474041E+02 -0.28161514291E+02  0.11014439198E+03  0.17918298028E+03  0.12500117073E+03 0.  0.
          2    1    1    2  501    0  0.80599857718E+01  0.32608118096E+02 -0.98997842122E+02  0.10454102296E+03  0.00000000000E+00 0. -1.
          1    1    1    2  502    0  0.51575488269E+02 -0.44466038049E+01  0.10251648188E+04  0.10264709976E+04  0.00000000000E+00 0. -1.
         22    1    3    3    0    0  0.18847383771E+01 -0.51304404342E+02  0.49430338777E+00  0.51341391483E+02  0.00000000000E+00 0. -1.
         22    1    3    3    0    0 -0.61520212418E+02  0.23142890051E+02  0.10965008860E+03  0.12784158879E+03  0.00000000000E+00 0. -1.
</event>
<event>
 7    1  0.5854318E-006  0.9109913E+02  0.7818608E-02  0.1336424E+00
          2   -1    0    0  502    0  0.00000000000E+00  0.00000000000E+00  0.72501928127E+03  0.72501928127E+03  0.00000000000E+00 0. -1.
          1   -1    0    0  501    0 -0.00000000000E+00 -0.00000000000E+00 -0.17857521761E+03  0.17857521761E+03  0.00000000000E+00 0. -1.
         25    2    1    2    0    0  0.30654129321E+02  0.79395208052E+02  0.21096030017E+03  0.25956225629E+03  0.12500016776E+03 0.  0.
          2    1    1    2  501    0  0.55063161583E+02 -0.36132480964E+02 -0.14224406238E+03  0.15675101667E+03  0.00000000000E+00 0. -1.
          1    1    1    2  502    0 -0.85717290904E+02 -0.43262727088E+02  0.47772782587E+03  0.48728122592E+03  0.00000000000E+00 0. -1.
         22    1    3    3    0    0  0.35231036254E+02  0.11105885561E+03  0.14306695535E+03  0.18450866928E+03  0.00000000000E+00 0.  1.
         22    1    3    3    0    0 -0.45769069335E+01 -0.31663647558E+02  0.67893344819E+02  0.75053587019E+02  0.00000000000E+00 0.  1.
</event>
<event>
 7    1  0.5854318E-006  0.7788786E+02  0.7818608E-02  0.1388067E+00
          2   -1    0    0  502    0  0.00000000000E+00  0.00000000000E+00  0.34175653028E+03  0.34175653028E+03  0.00000000000E+00 0. -1.
          1   -1    0    0  501    0 -0.00000000000E+00 -0.00000000000E+00 -0.37661339443E+03  0.37661339443E+03  0.00000000000E+00 0. -1.
         25    2    1    2    0    0 -0.53040665082E+02  0.23114707026E+02  0.25005997295E+03  0.28548863039E+03  0.12500466461E+03 0.  0.
          2    1    1    2  501    0  0.75404590411E+02  0.21578233313E+02 -0.34553132533E+03  0.35432099739E+03  0.00000000000E+00 0. -1.
          1    1    1    2  502    0 -0.22363925329E+02 -0.44692940339E+02  0.60614488222E+02  0.78560296936E+02  0.00000000000E+00 0. -1.
         22    1    3    3    0    0 -0.84773117852E+02  0.44877193677E+02  0.14746866167E+03  0.17591887391E+03  0.00000000000E+00 0.  1.
         22    1    3    3    0    0  0.31732452770E+02 -0.21762486651E+02  0.10259131128E+03  0.10956975648E+03  0.00000000000E+00 0.  1.
</event>
<event>
 7    1  0.5854318E-006  0.2524179E+03  0.7818608E-02  0.1183568E+00
          2   -1    0    0  502    0  0.00000000000E+00  0.00000000000E+00  0.11534204005E+04  0.11534204005E+04  0.00000000000E+00 0. -1.
          1   -1    0    0  501    0 -0.00000000000E+00 -0.00000000000E+00 -0.18897810572E+03  0.18897810572E+03  0.00000000000E+00 0. -1.
         25    2    1    2    0    0  0.25097926897E+03  0.12703241448E+03  0.19466998265E+03  0.36421012039E+03  0.12499912746E+03 0.  0.
          2    1    1    2  501    0 -0.24316269972E+03 -0.19945457528E+02  0.48229812216E+02  0.24870069279E+03  0.00000000000E+00 0. -1.
          1    1    1    2  502    0 -0.78165692575E+01 -0.10708695696E+03  0.72154249989E+03  0.72948769301E+03  0.00000000000E+00 0. -1.
         22    1    3    3    0    0  0.20623561725E+03  0.51185221875E+02  0.99777839843E+02  0.23475236758E+03  0.00000000000E+00 0.  1.
         22    1    3    3    0    0  0.44743651723E+02  0.75847192609E+02  0.94892142808E+02  0.12945775281E+03  0.00000000000E+00 0.  1.
</event>
<event>
 7    1  0.5854318E-006  0.1671049E+03  0.7818608E-02  0.1307563E+00
          2   -1    0    0  502    0  0.00000000000E+00  0.00000000000E+00  0.18608962321E+04  0.18608962321E+04  0.00000000000E+00 0. -1.
          1   -1    0    0  501    0 -0.00000000000E+00 -0.00000000000E+00 -0.16046355277E+04  0.16046355277E+04  0.00000000000E+00 0. -1.
         25    2    1    2    0    0 -0.19427582857E+02 -0.20461306520E+03  0.57584549876E+03  0.62407957035E+03  0.12503333255E+03 0.  0.
          2    1    1    2  501    0  0.41317348556E+01  0.46244587609E+02 -0.15751560678E+04  0.15758401794E+04  0.00000000000E+00 0. -1.
          1    1    1    2  502    0  0.15295848002E+02  0.15836847759E+03  0.12555712734E+04  0.12656120101E+04  0.00000000000E+00 0. -1.
         22    1    3    3    0    0 -0.55840314707E+02 -0.18663693797E+03  0.51784396255E+03  0.55327557050E+03  0.00000000000E+00 0. -1.
         22    1    3    3    0    0  0.36412731849E+02 -0.17976127233E+02  0.58001536210E+02  0.70803999843E+02  0.00000000000E+00 0. -1.
</event>
<event>
 7    1  0.5854318E-006  0.9359803E+02  0.7818608E-02  0.1378841E+00
          2   -1    0    0  502    0  0.00000000000E+00  0.00000000000E+00  0.17478659904E+04  0.17478659904E+04  0.00000000000E+00 0. -1.
          1   -1    0    0  501    0 -0.00000000000E+00 -0.00000000000E+00 -0.56433512191E+03  0.56433512191E+03  0.00000000000E+00 0. -1.
         25    2    1    2    0    0  0.65547728803E+01 -0.50924312004E+02  0.82541023041E+03  0.83639926467E+03  0.12500172344E+03 0.  0.
          2    1    1    2  501    0 -0.30860157664E+02  0.88581971685E+02 -0.55435034452E+03  0.56223075290E+03  0.00000000000E+00 0. -1.
          1    1    1    2  502    0  0.24305384784E+02 -0.37657659681E+02  0.91247098264E+03  0.91357109479E+03  0.00000000000E+00 0. -1.
         22    1    3    3    0    0 -0.50732452264E+02  0.46810599136E+01  0.22448054667E+03  0.23018950860E+03  0.00000000000E+00 0. -1.
         22    1    3    3    0    0  0.57287225144E+02 -0.55605371918E+02  0.60092968374E+03  0.60620975607E+03  0.00000000000E+00 0. -1.
</event>
<event>
 7    1  0.5854318E-006  0.1552396E+03  0.7818608E-02  0.1341354E+00
          2   -1    0    0  502    0  0.00000000000E+00  0.00000000000E+00  0.14508117937E+04  0.14508117937E+04  0.00000000000E+00 0. -1.
          1   -1    0    0  501    0 -0.00000000000E+00 -0.00000000000E+00 -0.55005757924E+02  0.55005757924E+02  0.00000000000E+00 0. -1.
         25    2    1    2    0    0 -0.57342007083E+02 -0.14857567439E+03  0.98484758442E+03  0.10054416311E+04  0.12500108848E+03 0.  0.
          2    1    1    2  501    0  0.88021915264E+02  0.12784071672E+03  0.94414289968E+02  0.18167323570E+03  0.00000000000E+00 0. -1.
          1    1    1    2  502    0 -0.30679908182E+02  0.20734957672E+02  0.31654416143E+03  0.31870268491E+03  0.00000000000E+00 0. -1.
         22    1    3    3    0    0 -0.84496932076E+02 -0.48990029812E+02  0.41672573473E+03  0.42801879928E+03  0.00000000000E+00 0. -1.
         22    1    3    3    0    0  0.27154924994E+02 -0.99585644583E+02  0.56812184969E+03  0.57742283178E+03  0.00000000000E+00 0. -1.
</event>
<event>
 7    1  0.5854318E-006  0.4535373E+02  0.7818608E-02  0.1497340E+00
          2   -1    0    0  502    0  0.00000000000E+00  0.00000000000E+00  0.53301859384E+03  0.53301859384E+03  0.00000000000E+00 0. -1.
          1   -1    0    0  501    0 -0.00000000000E+00 -0.00000000000E+00 -0.23035549003E+03  0.23035549003E+03  0.00000000000E+00 0. -1.
         25    2    1    2    0    0 -0.14241417060E+02 -0.47216591393E+00  0.24612239415E+03  0.27641346818E+03  0.12500052636E+03 0.  0.
          2    1    1    2  501    0  0.30834124493E+02 -0.33717938559E+02 -0.21142890496E+03  0.21630955704E+03  0.00000000000E+00 0. -1.
          1    1    1    2  502    0 -0.16592707433E+02  0.34190104473E+02  0.26796961463E+03  0.27065105865E+03  0.00000000000E+00 0. -1.
         22    1    3    3    0    0 -0.23824638085E+02  0.37854174852E+02  0.23911357169E+02  0.50717895612E+02  0.00000000000E+00 0.  1.
         22    1    3    3    0    0  0.95832210252E+01 -0.38326340766E+02  0.22221103698E+03  0.22569557257E+03  0.00000000000E+00 0.  1.
</event>
<event>
 7    1  0.5854318E-006  0.4813698E+02  0.7818608E-02  0.1519639E+00
          2   -1    0    0  502    0  0.00000000000E+00  0.00000000000E+00  0.10345778491E+04  0.10345778491E+04  0.00000000000E+00 0. -1.
          1   -1    0    0  501    0 -0.00000000000E+00 -0.00000000000E+00 -0.10600705572E+04  0.10600705572E+04  0.00000000000E+00 0. -1.
         25    2    1    2    0    0 -0.35590306694E+02  0.73548868973E+01  0.74245285587E+02  0.14985938799E+03  0.12499883778E+03 0.  0.
          2    1    1    2  501    0  0.51208954787E+01  0.30344701540E+02 -0.10213948595E+04  0.10218583480E+04  0.00000000000E+00 0. -1.
          1    1    1    2  502    0  0.30469411215E+02 -0.37699588438E+02  0.92165686577E+03  0.92293067032E+03  0.00000000000E+00 0. -1.
         22    1    3    3    0    0  0.33622958776E+02  0.49460875491E+01 -0.14787489067E+02  0.37062608810E+02  0.00000000000E+00 0. -1.
         22    1    3    3    0    0 -0.69213265470E+02  0.24087993482E+01  0.89032774654E+02  0.11279677918E+03  0.00000000000E+00 0. -1.
</event>
<event>
 7    1  0.5854318E-006  0.7516574E+02  0.7818608E-02  0.1396632E+00
          2   -1    0    0  502    0  0.00000000000E+00  0.00000000000E+00  0.22642400876E+04  0.22642400876E+04  0.00000000000E+00 0. -1.
          1   -1    0    0  501    0 -0.00000000000E+00 -0.00000000000E+00 -0.13241836169E+03  0.13241836169E+03  0.00000000000E+00 0. -1.
         25    2    1    2    0    0  0.29040624627E+02 -0.66548968944E+02  0.23524577405E+03  0.27610974109E+03  0.12499556700E+03 0.  0.
          2    1    1    2  501    0  0.18783623620E+02  0.73680525215E+02 -0.98752612820E+02  0.12463435662E+03  0.00000000000E+00 0. -1.
          1    1    1    2  502    0 -0.47824248246E+02 -0.71315562707E+01  0.19953285647E+04  0.19959143516E+04  0.00000000000E+00 0. -1.
         22    1    3    3    0    0 -0.22284917145E+02  0.13855226929E+02  0.13579433843E+03  0.13830649730E+03  0.00000000000E+00 0.  1.
         22    1    3    3    0    0  0.51325541771E+02 -0.80404195873E+02  0.99451435618E+02  0.13780324379E+03  0.00000000000E+00 0.  1.
</event>
<event>
 7    1  0.5854318E-006  0.7809045E+02  0.7818608E-02  0.1443905E+00
          2   -1    0    0  502    0  0.00000000000E+00  0.00000000000E+00  0.17311939482E+04  0.17311939482E+04  0.00000000000E+00 0. -1.
          1   -1    0    0  501    0 -0.00000000000E+00 -0.00000000000E+00 -0.17004963495E+03  0.17004963495E+03  0.00000000000E+00 0. -1.
         25    2    1    2    0    0 -0.42222006050E+02  0.58755930545E+02  0.18716957812E+03  0.23641253722E+03  0.12499391830E+03 0.  0.
          2    1    1    2  501    0  0.68129686964E+02 -0.39370720605E+02 -0.13459802609E+03  0.15591130977E+03  0.00000000000E+00 0. -1.
          1    1    1    2  502    0 -0.25907680915E+02 -0.19385209940E+02  0.15085727612E+04  0.15089197362E+04  0.00000000000E+00 0. -1.
         22    1    3    3    0    0 -0.70958420503E+01  0.93827389082E+02  0.13325087031E+03  0.16312487350E+03  0.00000000000E+00 0.  1.
         22    1    3    3    0    0 -0.35126163999E+02 -0.35071458537E+02  0.53918707805E+02  0.73287663713E+02  0.00000000000E+00 0.  1.
</event>
<event>
 7    1  0.5854318E-006  0.8239418E+02  0.7818608E-02  0.1496015E+00
          2   -1    0    0  502    0  0.00000000000E+00  0.00000000000E+00  0.34519383788E+03  0.34519383788E+03  0.00000000000E+00 0. -1.
          1   -1    0    0  501    0 -0.00000000000E+00 -0.00000000000E+00 -0.32001173600E+03  0.32001173600E+03  0.00000000000E+00 0. -1.
         25    2    1    2    0    0  0.18749110642E+02  0.81567873094E+02 -0.14452367500E+03  0.20860608038E+03  0.12499822824E+03 0.  0.
          2    1    1    2  501    0 -0.38171949929E+02 -0.73295183753E+02 -0.13114407712E+03  0.15500984061E+03  0.00000000000E+00 0. -1.
          1    1    1    2  502    0  0.19422839287E+02 -0.82726893409E+01  0.30084985401E+03  0.30158965289E+03  0.00000000000E+00 0. -1.
         22    1    3    3    0    0  0.40423251604E+02  0.60410101492E+02 -0.15915542059E+03  0.17496819007E+03  0.00000000000E+00 0.  1.
         22    1    3    3    0    0 -0.21674140962E+02  0.21157771601E+02  0.14631745589E+02  0.33637890311E+02  0.00000000000E+00 0.  1.
</event>
<event>
 7    1  0.5854318E-006  0.1136297E+03  0.7818608E-02  0.1452193E+00
          2   -1    0    0  502    0  0.00000000000E+00  0.00000000000E+00  0.84897259539E+03  0.84897259539E+03  0.00000000000E+00 0. -1.
          1   -1    0    0  501    0 -0.00000000000E+00 -0.00000000000E+00 -0.28022810674E+03  0.28022810674E+03  0.00000000000E+00 0. -1.
         25    2    1    2    0    0  0.17667418326E+02  0.12863120672E+03  0.17828399559E+03  0.25350875394E+03  0.12499352074E+03 0.  0.
          2    1    1    2  501    0 -0.11874450510E+02 -0.17218988081E+02 -0.23723702719E+03  0.23815730766E+03  0.00000000000E+00 0. -1.
          1    1    1    2  502    0 -0.57929678153E+01 -0.11141221864E+03  0.62769752024E+03  0.63753464052E+03  0.00000000000E+00 0. -1.
         22    1    3    3    0    0 -0.41514105269E+02  0.35793233868E+01  0.46530856755E+02  0.62460812695E+02  0.00000000000E+00 0. -1.
         22    1    3    3    0    0  0.59181523595E+02  0.12505188334E+03  0.13175313884E+03  0.19104794125E+03  0.00000000000E+00 0. -1.
</event>
<event>
 7    1  0.5854318E-006  0.4180966E+02  0.7818608E-02  0.1550170E+00
          2   -1    0    0  502    0  0.00000000000E+00  0.00000000000E+00  0.16106837544E+04  0.16106837544E+04  0.00000000000E+00 0. -1.
          1   -1    0    0  501    0 -0.00000000000E+00 -0.00000000000E+00 -0.93414768975E+02  0.93414768975E+02  0.00000000000E+00 0. -1.
         25    2    1    2    0    0 -0.44967220944E+02  0.53248537445E+02  0.13596293651E+03  0.19740479188E+03  0.12500109620E+03 0.  0.
          2    1    1    2  501    0  0.26747523073E+02 -0.30679610622E+02 -0.55925873326E+02  0.69169153571E+02  0.00000000000E+00 0. -1.
          1    1    1    2  502    0  0.18219697871E+02 -0.22568926823E+02  0.14372319223E+04  0.14375245780E+04  0.00000000000E+00 0. -1.
         22    1    3    3    0    0 -0.29426613112E+02 -0.38573834753E+02  0.33587837335E+02  0.59008551106E+02  0.00000000000E+00 0. -1.
         22    1    3    3    0    0 -0.15540607832E+02  0.91822372198E+02  0.10237509918E+03  0.13839624077E+03  0.00000000000E+00 0. -1.
</event>
<event>
 7    1  0.5854318E-006  0.7867194E+02  0.7818608E-02  0.1344985E+00
          2   -1    0    0  502    0  0.00000000000E+00  0.00000000000E+00  0.24287737486E+04  0.24287737486E+04  0.00000000000E+00 0. -1.
          1   -1    0    0  501    0 -0.00000000000E+00 -0.00000000000E+00 -0.15928185926E+04  0.15928185926E+04  0.00000000000E+00 0. -1.
         25    2    1    2    0    0  0.10608301443E+03  0.10240885399E+03  0.19028317616E+03  0.27124587734E+03  0.12500183806E+03 0.  0.
          2    1    1    2  501    0 -0.47888282079E+02 -0.62053994828E+02 -0.15507767291E+04  0.15527564037E+04  0.00000000000E+00 0. -1.
          1    1    1    2  502    0 -0.58194732354E+02 -0.40354859158E+02  0.21964487089E+04  0.21975900601E+04  0.00000000000E+00 0. -1.
         22    1    3    3    0    0 -0.21551641227E+02  0.49608053060E+01  0.61646473618E+02  0.65493286208E+02  0.00000000000E+00 0.  1.
         22    1    3    3    0    0  0.12763465566E+03  0.97448048680E+02  0.12863670254E+03  0.20575259113E+03  0.00000000000E+00 0.  1.
</event>
<event>
 7    1  0.5854318E-006  0.9062730E+02  0.7818608E-02  0.1357919E+00
          2   -1    0    0  502    0  0.00000000000E+00  0.00000000000E+00  0.27816254438E+04  0.27816254438E+04  0.00000000000E+00 0. -1.
          1   -1    0    0  501    0 -0.00000000000E+00 -0.00000000000E+00 -0.67265864997E+03  0.67265864997E+03  0.00000000000E+00 0. -1.
         25    2    1    2    0    0 -0.25179654105E+02  0.85927950049E+02  0.93530768860E+03  0.94786238823E+03  0.12500002830E+03 0.  0.
          2    1    1    2  501    0 -0.47725265385E+02 -0.27468967482E+02 -0.66405448995E+03  0.66633370825E+03  0.00000000000E+00 0. -1.
          1    1    1    2  502    0  0.72904919490E+02 -0.58458982567E+02  0.18377135952E+04  0.18400879973E+04  0.00000000000E+00 0. -1.
         22    1    3    3    0    0 -0.74558707229E+02  0.66978005750E+02  0.65231077793E+03  0.65996545749E+03  0.00000000000E+00 0. -1.
         22    1    3    3    0    0  0.49379053124E+02  0.18949944299E+02  0.28299691068E+03  0.28789693074E+03  0.00000000000E+00 0. -1.
</event>
<event>
 7    1  0.5854318E-006  0.9432247E+02  0.7818608E-02  0.1415344E+00
          2   -1    0    0  502    0  0.00000000000E+00  0.00000000000E+00  0.22555230152E+04  0.22555230152E+04  0.00000000000E+00 0. -1.
          1   -1    0    0  501    0 -0.00000000000E+00 -0.00000000000E+00 -0.31390556090E+02  0.31390556090E+02  0.00000000000E+00 0. -1.
         25    2    1    2    0    0 -0.15487393981E+02 -0.76341773398E+02  0.85875852688E+03  0.87129909892E+03  0.12501194564E+03 0.  0.
          2    1    1    2  501    0  0.47921720979E+02  0.83748141949E+02  0.68543387706E+02  0.11835724997E+03  0.00000000000E+00 0. -1.
          1    1    1    2  502    0 -0.32434326997E+02 -0.74063685511E+01  0.12968305445E+04  0.12972572224E+04  0.00000000000E+00 0. -1.
         22    1    3    3    0    0 -0.11267878382E+02  0.18800111181E+02  0.48841267213E+03  0.48890423148E+03  0.00000000000E+00 0. -1.
         22    1    3    3    0    0 -0.42195155989E+01 -0.95141884579E+02  0.37034585475E+03  0.38239486744E+03  0.00000000000E+00 0. -1.
</event>
<event>
 7    1  0.5854318E-006  0.1736041E+03  0.7818608E-02  0.1349328E+00
          2   -1    0    0  502    0  0.00000000000E+00  0.00000000000E+00  0.23779337809E+04  0.23779337809E+04  0.00000000000E+00 0. -1.
          1   -1    0    0  501    0 -0.00000000000E+00 -0.00000000000E+00 -0.26661046574E+03  0.26661046574E+03  0.00000000000E+00 0. -1.
         25    2    1    2    0    0  0.33564634416E+02 -0.14225239603E+03  0.68380770292E+02  0.20413845637E+03  0.12503699758E+03 0.  0.
          2    1    1    2  501    0  0.18380512160E+02 -0.24863590583E+02 -0.19409050169E+03  0.19653794598E+03  0.00000000000E+00 0. -1.
          1    1    1    2  502    0 -0.51945146576E+02  0.16711598661E+03  0.22370330465E+04  0.22438678443E+04  0.00000000000E+00 0. -1.
         22    1    3    3    0    0  0.33925176720E+02 -0.16220488113E+03  0.76592878694E+02  0.18255905933E+03  0.00000000000E+00 0. -1.
         22    1    3    3    0    0 -0.36054230422E+00  0.19952485097E+02 -0.82121084019E+01  0.21579397042E+02  0.00000000000E+00 0. -1.
</event>
<event>
 7    1  0.5854318E-006  0.9068047E+02  0.7818608E-02  0.1302553E+00
          2   -1    0    0  502    0  0.00000000000E+00  0.00000000000E+00  0.12979541862E+04  0.12979541862E+04  0.00000000000E+00 0. -1.
          1   -1    0    0  501    0 -0.00000000000E+00 -0.00000000000E+00 -0.37512647780E+02  0.37512647780E+02  0.00000000000E+00 0. -1.
         25    2    1    2    0    0 -0.16782571621E+01 -0.18092747238E+02  0.18584397723E+03  0.22470874424E+03  0.12500348721E+03 0.  0.
          2    1    1    2  501    0 -0.84450556543E+02 -0.33031074117E+02  0.11744243676E+03  0.14837679842E+03  0.00000000000E+00 0. -1.
          1    1    1    2  502    0  0.86128813705E+02  0.51123821355E+02  0.95715512446E+03  0.96238129135E+03  0.00000000000E+00 0. -1.
         22    1    3    3    0    0  0.23265712869E+02 -0.66519403012E+02  0.12095060139E+03  0.13998275733E+03  0.00000000000E+00 0.  1.
         22    1    3    3    0    0 -0.24943970031E+02  0.48426655773E+02  0.64893375841E+02  0.84725986912E+02  0.00000000000E+00 0.  1.
</event>
<event>
 7    1  0.5854318E-006  0.1986730E+03  0.7818608E-02  0.1244485E+00
          2   -1    0    0  502    0  0.00000000000E+00  0.00000000000E+00  0.31070427106E+04  0.31070427106E+04  0.00000000000E+00 0. -1.
          1   -1    0    0  501    0 -0.00000000000E+00 -0.00000000000E+00 -0.10230827275E+04  0.10230827275E+04  0.00000000000E+00 0. -1.
         25    2    1    2    0    0 -0.15173933900E+03  0.19673785760E+03 -0.45357419192E+03  0.53205670293E+03  0.12499670374E+03 0.  0.
          2    1    1    2  501    0  0.12218082122E+03 -0.13166378747E+03 -0.51462594289E+03  0.54507189168E+03  0.00000000000E+00 0. -1.
          1    1    1    2  502    0  0.29558517782E+02 -0.65074070130E+02  0.30521601180E+04  0.30529968435E+04  0.00000000000E+00 0. -1.
         22    1    3    3    0    0 -0.10424502432E+03  0.11452791921E+03 -0.15647008503E+03  0.22015121368E+03  0.00000000000E+00 0.  1.
         22    1    3    3    0    0 -0.47494314677E+02  0.82209938396E+02 -0.29710410689E+03  0.31190548926E+03  0.00000000000E+00 0.  1.
</event>
<event>
 7    1  0.5854318E-006  0.7876727E+02  0.7818608E-02  0.1467382E+00
          2   -1    0    0  502    0  0.00000000000E+00  0.00000000000E+00  0.38191038167E+03  0.38191038167E+03  0.00000000000E+00 0. -1.
          1   -1    0    0  501    0 -0.00000000000E+00 -0.00000000000E+00 -0.40632663448E+03  0.40632663448E+03  0.00000000000E+00 0. -1.
         25    2    1    2    0    0 -0.41996498995E+02 -0.42556447345E+02  0.16561464279E+03  0.21593614188E+03  0.12500180128E+03 0.  0.
          2    1    1    2  501    0 -0.23315056798E+02 -0.13658199240E+02 -0.37093678849E+03  0.37191966785E+03  0.00000000000E+00 0. -1.
          1    1    1    2  502    0  0.65311555792E+02  0.56214646584E+02  0.18090589288E+03  0.20038120643E+03  0.00000000000E+00 0. -1.
         22    1    3    3    0    0 -0.65527551101E+02 -0.35636846983E+02  0.33857801316E+02  0.81915783131E+02  0.00000000000E+00 0. -1.
         22    1    3    3    0    0  0.23531052106E+02 -0.69196003619E+01  0.13175684148E+03  0.13402035875E+03  0.00000000000E+00 0. -1.
</event>
<event>
 7    1  0.5854318E-006  0.1535450E+03  0.7818608E-02  0.1336941E+00
          2   -1    0    0  502    0  0.00000000000E+00  0.00000000000E+00  0.10918652734E+04  0.10918652734E+04  0.00000000000E+00 0. -1.
          1   -1    0    0  501    0 -0.00000000000E+00 -0.00000000000E+00 -0.70662607584E+03  0.70662607584E+03  0.00000000000E+00 0. -1.
         25    2    1    2    0    0 -0.18046149188E+03  0.21793408824E+02  0.32408578039E+03  0.39204556947E+03  0.12500733084E+03 0.  0.
          2    1    1    2  501    0  0.14709222704E+03 -0.41784330950E+02 -0.66342741141E+03  0.68082155061E+03  0.00000000000E+00 0. -1.
          1    1    1    2  502    0  0.33369264839E+02  0.19990922126E+02  0.72458082855E+03  0.72562422913E+03  0.00000000000E+00 0. -1.
         22    1    3    3    0    0 -0.34720160427E+02 -0.28282811248E+02  0.16332274978E+03  0.16935090064E+03  0.00000000000E+00 0. -1.
         22    1    3    3    0    0 -0.14574133146E+03  0.50076220072E+02  0.16076303062E+03  0.22269466883E+03  0.00000000000E+00 0. -1.
</event>
<event>
 7    1  0.5854318E-006  0.7981131E+02  0.7818608E-02  0.1354092E+00
          2   -1    0    0  502    0  0.00000000000E+00  0.00000000000E+00  0.26727426607E+04  0.26727426607E+04  0.00000000000E+00 0. -1.
          1   -1    0    0  501    0 -0.00000000000E+00 -0.00000000000E+00 -0.94676319151E+02  0.94676319151E+02  0.00000000000E+00 0. -1.
         25    2    1    2    0    0 -0.33163498328E+02 -0.25157857543E+02  0.12836566032E+04  0.12903998201E+04  0.12499874079E+03 0.  0.
          2    1    1    2  501    0 -0.23921629970E+02 -0.59990987368E+02 -0.77727369997E+02  0.10105793879E+03  0.00000000000E+00 0. -1.
          1    1    1    2  502    0  0.57085128299E+02  0.85148844911E+02  0.13721371084E+04  0.13759612210E+04  0.00000000000E+00 0. -1.
         22    1    3    3    0    0 -0.32449131371E+02  0.47980505545E+02  0.63323043364E+03  0.63587408906E+03  0.00000000000E+00 0. -1.
         22    1    3    3    0    0 -0.71436695770E+00 -0.73138363088E+02  0.65042616958E+03  0.65452573100E+03  0.00000000000E+00 0. -1.
</event>
<event>
 7    1  0.5854318E-006  0.6736117E+02  0.7818608E-02  0.1414756E+00
          2   -1    0    0  502    0  0.00000000000E+00  0.00000000000E+00  0.13381985339E+03  0.13381985339E+03  0.00000000000E+00 0. -1.
          1   -1    0    0  501    0 -0.00000000000E+00 -0.00000000000E+00 -0.30022848589E+03  0.30022848589E+03  0.00000000000E+00 0. -1.
         25    2    1    2    0    0 -0.26492680548E+02 -0.12114316545E+02 -0.53575642412E+02  0.13908224449E+03  0.12499960993E+03 0.  0.
          2    1    1    2  501    0  0.73181731651E+02  0.89229656258E+01 -0.19051207734E+03  0.20427931069E+03  0.00000000000E+00 0. -1.
          1    1    1    2  502    0 -0.46689051103E+02  0.31913509195E+01  0.77679087252E+02  0.90686784097E+02  0.00000000000E+00 0. -1.
         22    1    3    3    0    0  0.15995748588E+02  0.38476990137E+02 -0.59621764991E+02  0.72739931287E+02  0.00000000000E+00 0.  1.
         22    1    3    3    0    0 -0.42488429136E+02 -0.50591306682E+02  0.60461225800E+01  0.66342313199E+02  0.00000000000E+00 0.  1.
</event>
<event>
 7    1  0.5854318E-006  0.4998833E+02  0.7818608E-02  0.1534505E+00
          2   -1    0    0  502    0  0.00000000000E+00  0.00000000000E+00  0.13552335585E+04  0.13552335585E+04  0.00000000000E+00 0. -1.
          1   -1    0    0  501    0 -0.00000000000E+00 -0.00000000000E+00 -0.78214780332E+03  0.78214780332E+03  0.00000000000E+00 0. -1.
         25    2    1    2    0    0  0.57897684388E+02  0.50568341422E+01  0.62993049537E+03  0.64483727647E+03  0.12499988283E+03 0.  0.
          2    1    1    2  501    0 -0.15937994528E+02  0.21614669814E+02 -0.77360023375E+03  0.77406623443E+03  0.00000000000E+00 0. -1.
          1    1    1    2  502    0 -0.41959689860E+02 -0.26671503956E+02  0.71675549353E+03  0.71847785088E+03  0.00000000000E+00 0. -1.
         22    1    3    3    0    0  0.51118167484E+02  0.10526057627E+00  0.80604777769E+02  0.95447411311E+02  0.00000000000E+00 0. -1.
         22    1    3    3    0    0  0.67795169045E+01  0.49515735660E+01  0.54932571760E+03  0.54938986516E+03  0.00000000000E+00 0. -1.
</event>
<event>
 7    1  0.5854318E-006  0.7470259E+02  0.7818608E-02  0.1353674E+00
          2   -1    0    0  502    0  0.00000000000E+00  0.00000000000E+00  0.81333212889E+03  0.81333212889E+03  0.00000000000E+00 0. -1.
          1   -1    0    0  501    0 -0.00000000000E+00 -0.00000000000E+00 -0.10089190641E+03  0.10089190641E+03  0.00000000000E+00 0. -1.
         25    2    1    2    0    0 -0.90287748047E+02  0.39766868618E+02  0.32186165143E+03  0.35910849189E+03  0.12502281790E+03 0.  0.
          2    1    1    2  501    0  0.62609834302E+02  0.29581836203E+02 -0.64091782257E+02  0.94354824664E+02  0.00000000000E+00 0. -1.
          1    1    1    2  502    0  0.27677913745E+02 -0.69348704822E+02  0.45467035331E+03  0.46076071875E+03  0.00000000000E+00 0. -1.
         22    1    3    3    0    0 -0.67916933000E+01  0.61713597197E+02  0.20245696018E+03  0.21176287659E+03  0.00000000000E+00 0.  1.
         22    1    3    3    0    0 -0.83496054747E+02 -0.21946728579E+02  0.11940469126E+03  0.14734561530E+03  0.00000000000E+00 0.  1.
</event>
<event>
 7    1  0.5854318E-006  0.7094240E+02  0.7818608E-02  0.1382119E+00
          2   -1    0    0  502    0  0.00000000000E+00  0.00000000000E+00  0.97755162006E+03  0.97755162006E+03  0.00000000000E+00 0. -1.
          1   -1    0    0  501    0 -0.00000000000E+00 -0.00000000000E+00 -0.84268753981E+02  0.84268753981E+02  0.00000000000E+00 0. -1.
         25    2    1    2    0    0  0.59883980315E+02  0.63115029248E+02  0.57956530575E+03  0.59924140956E+03  0.12499890110E+03 0.  0.
          2    1    1    2  501    0  0.10613981097E+02 -0.56588148512E+02 -0.59446933713E+02  0.82757555997E+02  0.00000000000E+00 0. -1.
          1    1    1    2  502    0 -0.70497961412E+02 -0.65268807355E+01  0.37316449404E+03  0.37982140849E+03  0.00000000000E+00 0. -1.
         22    1    3    3    0    0  0.40783512488E+02  0.58951934872E+01  0.48709204044E+03  0.48883197937E+03  0.00000000000E+00 0. -1.
         22    1    3    3    0    0  0.19100467827E+02  0.57219835760E+02  0.92473265318E+02  0.11040943019E+03  0.00000000000E+00 0. -1.
</event>
<event>
 7    1  0.5854318E-006  0.1234249E+03  0.7818608E-02  0.1365043E+00
          2   -1    0    0  502    0  0.00000000000E+00  0.00000000000E+00  0.22406601501E+04  0.22406601501E+04  0.00000000000E+00 0. -1.
          1   -1    0    0  501    0 -0.00000000000E+00 -0.00000000000E+00 -0.39115479238E+03  0.39115479238E+03  0.00000000000E+00 0. -1.
         25    2    1    2    0    0 -0.13767025104E+03  0.32311814767E+02  0.53527062726E+03  0.56757044446E+03  0.12499765447E+03 0.  0.
          2    1    1    2  501    0  0.16190973195E+02 -0.34476332938E+02 -0.37184609394E+03  0.37379176385E+03  0.00000000000E+00 0. -1.
          1    1    1    2  502    0  0.12147927784E+03  0.21645181707E+01  0.16860808244E+04  0.16904527342E+04  0.00000000000E+00 0. -1.
         22    1    3    3    0    0  0.23348995121E+02 -0.53104826514E+00  0.88678378437E+02  0.91702303066E+02  0.00000000000E+00 0. -1.
         22    1    3    3    0    0 -0.16101924616E+03  0.32842863032E+02  0.44659224882E+03  0.47586814139E+03  0.00000000000E+00 0. -1.
</event>
<event>
 7    1  0.5854318E-006  0.3945674E+02  0.7818608E-02  0.1559607E+00
          2   -1    0    0  502    0  0.00000000000E+00  0.00000000000E+00  0.85351600569E+02  0.85351600569E+02  0.00000000000E+00 0. -1.
          1   -1    0    0  501    0 -0.00000000000E+00 -0.00000000000E+00 -0.87925421090E+03  0.87925421090E+03  0.00000000000E+00 0. -1.
         25    2    1    2    0    0 -0.55805646432E+02  0.35088509778E+02 -0.42245514423E+03  0.44546770754E+03  0.12501062308E+03 0.  0.
          2    1    1    2  501    0  0.29149657588E+02 -0.23823042015E+02 -0.44162571021E+03  0.44322737707E+03  0.00000000000E+00 0. -1.
          1    1    1    2  502    0  0.26655988845E+02 -0.11265467763E+02  0.70178244110E+02  0.75910726855E+02  0.00000000000E+00 0. -1.
         22    1    3    3    0    0 -0.46556888881E+01 -0.45539869182E+02 -0.13065680351E+03  0.13844405162E+03  0.00000000000E+00 0. -1.
         22    1    3    3    0    0 -0.51149957544E+02  0.80628378960E+02 -0.29179834072E+03  0.30702365592E+03  0.00000000000E+00 0. -1.
</event>
<event>
 7    1  0.5854318E-006  0.1192638E+03  0.7818608E-02  0.1338793E+00
          2   -1    0    0  502    0  0.00000000000E+00  0.00000000000E+00  0.16328231756E+03  0.16328231756E+03  0.00000000000E+00 0. -1.
          1   -1    0    0  501    0 -0.00000000000E+00 -0.00000000000E+00 -0.19215309489E+04  0.19215309489E+04  0.00000000000E+00 0. -1.
         25    2    1    2    0    0  0.13074637377E+02 -0.78302219077E+02 -0.40366333557E+03  0.42997833560E+03  0.12504038128E+03 0.  0.
          2    1    1    2  501    0 -0.33885043513E+02  0.12297381573E+03 -0.14978806779E+04  0.15033021255E+04  0.00000000000E+00 0. -1.
          1    1    1    2  502    0  0.20810406136E+02 -0.44671596653E+02  0.14329538210E+03  0.15153280530E+03  0.00000000000E+00 0. -1.
         22    1    3    3    0    0  0.13557729559E+02 -0.97573121932E+02 -0.39781967380E+03  0.40983511198E+03  0.00000000000E+00 0. -1.
         22    1    3    3    0    0 -0.48309218179E+00  0.19270902855E+02 -0.58436617709E+01  0.20143223620E+02  0.00000000000E+00 0. -1.
</event>
<event>
 7    1  0.5854318E-006  0.2609617E+02  0.7818608E-02  0.1681316E+00
          2   -1    0    0  502    0  0.00000000000E+00  0.00000000000E+00  0.24809571887E+02  0.24809571887E+02  0.00000000000E+00 0. -1.
          1   -1    0    0  501    0 -0.00000000000E+00 -0.00000000000E+00 -0.98894830868E+03  0.98894830868E+03  0.00000000000E+00 0. -1.
         25    2    1    2    0    0  0.41904147281E+02  0.20722452129E+02 -0.86214877857E+03  0.87241683216E+03  0.12500094026E+03 0.  0.
          2    1    1    2  501    0 -0.17328546916E+02 -0.12587639892E+02 -0.11166851995E+03  0.11370393821E+03  0.00000000000E+00 0. -1.
          1    1    1    2  502    0 -0.24575600364E+02 -0.81348122370E+01  0.96785617223E+01  0.27637110204E+02  0.00000000000E+00 0. -1.
         22    1    3    3    0    0 -0.39774464326E+01 -0.45050471835E+02 -0.18105169271E+03  0.18661479182E+03  0.00000000000E+00 0.  1.
         22    1    3    3    0    0  0.45881593713E+02  0.65772923964E+02 -0.68109708586E+03  0.68580204034E+03  0.00000000000E+00 0.  1.
</event>
<event>
 7    1  0.5854318E-006  0.8569630E+02  0.7818608E-02  0.1379461E+00
          2   -1    0    0  502    0  0.00000000000E+00  0.00000000000E+00  0.78410466681E+03  0.78410466681E+03  0.00000000000E+00 0. -1.
          1   -1    0    0  501    0 -0.00000000000E+00 -0.00000000000E+00 -0.91114460435E+03  0.91114460435E+03  0.00000000000E+00 0. -1.
         25    2    1    2    0    0 -0.40540190860E+01  0.13066866012E+03 -0.71468107305E+02  0.19448295401E+03  0.12500078092E+03 0.  0.
          2    1    1    2  501    0 -0.85884806743E+01 -0.83632639348E+02 -0.77507257897E+03  0.77961893451E+03  0.00000000000E+00 0. -1.
          1    1    1    2  502    0  0.12642499760E+02 -0.47036020771E+02  0.71950074875E+03  0.72114738265E+03  0.00000000000E+00 0. -1.
         22    1    3    3    0    0  0.35830251626E+02  0.12571592968E+03 -0.80188168017E+02  0.15335724371E+03  0.00000000000E+00 0. -1.
         22    1    3    3    0    0 -0.39884270712E+02  0.49527304375E+01  0.87200607125E+01  0.41125710302E+02  0.00000000000E+00 0. -1.
</event>
<event>
 7    1  0.5854318E-006  0.1028125E+03  0.7818608E-02  0.1336106E+00
          2   -1    0    0  502    0  0.00000000000E+00  0.00000000000E+00  0.66828134511E+03  0.66828134511E+03  0.00000000000E+00 0. -1.
          1   -1    0    0  501    0 -0.00000000000E+00 -0.00000000000E+00 -0.57701794391E+02  0.57701794391E+02  0.00000000000E+00 0. -1.
         25    2    1    2    0    0  0.80653711822E+02 -0.28997275757E+02  0.31771826172E+03  0.35201575888E+03  0.12499734970E+03 0.  0.
          2    1    1    2  501    0 -0.67838872865E+02  0.86094840170E+02  0.43656838006E+02  0.11798454848E+03  0.00000000000E+00 0. -1.
          1    1    1    2  502    0 -0.12814838957E+02 -0.57097564413E+02  0.24920445099E+03  0.25598283214E+03  0.00000000000E+00 0. -1.
         22    1    3    3    0    0  0.55173779781E+02  0.76132337224E+01  0.29815011977E+03  0.30330776651E+03  0.00000000000E+00 0. -1.
         22    1    3    3    0    0  0.25479932041E+02 -0.36610509480E+02  0.19568141948E+02  0.48707992368E+02  0.00000000000E+00 0. -1.
</event>
